;
;   File pamam_g5.5dp_dglucose.itp  was generated
;   By user: sairam (1000)
;   On host: sairam
;   At date: Fri. January  5 10:13:52 2025
;
;   This is a standalone topology file
;
;   Created by:
;   ParmEd:       amb2gro_top_gro.py, VERSION 3.4.1
;   Executable:   amb2gro_top_gro.py
;   Library dir:  /usr/local/gromacs/share/gromacs/top
;   Command line:
;     ./amb2gro_top_gro.py -p pamam_g5.5dp_dglucose.prmtop -c pamam_g5.5dp_dglucose.inpcrd -t pamam_g5.5dp_dglucose.itp -g pamam_g5.5dp_dglucose.gro -b pamam_g5.5dp_dglucose.pdb
;

;[ defaults ]
;; nbfunc        comb-rule       gen-pairs       fudgeLJ fudgeQQ
;1               2               yes             0.5          0.83333333  
;
;[ atomtypes ]
;; name    at.num    mass    charge ptype  sigma      epsilon
;n4             7  14.010000  0.00000000  A     0.32499985        0.71128
;c3             6  12.010000  0.00000000  A     0.33996695      0.4577296
;c              6  12.010000  0.00000000  A     0.33996695       0.359824
;o              8  16.000000  0.00000000  A     0.29599219        0.87864
;hx             1   1.008000  0.00000000  A     0.19599772      0.0656888
;hc             1   1.008000  0.00000000  A     0.26495328      0.0656888
;hn             1   1.008000  0.00000000  A     0.10690785      0.0656888
;n              7  14.010000  0.00000000  A     0.32499985        0.71128
;h1             1   1.008000  0.00000000  A      0.2471353      0.0656888
;h2             1   1.008000  0.00000000  A     0.22931733      0.0656888
;oh             8  16.000000  0.00000000  A     0.30664734      0.8803136
;ho             1   1.008000  0.00000000  A              0              0
;os             8  16.000000  0.00000000  A     0.30000123        0.71128
;n3             7  14.010000  0.00000000  A     0.32499985        0.71128


[ moleculetype ]
; Name            nrexcl
pamam_g5.5dp_dglucose          3

[ atoms ]
;   nr       type  resnr residue  atom   cgnr    charge       mass  typeB    chargeB      massB
; residue    1 aaa rtp aaa q 2.0
    1         n4      1    aaa     N1      1 -0.01815100  14.010000   ; qtot -0.018151
    2         c3      1    aaa     C1      2 0.01243000  12.010000   ; qtot -0.005721
    3         c3      1    aaa     C2      3 0.01243000  12.010000   ; qtot 0.006709
    4         n4      1    aaa     N2      4 -0.01815100  14.010000   ; qtot -0.011442
    5         c3      1    aaa     C3      5 -0.01431700  12.010000   ; qtot -0.025759
    6         c3      1    aaa     C4      6 -0.01431700  12.010000   ; qtot -0.040076
    7         c3      1    aaa     C5      7 -0.01431700  12.010000   ; qtot -0.054393
    8         c3      1    aaa     C6      8 -0.01431700  12.010000   ; qtot -0.068710
    9         c3      1    aaa     C7      9 -0.26758200  12.010000   ; qtot -0.336292
   10          c      1    aaa     C8     10 0.71337400  12.010000   ; qtot 0.377082
   11         c3      1    aaa     C9     11 -0.26758200  12.010000   ; qtot 0.109500
   12          c      1    aaa    C10     12 0.71337400  12.010000   ; qtot 0.822874
   13         c3      1    aaa    C11     13 -0.26758200  12.010000   ; qtot 0.555292
   14          c      1    aaa    C12     14 0.71337400  12.010000   ; qtot 1.268666
   15         c3      1    aaa    C13     15 -0.26758200  12.010000   ; qtot 1.001084
   16          c      1    aaa    C14     16 0.71337400  12.010000   ; qtot 1.714458
   17          o      1    aaa     O1     17 -0.55531800  16.000000   ; qtot 1.159140
   18          o      1    aaa     O2     18 -0.55531800  16.000000   ; qtot 0.603822
   19          o      1    aaa     O3     19 -0.55531800  16.000000   ; qtot 0.048504
   20          o      1    aaa     O4     20 -0.55531800  16.000000   ; qtot -0.506814
   21         hx      1    aaa     H1     21 0.08276100   1.008000   ; qtot -0.424053
   22         hx      1    aaa     H2     22 0.08276100   1.008000   ; qtot -0.341292
   23         hx      1    aaa     H3     23 0.08276100   1.008000   ; qtot -0.258531
   24         hx      1    aaa     H4     24 0.08276100   1.008000   ; qtot -0.175770
   25         hx      1    aaa     H5     25 0.10467000   1.008000   ; qtot -0.071100
   26         hx      1    aaa     H6     26 0.10467000   1.008000   ; qtot 0.033570
   27         hx      1    aaa     H7     27 0.10467000   1.008000   ; qtot 0.138240
   28         hx      1    aaa     H8     28 0.10467000   1.008000   ; qtot 0.242910
   29         hx      1    aaa     H9     29 0.10467000   1.008000   ; qtot 0.347580
   30         hx      1    aaa    H10     30 0.10467000   1.008000   ; qtot 0.452250
   31         hx      1    aaa    H11     31 0.10467000   1.008000   ; qtot 0.556920
   32         hx      1    aaa    H12     32 0.10467000   1.008000   ; qtot 0.661590
   33         hc      1    aaa    H13     33 0.11830200   1.008000   ; qtot 0.779892
   34         hc      1    aaa    H14     34 0.11830200   1.008000   ; qtot 0.898194
   35         hc      1    aaa    H15     35 0.11830200   1.008000   ; qtot 1.016496
   36         hc      1    aaa    H16     36 0.11830200   1.008000   ; qtot 1.134798
   37         hc      1    aaa    H17     37 0.11830200   1.008000   ; qtot 1.253100
   38         hc      1    aaa    H18     38 0.11830200   1.008000   ; qtot 1.371402
   39         hc      1    aaa    H19     39 0.11830200   1.008000   ; qtot 1.489704
   40         hc      1    aaa    H20     40 0.11830200   1.008000   ; qtot 1.608006
   41         hn      1    aaa    H37     41 0.19599700   1.008000   ; qtot 1.804003
   42         hn      1    aaa    H38     42 0.19599700   1.008000   ; qtot 2.000000
; residue    2 bbb rtp bbb q 1.0
   43         n4      2    bbb     N1     43 -0.02747900  14.010000   ; qtot 1.972521
   44         c3      2    bbb     C1     44 -0.05097600  12.010000   ; qtot 1.921545
   45         c3      2    bbb     C2     45 -0.05097600  12.010000   ; qtot 1.870569
   46         c3      2    bbb     C3     46 -0.18457900  12.010000   ; qtot 1.685990
   47          c      2    bbb     C4     47 0.67254400  12.010000   ; qtot 2.358534
   48         c3      2    bbb     C5     48 -0.18457900  12.010000   ; qtot 2.173955
   49          c      2    bbb     C6     49 0.67254400  12.010000   ; qtot 2.846499
   50         c3      2    bbb     C7     50 -0.02083000  12.010000   ; qtot 2.825669
   51         c3      2    bbb     C8     51 -0.03328100  12.010000   ; qtot 2.792388
   52          n      2    bbb     N2     52 -0.33303000  14.010000   ; qtot 2.459358
   53          o      2    bbb     O1     53 -0.52917200  16.000000   ; qtot 1.930186
   54          o      2    bbb     O2     54 -0.52917200  16.000000   ; qtot 1.401014
   55         hx      2    bbb     H1     55 0.11563300   1.008000   ; qtot 1.516647
   56         hx      2    bbb     H2     56 0.11563300   1.008000   ; qtot 1.632280
   57         hx      2    bbb     H3     57 0.11563300   1.008000   ; qtot 1.747913
   58         hx      2    bbb     H4     58 0.11563300   1.008000   ; qtot 1.863546
   59         hc      2    bbb     H5     59 0.08347900   1.008000   ; qtot 1.947025
   60         hc      2    bbb     H6     60 0.08347900   1.008000   ; qtot 2.030504
   61         hc      2    bbb     H7     61 0.08347900   1.008000   ; qtot 2.113983
   62         hc      2    bbb     H8     62 0.08347900   1.008000   ; qtot 2.197462
   63         hx      2    bbb     H9     63 0.07988000   1.008000   ; qtot 2.277342
   64         hx      2    bbb    H10     64 0.07988000   1.008000   ; qtot 2.357222
   65         h1      2    bbb    H11     65 0.10618100   1.008000   ; qtot 2.463403
   66         h1      2    bbb    H12     66 0.10618100   1.008000   ; qtot 2.569584
   67         hn      2    bbb    H13     67 0.25916100   1.008000   ; qtot 2.828745
   68         hn      2    bbb    H25     68 0.17125500   1.008000   ; qtot 3.000000
; residue    3 bbb rtp bbb q 1.0
   69         n4      3    bbb     N1     69 -0.02747900  14.010000   ; qtot 2.972521
   70         c3      3    bbb     C1     70 -0.05097600  12.010000   ; qtot 2.921545
   71         c3      3    bbb     C2     71 -0.05097600  12.010000   ; qtot 2.870569
   72         c3      3    bbb     C3     72 -0.18457900  12.010000   ; qtot 2.685990
   73          c      3    bbb     C4     73 0.67254400  12.010000   ; qtot 3.358534
   74         c3      3    bbb     C5     74 -0.18457900  12.010000   ; qtot 3.173955
   75          c      3    bbb     C6     75 0.67254400  12.010000   ; qtot 3.846499
   76         c3      3    bbb     C7     76 -0.02083000  12.010000   ; qtot 3.825669
   77         c3      3    bbb     C8     77 -0.03328100  12.010000   ; qtot 3.792388
   78          n      3    bbb     N2     78 -0.33303000  14.010000   ; qtot 3.459358
   79          o      3    bbb     O1     79 -0.52917200  16.000000   ; qtot 2.930186
   80          o      3    bbb     O2     80 -0.52917200  16.000000   ; qtot 2.401014
   81         hx      3    bbb     H1     81 0.11563300   1.008000   ; qtot 2.516647
   82         hx      3    bbb     H2     82 0.11563300   1.008000   ; qtot 2.632280
   83         hx      3    bbb     H3     83 0.11563300   1.008000   ; qtot 2.747913
   84         hx      3    bbb     H4     84 0.11563300   1.008000   ; qtot 2.863546
   85         hc      3    bbb     H5     85 0.08347900   1.008000   ; qtot 2.947025
   86         hc      3    bbb     H6     86 0.08347900   1.008000   ; qtot 3.030504
   87         hc      3    bbb     H7     87 0.08347900   1.008000   ; qtot 3.113983
   88         hc      3    bbb     H8     88 0.08347900   1.008000   ; qtot 3.197462
   89         hx      3    bbb     H9     89 0.07988000   1.008000   ; qtot 3.277342
   90         hx      3    bbb    H10     90 0.07988000   1.008000   ; qtot 3.357222
   91         h1      3    bbb    H11     91 0.10618100   1.008000   ; qtot 3.463403
   92         h1      3    bbb    H12     92 0.10618100   1.008000   ; qtot 3.569584
   93         hn      3    bbb    H13     93 0.25916100   1.008000   ; qtot 3.828745
   94         hn      3    bbb    H25     94 0.17125500   1.008000   ; qtot 4.000000
; residue    4 bbb rtp bbb q 1.0
   95         n4      4    bbb     N1     95 -0.02747900  14.010000   ; qtot 3.972521
   96         c3      4    bbb     C1     96 -0.05097600  12.010000   ; qtot 3.921545
   97         c3      4    bbb     C2     97 -0.05097600  12.010000   ; qtot 3.870569
   98         c3      4    bbb     C3     98 -0.18457900  12.010000   ; qtot 3.685990
   99          c      4    bbb     C4     99 0.67254400  12.010000   ; qtot 4.358534
  100         c3      4    bbb     C5    100 -0.18457900  12.010000   ; qtot 4.173955
  101          c      4    bbb     C6    101 0.67254400  12.010000   ; qtot 4.846499
  102         c3      4    bbb     C7    102 -0.02083000  12.010000   ; qtot 4.825669
  103         c3      4    bbb     C8    103 -0.03328100  12.010000   ; qtot 4.792388
  104          n      4    bbb     N2    104 -0.33303000  14.010000   ; qtot 4.459358
  105          o      4    bbb     O1    105 -0.52917200  16.000000   ; qtot 3.930186
  106          o      4    bbb     O2    106 -0.52917200  16.000000   ; qtot 3.401014
  107         hx      4    bbb     H1    107 0.11563300   1.008000   ; qtot 3.516647
  108         hx      4    bbb     H2    108 0.11563300   1.008000   ; qtot 3.632280
  109         hx      4    bbb     H3    109 0.11563300   1.008000   ; qtot 3.747913
  110         hx      4    bbb     H4    110 0.11563300   1.008000   ; qtot 3.863546
  111         hc      4    bbb     H5    111 0.08347900   1.008000   ; qtot 3.947025
  112         hc      4    bbb     H6    112 0.08347900   1.008000   ; qtot 4.030504
  113         hc      4    bbb     H7    113 0.08347900   1.008000   ; qtot 4.113983
  114         hc      4    bbb     H8    114 0.08347900   1.008000   ; qtot 4.197462
  115         hx      4    bbb     H9    115 0.07988000   1.008000   ; qtot 4.277342
  116         hx      4    bbb    H10    116 0.07988000   1.008000   ; qtot 4.357222
  117         h1      4    bbb    H11    117 0.10618100   1.008000   ; qtot 4.463403
  118         h1      4    bbb    H12    118 0.10618100   1.008000   ; qtot 4.569584
  119         hn      4    bbb    H13    119 0.25916100   1.008000   ; qtot 4.828745
  120         hn      4    bbb    H25    120 0.17125500   1.008000   ; qtot 5.000000
; residue    5 bbb rtp bbb q 1.0
  121         n4      5    bbb     N1    121 -0.02747900  14.010000   ; qtot 4.972521
  122         c3      5    bbb     C1    122 -0.05097600  12.010000   ; qtot 4.921545
  123         c3      5    bbb     C2    123 -0.05097600  12.010000   ; qtot 4.870569
  124         c3      5    bbb     C3    124 -0.18457900  12.010000   ; qtot 4.685990
  125          c      5    bbb     C4    125 0.67254400  12.010000   ; qtot 5.358534
  126         c3      5    bbb     C5    126 -0.18457900  12.010000   ; qtot 5.173955
  127          c      5    bbb     C6    127 0.67254400  12.010000   ; qtot 5.846499
  128         c3      5    bbb     C7    128 -0.02083000  12.010000   ; qtot 5.825669
  129         c3      5    bbb     C8    129 -0.03328100  12.010000   ; qtot 5.792388
  130          n      5    bbb     N2    130 -0.33303000  14.010000   ; qtot 5.459358
  131          o      5    bbb     O1    131 -0.52917200  16.000000   ; qtot 4.930186
  132          o      5    bbb     O2    132 -0.52917200  16.000000   ; qtot 4.401014
  133         hx      5    bbb     H1    133 0.11563300   1.008000   ; qtot 4.516647
  134         hx      5    bbb     H2    134 0.11563300   1.008000   ; qtot 4.632280
  135         hx      5    bbb     H3    135 0.11563300   1.008000   ; qtot 4.747913
  136         hx      5    bbb     H4    136 0.11563300   1.008000   ; qtot 4.863546
  137         hc      5    bbb     H5    137 0.08347900   1.008000   ; qtot 4.947025
  138         hc      5    bbb     H6    138 0.08347900   1.008000   ; qtot 5.030504
  139         hc      5    bbb     H7    139 0.08347900   1.008000   ; qtot 5.113983
  140         hc      5    bbb     H8    140 0.08347900   1.008000   ; qtot 5.197462
  141         hx      5    bbb     H9    141 0.07988000   1.008000   ; qtot 5.277342
  142         hx      5    bbb    H10    142 0.07988000   1.008000   ; qtot 5.357222
  143         h1      5    bbb    H11    143 0.10618100   1.008000   ; qtot 5.463403
  144         h1      5    bbb    H12    144 0.10618100   1.008000   ; qtot 5.569584
  145         hn      5    bbb    H13    145 0.25916100   1.008000   ; qtot 5.828745
  146         hn      5    bbb    H25    146 0.17125500   1.008000   ; qtot 6.000000
; residue    6 bbb rtp bbb q 1.0
  147         n4      6    bbb     N1    147 -0.02747900  14.010000   ; qtot 5.972521
  148         c3      6    bbb     C1    148 -0.05097600  12.010000   ; qtot 5.921545
  149         c3      6    bbb     C2    149 -0.05097600  12.010000   ; qtot 5.870569
  150         c3      6    bbb     C3    150 -0.18457900  12.010000   ; qtot 5.685990
  151          c      6    bbb     C4    151 0.67254400  12.010000   ; qtot 6.358534
  152         c3      6    bbb     C5    152 -0.18457900  12.010000   ; qtot 6.173955
  153          c      6    bbb     C6    153 0.67254400  12.010000   ; qtot 6.846499
  154         c3      6    bbb     C7    154 -0.02083000  12.010000   ; qtot 6.825669
  155         c3      6    bbb     C8    155 -0.03328100  12.010000   ; qtot 6.792388
  156          n      6    bbb     N2    156 -0.33303000  14.010000   ; qtot 6.459358
  157          o      6    bbb     O1    157 -0.52917200  16.000000   ; qtot 5.930186
  158          o      6    bbb     O2    158 -0.52917200  16.000000   ; qtot 5.401014
  159         hx      6    bbb     H1    159 0.11563300   1.008000   ; qtot 5.516647
  160         hx      6    bbb     H2    160 0.11563300   1.008000   ; qtot 5.632280
  161         hx      6    bbb     H3    161 0.11563300   1.008000   ; qtot 5.747913
  162         hx      6    bbb     H4    162 0.11563300   1.008000   ; qtot 5.863546
  163         hc      6    bbb     H5    163 0.08347900   1.008000   ; qtot 5.947025
  164         hc      6    bbb     H6    164 0.08347900   1.008000   ; qtot 6.030504
  165         hc      6    bbb     H7    165 0.08347900   1.008000   ; qtot 6.113983
  166         hc      6    bbb     H8    166 0.08347900   1.008000   ; qtot 6.197462
  167         hx      6    bbb     H9    167 0.07988000   1.008000   ; qtot 6.277342
  168         hx      6    bbb    H10    168 0.07988000   1.008000   ; qtot 6.357222
  169         h1      6    bbb    H11    169 0.10618100   1.008000   ; qtot 6.463403
  170         h1      6    bbb    H12    170 0.10618100   1.008000   ; qtot 6.569584
  171         hn      6    bbb    H13    171 0.25916100   1.008000   ; qtot 6.828745
  172         hn      6    bbb    H25    172 0.17125500   1.008000   ; qtot 7.000000
; residue    7 bbb rtp bbb q 1.0
  173         n4      7    bbb     N1    173 -0.02747900  14.010000   ; qtot 6.972521
  174         c3      7    bbb     C1    174 -0.05097600  12.010000   ; qtot 6.921545
  175         c3      7    bbb     C2    175 -0.05097600  12.010000   ; qtot 6.870569
  176         c3      7    bbb     C3    176 -0.18457900  12.010000   ; qtot 6.685990
  177          c      7    bbb     C4    177 0.67254400  12.010000   ; qtot 7.358534
  178         c3      7    bbb     C5    178 -0.18457900  12.010000   ; qtot 7.173955
  179          c      7    bbb     C6    179 0.67254400  12.010000   ; qtot 7.846499
  180         c3      7    bbb     C7    180 -0.02083000  12.010000   ; qtot 7.825669
  181         c3      7    bbb     C8    181 -0.03328100  12.010000   ; qtot 7.792388
  182          n      7    bbb     N2    182 -0.33303000  14.010000   ; qtot 7.459358
  183          o      7    bbb     O1    183 -0.52917200  16.000000   ; qtot 6.930186
  184          o      7    bbb     O2    184 -0.52917200  16.000000   ; qtot 6.401014
  185         hx      7    bbb     H1    185 0.11563300   1.008000   ; qtot 6.516647
  186         hx      7    bbb     H2    186 0.11563300   1.008000   ; qtot 6.632280
  187         hx      7    bbb     H3    187 0.11563300   1.008000   ; qtot 6.747913
  188         hx      7    bbb     H4    188 0.11563300   1.008000   ; qtot 6.863546
  189         hc      7    bbb     H5    189 0.08347900   1.008000   ; qtot 6.947025
  190         hc      7    bbb     H6    190 0.08347900   1.008000   ; qtot 7.030504
  191         hc      7    bbb     H7    191 0.08347900   1.008000   ; qtot 7.113983
  192         hc      7    bbb     H8    192 0.08347900   1.008000   ; qtot 7.197462
  193         hx      7    bbb     H9    193 0.07988000   1.008000   ; qtot 7.277342
  194         hx      7    bbb    H10    194 0.07988000   1.008000   ; qtot 7.357222
  195         h1      7    bbb    H11    195 0.10618100   1.008000   ; qtot 7.463403
  196         h1      7    bbb    H12    196 0.10618100   1.008000   ; qtot 7.569584
  197         hn      7    bbb    H13    197 0.25916100   1.008000   ; qtot 7.828745
  198         hn      7    bbb    H25    198 0.17125500   1.008000   ; qtot 8.000000
; residue    8 bbb rtp bbb q 1.0
  199         n4      8    bbb     N1    199 -0.02747900  14.010000   ; qtot 7.972521
  200         c3      8    bbb     C1    200 -0.05097600  12.010000   ; qtot 7.921545
  201         c3      8    bbb     C2    201 -0.05097600  12.010000   ; qtot 7.870569
  202         c3      8    bbb     C3    202 -0.18457900  12.010000   ; qtot 7.685990
  203          c      8    bbb     C4    203 0.67254400  12.010000   ; qtot 8.358534
  204         c3      8    bbb     C5    204 -0.18457900  12.010000   ; qtot 8.173955
  205          c      8    bbb     C6    205 0.67254400  12.010000   ; qtot 8.846499
  206         c3      8    bbb     C7    206 -0.02083000  12.010000   ; qtot 8.825669
  207         c3      8    bbb     C8    207 -0.03328100  12.010000   ; qtot 8.792388
  208          n      8    bbb     N2    208 -0.33303000  14.010000   ; qtot 8.459358
  209          o      8    bbb     O1    209 -0.52917200  16.000000   ; qtot 7.930186
  210          o      8    bbb     O2    210 -0.52917200  16.000000   ; qtot 7.401014
  211         hx      8    bbb     H1    211 0.11563300   1.008000   ; qtot 7.516647
  212         hx      8    bbb     H2    212 0.11563300   1.008000   ; qtot 7.632280
  213         hx      8    bbb     H3    213 0.11563300   1.008000   ; qtot 7.747913
  214         hx      8    bbb     H4    214 0.11563300   1.008000   ; qtot 7.863546
  215         hc      8    bbb     H5    215 0.08347900   1.008000   ; qtot 7.947025
  216         hc      8    bbb     H6    216 0.08347900   1.008000   ; qtot 8.030504
  217         hc      8    bbb     H7    217 0.08347900   1.008000   ; qtot 8.113983
  218         hc      8    bbb     H8    218 0.08347900   1.008000   ; qtot 8.197462
  219         hx      8    bbb     H9    219 0.07988000   1.008000   ; qtot 8.277342
  220         hx      8    bbb    H10    220 0.07988000   1.008000   ; qtot 8.357222
  221         h1      8    bbb    H11    221 0.10618100   1.008000   ; qtot 8.463403
  222         h1      8    bbb    H12    222 0.10618100   1.008000   ; qtot 8.569584
  223         hn      8    bbb    H13    223 0.25916100   1.008000   ; qtot 8.828745
  224         hn      8    bbb    H25    224 0.17125500   1.008000   ; qtot 9.000000
; residue    9 bbb rtp bbb q 1.0
  225         n4      9    bbb     N1    225 -0.02747900  14.010000   ; qtot 8.972521
  226         c3      9    bbb     C1    226 -0.05097600  12.010000   ; qtot 8.921545
  227         c3      9    bbb     C2    227 -0.05097600  12.010000   ; qtot 8.870569
  228         c3      9    bbb     C3    228 -0.18457900  12.010000   ; qtot 8.685990
  229          c      9    bbb     C4    229 0.67254400  12.010000   ; qtot 9.358534
  230         c3      9    bbb     C5    230 -0.18457900  12.010000   ; qtot 9.173955
  231          c      9    bbb     C6    231 0.67254400  12.010000   ; qtot 9.846499
  232         c3      9    bbb     C7    232 -0.02083000  12.010000   ; qtot 9.825669
  233         c3      9    bbb     C8    233 -0.03328100  12.010000   ; qtot 9.792388
  234          n      9    bbb     N2    234 -0.33303000  14.010000   ; qtot 9.459358
  235          o      9    bbb     O1    235 -0.52917200  16.000000   ; qtot 8.930186
  236          o      9    bbb     O2    236 -0.52917200  16.000000   ; qtot 8.401014
  237         hx      9    bbb     H1    237 0.11563300   1.008000   ; qtot 8.516647
  238         hx      9    bbb     H2    238 0.11563300   1.008000   ; qtot 8.632280
  239         hx      9    bbb     H3    239 0.11563300   1.008000   ; qtot 8.747913
  240         hx      9    bbb     H4    240 0.11563300   1.008000   ; qtot 8.863546
  241         hc      9    bbb     H5    241 0.08347900   1.008000   ; qtot 8.947025
  242         hc      9    bbb     H6    242 0.08347900   1.008000   ; qtot 9.030504
  243         hc      9    bbb     H7    243 0.08347900   1.008000   ; qtot 9.113983
  244         hc      9    bbb     H8    244 0.08347900   1.008000   ; qtot 9.197462
  245         hx      9    bbb     H9    245 0.07988000   1.008000   ; qtot 9.277342
  246         hx      9    bbb    H10    246 0.07988000   1.008000   ; qtot 9.357222
  247         h1      9    bbb    H11    247 0.10618100   1.008000   ; qtot 9.463403
  248         h1      9    bbb    H12    248 0.10618100   1.008000   ; qtot 9.569584
  249         hn      9    bbb    H13    249 0.25916100   1.008000   ; qtot 9.828745
  250         hn      9    bbb    H25    250 0.17125500   1.008000   ; qtot 10.000000
; residue   10 bbb rtp bbb q 1.0
  251         n4     10    bbb     N1    251 -0.02747900  14.010000   ; qtot 9.972521
  252         c3     10    bbb     C1    252 -0.05097600  12.010000   ; qtot 9.921545
  253         c3     10    bbb     C2    253 -0.05097600  12.010000   ; qtot 9.870569
  254         c3     10    bbb     C3    254 -0.18457900  12.010000   ; qtot 9.685990
  255          c     10    bbb     C4    255 0.67254400  12.010000   ; qtot 10.358534
  256         c3     10    bbb     C5    256 -0.18457900  12.010000   ; qtot 10.173955
  257          c     10    bbb     C6    257 0.67254400  12.010000   ; qtot 10.846499
  258         c3     10    bbb     C7    258 -0.02083000  12.010000   ; qtot 10.825669
  259         c3     10    bbb     C8    259 -0.03328100  12.010000   ; qtot 10.792388
  260          n     10    bbb     N2    260 -0.33303000  14.010000   ; qtot 10.459358
  261          o     10    bbb     O1    261 -0.52917200  16.000000   ; qtot 9.930186
  262          o     10    bbb     O2    262 -0.52917200  16.000000   ; qtot 9.401014
  263         hx     10    bbb     H1    263 0.11563300   1.008000   ; qtot 9.516647
  264         hx     10    bbb     H2    264 0.11563300   1.008000   ; qtot 9.632280
  265         hx     10    bbb     H3    265 0.11563300   1.008000   ; qtot 9.747913
  266         hx     10    bbb     H4    266 0.11563300   1.008000   ; qtot 9.863546
  267         hc     10    bbb     H5    267 0.08347900   1.008000   ; qtot 9.947025
  268         hc     10    bbb     H6    268 0.08347900   1.008000   ; qtot 10.030504
  269         hc     10    bbb     H7    269 0.08347900   1.008000   ; qtot 10.113983
  270         hc     10    bbb     H8    270 0.08347900   1.008000   ; qtot 10.197462
  271         hx     10    bbb     H9    271 0.07988000   1.008000   ; qtot 10.277342
  272         hx     10    bbb    H10    272 0.07988000   1.008000   ; qtot 10.357222
  273         h1     10    bbb    H11    273 0.10618100   1.008000   ; qtot 10.463403
  274         h1     10    bbb    H12    274 0.10618100   1.008000   ; qtot 10.569584
  275         hn     10    bbb    H13    275 0.25916100   1.008000   ; qtot 10.828745
  276         hn     10    bbb    H25    276 0.17125500   1.008000   ; qtot 11.000000
; residue   11 bbb rtp bbb q 1.0
  277         n4     11    bbb     N1    277 -0.02747900  14.010000   ; qtot 10.972521
  278         c3     11    bbb     C1    278 -0.05097600  12.010000   ; qtot 10.921545
  279         c3     11    bbb     C2    279 -0.05097600  12.010000   ; qtot 10.870569
  280         c3     11    bbb     C3    280 -0.18457900  12.010000   ; qtot 10.685990
  281          c     11    bbb     C4    281 0.67254400  12.010000   ; qtot 11.358534
  282         c3     11    bbb     C5    282 -0.18457900  12.010000   ; qtot 11.173955
  283          c     11    bbb     C6    283 0.67254400  12.010000   ; qtot 11.846499
  284         c3     11    bbb     C7    284 -0.02083000  12.010000   ; qtot 11.825669
  285         c3     11    bbb     C8    285 -0.03328100  12.010000   ; qtot 11.792388
  286          n     11    bbb     N2    286 -0.33303000  14.010000   ; qtot 11.459358
  287          o     11    bbb     O1    287 -0.52917200  16.000000   ; qtot 10.930186
  288          o     11    bbb     O2    288 -0.52917200  16.000000   ; qtot 10.401014
  289         hx     11    bbb     H1    289 0.11563300   1.008000   ; qtot 10.516647
  290         hx     11    bbb     H2    290 0.11563300   1.008000   ; qtot 10.632280
  291         hx     11    bbb     H3    291 0.11563300   1.008000   ; qtot 10.747913
  292         hx     11    bbb     H4    292 0.11563300   1.008000   ; qtot 10.863546
  293         hc     11    bbb     H5    293 0.08347900   1.008000   ; qtot 10.947025
  294         hc     11    bbb     H6    294 0.08347900   1.008000   ; qtot 11.030504
  295         hc     11    bbb     H7    295 0.08347900   1.008000   ; qtot 11.113983
  296         hc     11    bbb     H8    296 0.08347900   1.008000   ; qtot 11.197462
  297         hx     11    bbb     H9    297 0.07988000   1.008000   ; qtot 11.277342
  298         hx     11    bbb    H10    298 0.07988000   1.008000   ; qtot 11.357222
  299         h1     11    bbb    H11    299 0.10618100   1.008000   ; qtot 11.463403
  300         h1     11    bbb    H12    300 0.10618100   1.008000   ; qtot 11.569584
  301         hn     11    bbb    H13    301 0.25916100   1.008000   ; qtot 11.828745
  302         hn     11    bbb    H25    302 0.17125500   1.008000   ; qtot 12.000000
; residue   12 bbb rtp bbb q 1.0
  303         n4     12    bbb     N1    303 -0.02747900  14.010000   ; qtot 11.972521
  304         c3     12    bbb     C1    304 -0.05097600  12.010000   ; qtot 11.921545
  305         c3     12    bbb     C2    305 -0.05097600  12.010000   ; qtot 11.870569
  306         c3     12    bbb     C3    306 -0.18457900  12.010000   ; qtot 11.685990
  307          c     12    bbb     C4    307 0.67254400  12.010000   ; qtot 12.358534
  308         c3     12    bbb     C5    308 -0.18457900  12.010000   ; qtot 12.173955
  309          c     12    bbb     C6    309 0.67254400  12.010000   ; qtot 12.846499
  310         c3     12    bbb     C7    310 -0.02083000  12.010000   ; qtot 12.825669
  311         c3     12    bbb     C8    311 -0.03328100  12.010000   ; qtot 12.792388
  312          n     12    bbb     N2    312 -0.33303000  14.010000   ; qtot 12.459358
  313          o     12    bbb     O1    313 -0.52917200  16.000000   ; qtot 11.930186
  314          o     12    bbb     O2    314 -0.52917200  16.000000   ; qtot 11.401014
  315         hx     12    bbb     H1    315 0.11563300   1.008000   ; qtot 11.516647
  316         hx     12    bbb     H2    316 0.11563300   1.008000   ; qtot 11.632280
  317         hx     12    bbb     H3    317 0.11563300   1.008000   ; qtot 11.747913
  318         hx     12    bbb     H4    318 0.11563300   1.008000   ; qtot 11.863546
  319         hc     12    bbb     H5    319 0.08347900   1.008000   ; qtot 11.947025
  320         hc     12    bbb     H6    320 0.08347900   1.008000   ; qtot 12.030504
  321         hc     12    bbb     H7    321 0.08347900   1.008000   ; qtot 12.113983
  322         hc     12    bbb     H8    322 0.08347900   1.008000   ; qtot 12.197462
  323         hx     12    bbb     H9    323 0.07988000   1.008000   ; qtot 12.277342
  324         hx     12    bbb    H10    324 0.07988000   1.008000   ; qtot 12.357222
  325         h1     12    bbb    H11    325 0.10618100   1.008000   ; qtot 12.463403
  326         h1     12    bbb    H12    326 0.10618100   1.008000   ; qtot 12.569584
  327         hn     12    bbb    H13    327 0.25916100   1.008000   ; qtot 12.828745
  328         hn     12    bbb    H25    328 0.17125500   1.008000   ; qtot 13.000000
; residue   13 bbb rtp bbb q 1.0
  329         n4     13    bbb     N1    329 -0.02747900  14.010000   ; qtot 12.972521
  330         c3     13    bbb     C1    330 -0.05097600  12.010000   ; qtot 12.921545
  331         c3     13    bbb     C2    331 -0.05097600  12.010000   ; qtot 12.870569
  332         c3     13    bbb     C3    332 -0.18457900  12.010000   ; qtot 12.685990
  333          c     13    bbb     C4    333 0.67254400  12.010000   ; qtot 13.358534
  334         c3     13    bbb     C5    334 -0.18457900  12.010000   ; qtot 13.173955
  335          c     13    bbb     C6    335 0.67254400  12.010000   ; qtot 13.846499
  336         c3     13    bbb     C7    336 -0.02083000  12.010000   ; qtot 13.825669
  337         c3     13    bbb     C8    337 -0.03328100  12.010000   ; qtot 13.792388
  338          n     13    bbb     N2    338 -0.33303000  14.010000   ; qtot 13.459358
  339          o     13    bbb     O1    339 -0.52917200  16.000000   ; qtot 12.930186
  340          o     13    bbb     O2    340 -0.52917200  16.000000   ; qtot 12.401014
  341         hx     13    bbb     H1    341 0.11563300   1.008000   ; qtot 12.516647
  342         hx     13    bbb     H2    342 0.11563300   1.008000   ; qtot 12.632280
  343         hx     13    bbb     H3    343 0.11563300   1.008000   ; qtot 12.747913
  344         hx     13    bbb     H4    344 0.11563300   1.008000   ; qtot 12.863546
  345         hc     13    bbb     H5    345 0.08347900   1.008000   ; qtot 12.947025
  346         hc     13    bbb     H6    346 0.08347900   1.008000   ; qtot 13.030504
  347         hc     13    bbb     H7    347 0.08347900   1.008000   ; qtot 13.113983
  348         hc     13    bbb     H8    348 0.08347900   1.008000   ; qtot 13.197462
  349         hx     13    bbb     H9    349 0.07988000   1.008000   ; qtot 13.277342
  350         hx     13    bbb    H10    350 0.07988000   1.008000   ; qtot 13.357222
  351         h1     13    bbb    H11    351 0.10618100   1.008000   ; qtot 13.463403
  352         h1     13    bbb    H12    352 0.10618100   1.008000   ; qtot 13.569584
  353         hn     13    bbb    H13    353 0.25916100   1.008000   ; qtot 13.828745
  354         hn     13    bbb    H25    354 0.17125500   1.008000   ; qtot 14.000000
; residue   14 bbb rtp bbb q 1.0
  355         n4     14    bbb     N1    355 -0.02747900  14.010000   ; qtot 13.972521
  356         c3     14    bbb     C1    356 -0.05097600  12.010000   ; qtot 13.921545
  357         c3     14    bbb     C2    357 -0.05097600  12.010000   ; qtot 13.870569
  358         c3     14    bbb     C3    358 -0.18457900  12.010000   ; qtot 13.685990
  359          c     14    bbb     C4    359 0.67254400  12.010000   ; qtot 14.358534
  360         c3     14    bbb     C5    360 -0.18457900  12.010000   ; qtot 14.173955
  361          c     14    bbb     C6    361 0.67254400  12.010000   ; qtot 14.846499
  362         c3     14    bbb     C7    362 -0.02083000  12.010000   ; qtot 14.825669
  363         c3     14    bbb     C8    363 -0.03328100  12.010000   ; qtot 14.792388
  364          n     14    bbb     N2    364 -0.33303000  14.010000   ; qtot 14.459358
  365          o     14    bbb     O1    365 -0.52917200  16.000000   ; qtot 13.930186
  366          o     14    bbb     O2    366 -0.52917200  16.000000   ; qtot 13.401014
  367         hx     14    bbb     H1    367 0.11563300   1.008000   ; qtot 13.516647
  368         hx     14    bbb     H2    368 0.11563300   1.008000   ; qtot 13.632280
  369         hx     14    bbb     H3    369 0.11563300   1.008000   ; qtot 13.747913
  370         hx     14    bbb     H4    370 0.11563300   1.008000   ; qtot 13.863546
  371         hc     14    bbb     H5    371 0.08347900   1.008000   ; qtot 13.947025
  372         hc     14    bbb     H6    372 0.08347900   1.008000   ; qtot 14.030504
  373         hc     14    bbb     H7    373 0.08347900   1.008000   ; qtot 14.113983
  374         hc     14    bbb     H8    374 0.08347900   1.008000   ; qtot 14.197462
  375         hx     14    bbb     H9    375 0.07988000   1.008000   ; qtot 14.277342
  376         hx     14    bbb    H10    376 0.07988000   1.008000   ; qtot 14.357222
  377         h1     14    bbb    H11    377 0.10618100   1.008000   ; qtot 14.463403
  378         h1     14    bbb    H12    378 0.10618100   1.008000   ; qtot 14.569584
  379         hn     14    bbb    H13    379 0.25916100   1.008000   ; qtot 14.828745
  380         hn     14    bbb    H25    380 0.17125500   1.008000   ; qtot 15.000000
; residue   15 bbb rtp bbb q 1.0
  381         n4     15    bbb     N1    381 -0.02747900  14.010000   ; qtot 14.972521
  382         c3     15    bbb     C1    382 -0.05097600  12.010000   ; qtot 14.921545
  383         c3     15    bbb     C2    383 -0.05097600  12.010000   ; qtot 14.870569
  384         c3     15    bbb     C3    384 -0.18457900  12.010000   ; qtot 14.685990
  385          c     15    bbb     C4    385 0.67254400  12.010000   ; qtot 15.358534
  386         c3     15    bbb     C5    386 -0.18457900  12.010000   ; qtot 15.173955
  387          c     15    bbb     C6    387 0.67254400  12.010000   ; qtot 15.846499
  388         c3     15    bbb     C7    388 -0.02083000  12.010000   ; qtot 15.825669
  389         c3     15    bbb     C8    389 -0.03328100  12.010000   ; qtot 15.792388
  390          n     15    bbb     N2    390 -0.33303000  14.010000   ; qtot 15.459358
  391          o     15    bbb     O1    391 -0.52917200  16.000000   ; qtot 14.930186
  392          o     15    bbb     O2    392 -0.52917200  16.000000   ; qtot 14.401014
  393         hx     15    bbb     H1    393 0.11563300   1.008000   ; qtot 14.516647
  394         hx     15    bbb     H2    394 0.11563300   1.008000   ; qtot 14.632280
  395         hx     15    bbb     H3    395 0.11563300   1.008000   ; qtot 14.747913
  396         hx     15    bbb     H4    396 0.11563300   1.008000   ; qtot 14.863546
  397         hc     15    bbb     H5    397 0.08347900   1.008000   ; qtot 14.947025
  398         hc     15    bbb     H6    398 0.08347900   1.008000   ; qtot 15.030504
  399         hc     15    bbb     H7    399 0.08347900   1.008000   ; qtot 15.113983
  400         hc     15    bbb     H8    400 0.08347900   1.008000   ; qtot 15.197462
  401         hx     15    bbb     H9    401 0.07988000   1.008000   ; qtot 15.277342
  402         hx     15    bbb    H10    402 0.07988000   1.008000   ; qtot 15.357222
  403         h1     15    bbb    H11    403 0.10618100   1.008000   ; qtot 15.463403
  404         h1     15    bbb    H12    404 0.10618100   1.008000   ; qtot 15.569584
  405         hn     15    bbb    H13    405 0.25916100   1.008000   ; qtot 15.828745
  406         hn     15    bbb    H25    406 0.17125500   1.008000   ; qtot 16.000000
; residue   16 bbb rtp bbb q 1.0
  407         n4     16    bbb     N1    407 -0.02747900  14.010000   ; qtot 15.972521
  408         c3     16    bbb     C1    408 -0.05097600  12.010000   ; qtot 15.921545
  409         c3     16    bbb     C2    409 -0.05097600  12.010000   ; qtot 15.870569
  410         c3     16    bbb     C3    410 -0.18457900  12.010000   ; qtot 15.685990
  411          c     16    bbb     C4    411 0.67254400  12.010000   ; qtot 16.358534
  412         c3     16    bbb     C5    412 -0.18457900  12.010000   ; qtot 16.173955
  413          c     16    bbb     C6    413 0.67254400  12.010000   ; qtot 16.846499
  414         c3     16    bbb     C7    414 -0.02083000  12.010000   ; qtot 16.825669
  415         c3     16    bbb     C8    415 -0.03328100  12.010000   ; qtot 16.792388
  416          n     16    bbb     N2    416 -0.33303000  14.010000   ; qtot 16.459358
  417          o     16    bbb     O1    417 -0.52917200  16.000000   ; qtot 15.930186
  418          o     16    bbb     O2    418 -0.52917200  16.000000   ; qtot 15.401014
  419         hx     16    bbb     H1    419 0.11563300   1.008000   ; qtot 15.516647
  420         hx     16    bbb     H2    420 0.11563300   1.008000   ; qtot 15.632280
  421         hx     16    bbb     H3    421 0.11563300   1.008000   ; qtot 15.747913
  422         hx     16    bbb     H4    422 0.11563300   1.008000   ; qtot 15.863546
  423         hc     16    bbb     H5    423 0.08347900   1.008000   ; qtot 15.947025
  424         hc     16    bbb     H6    424 0.08347900   1.008000   ; qtot 16.030504
  425         hc     16    bbb     H7    425 0.08347900   1.008000   ; qtot 16.113983
  426         hc     16    bbb     H8    426 0.08347900   1.008000   ; qtot 16.197462
  427         hx     16    bbb     H9    427 0.07988000   1.008000   ; qtot 16.277342
  428         hx     16    bbb    H10    428 0.07988000   1.008000   ; qtot 16.357222
  429         h1     16    bbb    H11    429 0.10618100   1.008000   ; qtot 16.463403
  430         h1     16    bbb    H12    430 0.10618100   1.008000   ; qtot 16.569584
  431         hn     16    bbb    H13    431 0.25916100   1.008000   ; qtot 16.828745
  432         hn     16    bbb    H25    432 0.17125500   1.008000   ; qtot 17.000000
; residue   17 bbb rtp bbb q 1.0
  433         n4     17    bbb     N1    433 -0.02747900  14.010000   ; qtot 16.972521
  434         c3     17    bbb     C1    434 -0.05097600  12.010000   ; qtot 16.921545
  435         c3     17    bbb     C2    435 -0.05097600  12.010000   ; qtot 16.870569
  436         c3     17    bbb     C3    436 -0.18457900  12.010000   ; qtot 16.685990
  437          c     17    bbb     C4    437 0.67254400  12.010000   ; qtot 17.358534
  438         c3     17    bbb     C5    438 -0.18457900  12.010000   ; qtot 17.173955
  439          c     17    bbb     C6    439 0.67254400  12.010000   ; qtot 17.846499
  440         c3     17    bbb     C7    440 -0.02083000  12.010000   ; qtot 17.825669
  441         c3     17    bbb     C8    441 -0.03328100  12.010000   ; qtot 17.792388
  442          n     17    bbb     N2    442 -0.33303000  14.010000   ; qtot 17.459358
  443          o     17    bbb     O1    443 -0.52917200  16.000000   ; qtot 16.930186
  444          o     17    bbb     O2    444 -0.52917200  16.000000   ; qtot 16.401014
  445         hx     17    bbb     H1    445 0.11563300   1.008000   ; qtot 16.516647
  446         hx     17    bbb     H2    446 0.11563300   1.008000   ; qtot 16.632280
  447         hx     17    bbb     H3    447 0.11563300   1.008000   ; qtot 16.747913
  448         hx     17    bbb     H4    448 0.11563300   1.008000   ; qtot 16.863546
  449         hc     17    bbb     H5    449 0.08347900   1.008000   ; qtot 16.947025
  450         hc     17    bbb     H6    450 0.08347900   1.008000   ; qtot 17.030504
  451         hc     17    bbb     H7    451 0.08347900   1.008000   ; qtot 17.113983
  452         hc     17    bbb     H8    452 0.08347900   1.008000   ; qtot 17.197462
  453         hx     17    bbb     H9    453 0.07988000   1.008000   ; qtot 17.277342
  454         hx     17    bbb    H10    454 0.07988000   1.008000   ; qtot 17.357222
  455         h1     17    bbb    H11    455 0.10618100   1.008000   ; qtot 17.463403
  456         h1     17    bbb    H12    456 0.10618100   1.008000   ; qtot 17.569584
  457         hn     17    bbb    H13    457 0.25916100   1.008000   ; qtot 17.828745
  458         hn     17    bbb    H25    458 0.17125500   1.008000   ; qtot 18.000000
; residue   18 bbb rtp bbb q 1.0
  459         n4     18    bbb     N1    459 -0.02747900  14.010000   ; qtot 17.972521
  460         c3     18    bbb     C1    460 -0.05097600  12.010000   ; qtot 17.921545
  461         c3     18    bbb     C2    461 -0.05097600  12.010000   ; qtot 17.870569
  462         c3     18    bbb     C3    462 -0.18457900  12.010000   ; qtot 17.685990
  463          c     18    bbb     C4    463 0.67254400  12.010000   ; qtot 18.358534
  464         c3     18    bbb     C5    464 -0.18457900  12.010000   ; qtot 18.173955
  465          c     18    bbb     C6    465 0.67254400  12.010000   ; qtot 18.846499
  466         c3     18    bbb     C7    466 -0.02083000  12.010000   ; qtot 18.825669
  467         c3     18    bbb     C8    467 -0.03328100  12.010000   ; qtot 18.792388
  468          n     18    bbb     N2    468 -0.33303000  14.010000   ; qtot 18.459358
  469          o     18    bbb     O1    469 -0.52917200  16.000000   ; qtot 17.930186
  470          o     18    bbb     O2    470 -0.52917200  16.000000   ; qtot 17.401014
  471         hx     18    bbb     H1    471 0.11563300   1.008000   ; qtot 17.516647
  472         hx     18    bbb     H2    472 0.11563300   1.008000   ; qtot 17.632280
  473         hx     18    bbb     H3    473 0.11563300   1.008000   ; qtot 17.747913
  474         hx     18    bbb     H4    474 0.11563300   1.008000   ; qtot 17.863546
  475         hc     18    bbb     H5    475 0.08347900   1.008000   ; qtot 17.947025
  476         hc     18    bbb     H6    476 0.08347900   1.008000   ; qtot 18.030504
  477         hc     18    bbb     H7    477 0.08347900   1.008000   ; qtot 18.113983
  478         hc     18    bbb     H8    478 0.08347900   1.008000   ; qtot 18.197462
  479         hx     18    bbb     H9    479 0.07988000   1.008000   ; qtot 18.277342
  480         hx     18    bbb    H10    480 0.07988000   1.008000   ; qtot 18.357222
  481         h1     18    bbb    H11    481 0.10618100   1.008000   ; qtot 18.463403
  482         h1     18    bbb    H12    482 0.10618100   1.008000   ; qtot 18.569584
  483         hn     18    bbb    H13    483 0.25916100   1.008000   ; qtot 18.828745
  484         hn     18    bbb    H25    484 0.17125500   1.008000   ; qtot 19.000000
; residue   19 bbb rtp bbb q 1.0
  485         n4     19    bbb     N1    485 -0.02747900  14.010000   ; qtot 18.972521
  486         c3     19    bbb     C1    486 -0.05097600  12.010000   ; qtot 18.921545
  487         c3     19    bbb     C2    487 -0.05097600  12.010000   ; qtot 18.870569
  488         c3     19    bbb     C3    488 -0.18457900  12.010000   ; qtot 18.685990
  489          c     19    bbb     C4    489 0.67254400  12.010000   ; qtot 19.358534
  490         c3     19    bbb     C5    490 -0.18457900  12.010000   ; qtot 19.173955
  491          c     19    bbb     C6    491 0.67254400  12.010000   ; qtot 19.846499
  492         c3     19    bbb     C7    492 -0.02083000  12.010000   ; qtot 19.825669
  493         c3     19    bbb     C8    493 -0.03328100  12.010000   ; qtot 19.792388
  494          n     19    bbb     N2    494 -0.33303000  14.010000   ; qtot 19.459358
  495          o     19    bbb     O1    495 -0.52917200  16.000000   ; qtot 18.930186
  496          o     19    bbb     O2    496 -0.52917200  16.000000   ; qtot 18.401014
  497         hx     19    bbb     H1    497 0.11563300   1.008000   ; qtot 18.516647
  498         hx     19    bbb     H2    498 0.11563300   1.008000   ; qtot 18.632280
  499         hx     19    bbb     H3    499 0.11563300   1.008000   ; qtot 18.747913
  500         hx     19    bbb     H4    500 0.11563300   1.008000   ; qtot 18.863546
  501         hc     19    bbb     H5    501 0.08347900   1.008000   ; qtot 18.947025
  502         hc     19    bbb     H6    502 0.08347900   1.008000   ; qtot 19.030504
  503         hc     19    bbb     H7    503 0.08347900   1.008000   ; qtot 19.113983
  504         hc     19    bbb     H8    504 0.08347900   1.008000   ; qtot 19.197462
  505         hx     19    bbb     H9    505 0.07988000   1.008000   ; qtot 19.277342
  506         hx     19    bbb    H10    506 0.07988000   1.008000   ; qtot 19.357222
  507         h1     19    bbb    H11    507 0.10618100   1.008000   ; qtot 19.463403
  508         h1     19    bbb    H12    508 0.10618100   1.008000   ; qtot 19.569584
  509         hn     19    bbb    H13    509 0.25916100   1.008000   ; qtot 19.828745
  510         hn     19    bbb    H25    510 0.17125500   1.008000   ; qtot 20.000000
; residue   20 bbb rtp bbb q 1.0
  511         n4     20    bbb     N1    511 -0.02747900  14.010000   ; qtot 19.972521
  512         c3     20    bbb     C1    512 -0.05097600  12.010000   ; qtot 19.921545
  513         c3     20    bbb     C2    513 -0.05097600  12.010000   ; qtot 19.870569
  514         c3     20    bbb     C3    514 -0.18457900  12.010000   ; qtot 19.685990
  515          c     20    bbb     C4    515 0.67254400  12.010000   ; qtot 20.358534
  516         c3     20    bbb     C5    516 -0.18457900  12.010000   ; qtot 20.173955
  517          c     20    bbb     C6    517 0.67254400  12.010000   ; qtot 20.846499
  518         c3     20    bbb     C7    518 -0.02083000  12.010000   ; qtot 20.825669
  519         c3     20    bbb     C8    519 -0.03328100  12.010000   ; qtot 20.792388
  520          n     20    bbb     N2    520 -0.33303000  14.010000   ; qtot 20.459358
  521          o     20    bbb     O1    521 -0.52917200  16.000000   ; qtot 19.930186
  522          o     20    bbb     O2    522 -0.52917200  16.000000   ; qtot 19.401014
  523         hx     20    bbb     H1    523 0.11563300   1.008000   ; qtot 19.516647
  524         hx     20    bbb     H2    524 0.11563300   1.008000   ; qtot 19.632280
  525         hx     20    bbb     H3    525 0.11563300   1.008000   ; qtot 19.747913
  526         hx     20    bbb     H4    526 0.11563300   1.008000   ; qtot 19.863546
  527         hc     20    bbb     H5    527 0.08347900   1.008000   ; qtot 19.947025
  528         hc     20    bbb     H6    528 0.08347900   1.008000   ; qtot 20.030504
  529         hc     20    bbb     H7    529 0.08347900   1.008000   ; qtot 20.113983
  530         hc     20    bbb     H8    530 0.08347900   1.008000   ; qtot 20.197462
  531         hx     20    bbb     H9    531 0.07988000   1.008000   ; qtot 20.277342
  532         hx     20    bbb    H10    532 0.07988000   1.008000   ; qtot 20.357222
  533         h1     20    bbb    H11    533 0.10618100   1.008000   ; qtot 20.463403
  534         h1     20    bbb    H12    534 0.10618100   1.008000   ; qtot 20.569584
  535         hn     20    bbb    H13    535 0.25916100   1.008000   ; qtot 20.828745
  536         hn     20    bbb    H25    536 0.17125500   1.008000   ; qtot 21.000000
; residue   21 bbb rtp bbb q 1.0
  537         n4     21    bbb     N1    537 -0.02747900  14.010000   ; qtot 20.972521
  538         c3     21    bbb     C1    538 -0.05097600  12.010000   ; qtot 20.921545
  539         c3     21    bbb     C2    539 -0.05097600  12.010000   ; qtot 20.870569
  540         c3     21    bbb     C3    540 -0.18457900  12.010000   ; qtot 20.685990
  541          c     21    bbb     C4    541 0.67254400  12.010000   ; qtot 21.358534
  542         c3     21    bbb     C5    542 -0.18457900  12.010000   ; qtot 21.173955
  543          c     21    bbb     C6    543 0.67254400  12.010000   ; qtot 21.846499
  544         c3     21    bbb     C7    544 -0.02083000  12.010000   ; qtot 21.825669
  545         c3     21    bbb     C8    545 -0.03328100  12.010000   ; qtot 21.792388
  546          n     21    bbb     N2    546 -0.33303000  14.010000   ; qtot 21.459358
  547          o     21    bbb     O1    547 -0.52917200  16.000000   ; qtot 20.930186
  548          o     21    bbb     O2    548 -0.52917200  16.000000   ; qtot 20.401014
  549         hx     21    bbb     H1    549 0.11563300   1.008000   ; qtot 20.516647
  550         hx     21    bbb     H2    550 0.11563300   1.008000   ; qtot 20.632280
  551         hx     21    bbb     H3    551 0.11563300   1.008000   ; qtot 20.747913
  552         hx     21    bbb     H4    552 0.11563300   1.008000   ; qtot 20.863546
  553         hc     21    bbb     H5    553 0.08347900   1.008000   ; qtot 20.947025
  554         hc     21    bbb     H6    554 0.08347900   1.008000   ; qtot 21.030504
  555         hc     21    bbb     H7    555 0.08347900   1.008000   ; qtot 21.113983
  556         hc     21    bbb     H8    556 0.08347900   1.008000   ; qtot 21.197462
  557         hx     21    bbb     H9    557 0.07988000   1.008000   ; qtot 21.277342
  558         hx     21    bbb    H10    558 0.07988000   1.008000   ; qtot 21.357222
  559         h1     21    bbb    H11    559 0.10618100   1.008000   ; qtot 21.463403
  560         h1     21    bbb    H12    560 0.10618100   1.008000   ; qtot 21.569584
  561         hn     21    bbb    H13    561 0.25916100   1.008000   ; qtot 21.828745
  562         hn     21    bbb    H25    562 0.17125500   1.008000   ; qtot 22.000000
; residue   22 bbb rtp bbb q 1.0
  563         n4     22    bbb     N1    563 -0.02747900  14.010000   ; qtot 21.972521
  564         c3     22    bbb     C1    564 -0.05097600  12.010000   ; qtot 21.921545
  565         c3     22    bbb     C2    565 -0.05097600  12.010000   ; qtot 21.870569
  566         c3     22    bbb     C3    566 -0.18457900  12.010000   ; qtot 21.685990
  567          c     22    bbb     C4    567 0.67254400  12.010000   ; qtot 22.358534
  568         c3     22    bbb     C5    568 -0.18457900  12.010000   ; qtot 22.173955
  569          c     22    bbb     C6    569 0.67254400  12.010000   ; qtot 22.846499
  570         c3     22    bbb     C7    570 -0.02083000  12.010000   ; qtot 22.825669
  571         c3     22    bbb     C8    571 -0.03328100  12.010000   ; qtot 22.792388
  572          n     22    bbb     N2    572 -0.33303000  14.010000   ; qtot 22.459358
  573          o     22    bbb     O1    573 -0.52917200  16.000000   ; qtot 21.930186
  574          o     22    bbb     O2    574 -0.52917200  16.000000   ; qtot 21.401014
  575         hx     22    bbb     H1    575 0.11563300   1.008000   ; qtot 21.516647
  576         hx     22    bbb     H2    576 0.11563300   1.008000   ; qtot 21.632280
  577         hx     22    bbb     H3    577 0.11563300   1.008000   ; qtot 21.747913
  578         hx     22    bbb     H4    578 0.11563300   1.008000   ; qtot 21.863546
  579         hc     22    bbb     H5    579 0.08347900   1.008000   ; qtot 21.947025
  580         hc     22    bbb     H6    580 0.08347900   1.008000   ; qtot 22.030504
  581         hc     22    bbb     H7    581 0.08347900   1.008000   ; qtot 22.113983
  582         hc     22    bbb     H8    582 0.08347900   1.008000   ; qtot 22.197462
  583         hx     22    bbb     H9    583 0.07988000   1.008000   ; qtot 22.277342
  584         hx     22    bbb    H10    584 0.07988000   1.008000   ; qtot 22.357222
  585         h1     22    bbb    H11    585 0.10618100   1.008000   ; qtot 22.463403
  586         h1     22    bbb    H12    586 0.10618100   1.008000   ; qtot 22.569584
  587         hn     22    bbb    H13    587 0.25916100   1.008000   ; qtot 22.828745
  588         hn     22    bbb    H25    588 0.17125500   1.008000   ; qtot 23.000000
; residue   23 bbb rtp bbb q 1.0
  589         n4     23    bbb     N1    589 -0.02747900  14.010000   ; qtot 22.972521
  590         c3     23    bbb     C1    590 -0.05097600  12.010000   ; qtot 22.921545
  591         c3     23    bbb     C2    591 -0.05097600  12.010000   ; qtot 22.870569
  592         c3     23    bbb     C3    592 -0.18457900  12.010000   ; qtot 22.685990
  593          c     23    bbb     C4    593 0.67254400  12.010000   ; qtot 23.358534
  594         c3     23    bbb     C5    594 -0.18457900  12.010000   ; qtot 23.173955
  595          c     23    bbb     C6    595 0.67254400  12.010000   ; qtot 23.846499
  596         c3     23    bbb     C7    596 -0.02083000  12.010000   ; qtot 23.825669
  597         c3     23    bbb     C8    597 -0.03328100  12.010000   ; qtot 23.792388
  598          n     23    bbb     N2    598 -0.33303000  14.010000   ; qtot 23.459358
  599          o     23    bbb     O1    599 -0.52917200  16.000000   ; qtot 22.930186
  600          o     23    bbb     O2    600 -0.52917200  16.000000   ; qtot 22.401014
  601         hx     23    bbb     H1    601 0.11563300   1.008000   ; qtot 22.516647
  602         hx     23    bbb     H2    602 0.11563300   1.008000   ; qtot 22.632280
  603         hx     23    bbb     H3    603 0.11563300   1.008000   ; qtot 22.747913
  604         hx     23    bbb     H4    604 0.11563300   1.008000   ; qtot 22.863546
  605         hc     23    bbb     H5    605 0.08347900   1.008000   ; qtot 22.947025
  606         hc     23    bbb     H6    606 0.08347900   1.008000   ; qtot 23.030504
  607         hc     23    bbb     H7    607 0.08347900   1.008000   ; qtot 23.113983
  608         hc     23    bbb     H8    608 0.08347900   1.008000   ; qtot 23.197462
  609         hx     23    bbb     H9    609 0.07988000   1.008000   ; qtot 23.277342
  610         hx     23    bbb    H10    610 0.07988000   1.008000   ; qtot 23.357222
  611         h1     23    bbb    H11    611 0.10618100   1.008000   ; qtot 23.463403
  612         h1     23    bbb    H12    612 0.10618100   1.008000   ; qtot 23.569584
  613         hn     23    bbb    H13    613 0.25916100   1.008000   ; qtot 23.828745
  614         hn     23    bbb    H25    614 0.17125500   1.008000   ; qtot 24.000000
; residue   24 bbb rtp bbb q 1.0
  615         n4     24    bbb     N1    615 -0.02747900  14.010000   ; qtot 23.972521
  616         c3     24    bbb     C1    616 -0.05097600  12.010000   ; qtot 23.921545
  617         c3     24    bbb     C2    617 -0.05097600  12.010000   ; qtot 23.870569
  618         c3     24    bbb     C3    618 -0.18457900  12.010000   ; qtot 23.685990
  619          c     24    bbb     C4    619 0.67254400  12.010000   ; qtot 24.358534
  620         c3     24    bbb     C5    620 -0.18457900  12.010000   ; qtot 24.173955
  621          c     24    bbb     C6    621 0.67254400  12.010000   ; qtot 24.846499
  622         c3     24    bbb     C7    622 -0.02083000  12.010000   ; qtot 24.825669
  623         c3     24    bbb     C8    623 -0.03328100  12.010000   ; qtot 24.792388
  624          n     24    bbb     N2    624 -0.33303000  14.010000   ; qtot 24.459358
  625          o     24    bbb     O1    625 -0.52917200  16.000000   ; qtot 23.930186
  626          o     24    bbb     O2    626 -0.52917200  16.000000   ; qtot 23.401014
  627         hx     24    bbb     H1    627 0.11563300   1.008000   ; qtot 23.516647
  628         hx     24    bbb     H2    628 0.11563300   1.008000   ; qtot 23.632280
  629         hx     24    bbb     H3    629 0.11563300   1.008000   ; qtot 23.747913
  630         hx     24    bbb     H4    630 0.11563300   1.008000   ; qtot 23.863546
  631         hc     24    bbb     H5    631 0.08347900   1.008000   ; qtot 23.947025
  632         hc     24    bbb     H6    632 0.08347900   1.008000   ; qtot 24.030504
  633         hc     24    bbb     H7    633 0.08347900   1.008000   ; qtot 24.113983
  634         hc     24    bbb     H8    634 0.08347900   1.008000   ; qtot 24.197462
  635         hx     24    bbb     H9    635 0.07988000   1.008000   ; qtot 24.277342
  636         hx     24    bbb    H10    636 0.07988000   1.008000   ; qtot 24.357222
  637         h1     24    bbb    H11    637 0.10618100   1.008000   ; qtot 24.463403
  638         h1     24    bbb    H12    638 0.10618100   1.008000   ; qtot 24.569584
  639         hn     24    bbb    H13    639 0.25916100   1.008000   ; qtot 24.828745
  640         hn     24    bbb    H25    640 0.17125500   1.008000   ; qtot 25.000000
; residue   25 bbb rtp bbb q 1.0
  641         n4     25    bbb     N1    641 -0.02747900  14.010000   ; qtot 24.972521
  642         c3     25    bbb     C1    642 -0.05097600  12.010000   ; qtot 24.921545
  643         c3     25    bbb     C2    643 -0.05097600  12.010000   ; qtot 24.870569
  644         c3     25    bbb     C3    644 -0.18457900  12.010000   ; qtot 24.685990
  645          c     25    bbb     C4    645 0.67254400  12.010000   ; qtot 25.358534
  646         c3     25    bbb     C5    646 -0.18457900  12.010000   ; qtot 25.173955
  647          c     25    bbb     C6    647 0.67254400  12.010000   ; qtot 25.846499
  648         c3     25    bbb     C7    648 -0.02083000  12.010000   ; qtot 25.825669
  649         c3     25    bbb     C8    649 -0.03328100  12.010000   ; qtot 25.792388
  650          n     25    bbb     N2    650 -0.33303000  14.010000   ; qtot 25.459358
  651          o     25    bbb     O1    651 -0.52917200  16.000000   ; qtot 24.930186
  652          o     25    bbb     O2    652 -0.52917200  16.000000   ; qtot 24.401014
  653         hx     25    bbb     H1    653 0.11563300   1.008000   ; qtot 24.516647
  654         hx     25    bbb     H2    654 0.11563300   1.008000   ; qtot 24.632280
  655         hx     25    bbb     H3    655 0.11563300   1.008000   ; qtot 24.747913
  656         hx     25    bbb     H4    656 0.11563300   1.008000   ; qtot 24.863546
  657         hc     25    bbb     H5    657 0.08347900   1.008000   ; qtot 24.947025
  658         hc     25    bbb     H6    658 0.08347900   1.008000   ; qtot 25.030504
  659         hc     25    bbb     H7    659 0.08347900   1.008000   ; qtot 25.113983
  660         hc     25    bbb     H8    660 0.08347900   1.008000   ; qtot 25.197462
  661         hx     25    bbb     H9    661 0.07988000   1.008000   ; qtot 25.277342
  662         hx     25    bbb    H10    662 0.07988000   1.008000   ; qtot 25.357222
  663         h1     25    bbb    H11    663 0.10618100   1.008000   ; qtot 25.463403
  664         h1     25    bbb    H12    664 0.10618100   1.008000   ; qtot 25.569584
  665         hn     25    bbb    H13    665 0.25916100   1.008000   ; qtot 25.828745
  666         hn     25    bbb    H25    666 0.17125500   1.008000   ; qtot 26.000000
; residue   26 bbb rtp bbb q 1.0
  667         n4     26    bbb     N1    667 -0.02747900  14.010000   ; qtot 25.972521
  668         c3     26    bbb     C1    668 -0.05097600  12.010000   ; qtot 25.921545
  669         c3     26    bbb     C2    669 -0.05097600  12.010000   ; qtot 25.870569
  670         c3     26    bbb     C3    670 -0.18457900  12.010000   ; qtot 25.685990
  671          c     26    bbb     C4    671 0.67254400  12.010000   ; qtot 26.358534
  672         c3     26    bbb     C5    672 -0.18457900  12.010000   ; qtot 26.173955
  673          c     26    bbb     C6    673 0.67254400  12.010000   ; qtot 26.846499
  674         c3     26    bbb     C7    674 -0.02083000  12.010000   ; qtot 26.825669
  675         c3     26    bbb     C8    675 -0.03328100  12.010000   ; qtot 26.792388
  676          n     26    bbb     N2    676 -0.33303000  14.010000   ; qtot 26.459358
  677          o     26    bbb     O1    677 -0.52917200  16.000000   ; qtot 25.930186
  678          o     26    bbb     O2    678 -0.52917200  16.000000   ; qtot 25.401014
  679         hx     26    bbb     H1    679 0.11563300   1.008000   ; qtot 25.516647
  680         hx     26    bbb     H2    680 0.11563300   1.008000   ; qtot 25.632280
  681         hx     26    bbb     H3    681 0.11563300   1.008000   ; qtot 25.747913
  682         hx     26    bbb     H4    682 0.11563300   1.008000   ; qtot 25.863546
  683         hc     26    bbb     H5    683 0.08347900   1.008000   ; qtot 25.947025
  684         hc     26    bbb     H6    684 0.08347900   1.008000   ; qtot 26.030504
  685         hc     26    bbb     H7    685 0.08347900   1.008000   ; qtot 26.113983
  686         hc     26    bbb     H8    686 0.08347900   1.008000   ; qtot 26.197462
  687         hx     26    bbb     H9    687 0.07988000   1.008000   ; qtot 26.277342
  688         hx     26    bbb    H10    688 0.07988000   1.008000   ; qtot 26.357222
  689         h1     26    bbb    H11    689 0.10618100   1.008000   ; qtot 26.463403
  690         h1     26    bbb    H12    690 0.10618100   1.008000   ; qtot 26.569584
  691         hn     26    bbb    H13    691 0.25916100   1.008000   ; qtot 26.828745
  692         hn     26    bbb    H25    692 0.17125500   1.008000   ; qtot 27.000000
; residue   27 bbb rtp bbb q 1.0
  693         n4     27    bbb     N1    693 -0.02747900  14.010000   ; qtot 26.972521
  694         c3     27    bbb     C1    694 -0.05097600  12.010000   ; qtot 26.921545
  695         c3     27    bbb     C2    695 -0.05097600  12.010000   ; qtot 26.870569
  696         c3     27    bbb     C3    696 -0.18457900  12.010000   ; qtot 26.685990
  697          c     27    bbb     C4    697 0.67254400  12.010000   ; qtot 27.358534
  698         c3     27    bbb     C5    698 -0.18457900  12.010000   ; qtot 27.173955
  699          c     27    bbb     C6    699 0.67254400  12.010000   ; qtot 27.846499
  700         c3     27    bbb     C7    700 -0.02083000  12.010000   ; qtot 27.825669
  701         c3     27    bbb     C8    701 -0.03328100  12.010000   ; qtot 27.792388
  702          n     27    bbb     N2    702 -0.33303000  14.010000   ; qtot 27.459358
  703          o     27    bbb     O1    703 -0.52917200  16.000000   ; qtot 26.930186
  704          o     27    bbb     O2    704 -0.52917200  16.000000   ; qtot 26.401014
  705         hx     27    bbb     H1    705 0.11563300   1.008000   ; qtot 26.516647
  706         hx     27    bbb     H2    706 0.11563300   1.008000   ; qtot 26.632280
  707         hx     27    bbb     H3    707 0.11563300   1.008000   ; qtot 26.747913
  708         hx     27    bbb     H4    708 0.11563300   1.008000   ; qtot 26.863546
  709         hc     27    bbb     H5    709 0.08347900   1.008000   ; qtot 26.947025
  710         hc     27    bbb     H6    710 0.08347900   1.008000   ; qtot 27.030504
  711         hc     27    bbb     H7    711 0.08347900   1.008000   ; qtot 27.113983
  712         hc     27    bbb     H8    712 0.08347900   1.008000   ; qtot 27.197462
  713         hx     27    bbb     H9    713 0.07988000   1.008000   ; qtot 27.277342
  714         hx     27    bbb    H10    714 0.07988000   1.008000   ; qtot 27.357222
  715         h1     27    bbb    H11    715 0.10618100   1.008000   ; qtot 27.463403
  716         h1     27    bbb    H12    716 0.10618100   1.008000   ; qtot 27.569584
  717         hn     27    bbb    H13    717 0.25916100   1.008000   ; qtot 27.828745
  718         hn     27    bbb    H25    718 0.17125500   1.008000   ; qtot 28.000000
; residue   28 bbb rtp bbb q 1.0
  719         n4     28    bbb     N1    719 -0.02747900  14.010000   ; qtot 27.972521
  720         c3     28    bbb     C1    720 -0.05097600  12.010000   ; qtot 27.921545
  721         c3     28    bbb     C2    721 -0.05097600  12.010000   ; qtot 27.870569
  722         c3     28    bbb     C3    722 -0.18457900  12.010000   ; qtot 27.685990
  723          c     28    bbb     C4    723 0.67254400  12.010000   ; qtot 28.358534
  724         c3     28    bbb     C5    724 -0.18457900  12.010000   ; qtot 28.173955
  725          c     28    bbb     C6    725 0.67254400  12.010000   ; qtot 28.846499
  726         c3     28    bbb     C7    726 -0.02083000  12.010000   ; qtot 28.825669
  727         c3     28    bbb     C8    727 -0.03328100  12.010000   ; qtot 28.792388
  728          n     28    bbb     N2    728 -0.33303000  14.010000   ; qtot 28.459358
  729          o     28    bbb     O1    729 -0.52917200  16.000000   ; qtot 27.930186
  730          o     28    bbb     O2    730 -0.52917200  16.000000   ; qtot 27.401014
  731         hx     28    bbb     H1    731 0.11563300   1.008000   ; qtot 27.516647
  732         hx     28    bbb     H2    732 0.11563300   1.008000   ; qtot 27.632280
  733         hx     28    bbb     H3    733 0.11563300   1.008000   ; qtot 27.747913
  734         hx     28    bbb     H4    734 0.11563300   1.008000   ; qtot 27.863546
  735         hc     28    bbb     H5    735 0.08347900   1.008000   ; qtot 27.947025
  736         hc     28    bbb     H6    736 0.08347900   1.008000   ; qtot 28.030504
  737         hc     28    bbb     H7    737 0.08347900   1.008000   ; qtot 28.113983
  738         hc     28    bbb     H8    738 0.08347900   1.008000   ; qtot 28.197462
  739         hx     28    bbb     H9    739 0.07988000   1.008000   ; qtot 28.277342
  740         hx     28    bbb    H10    740 0.07988000   1.008000   ; qtot 28.357222
  741         h1     28    bbb    H11    741 0.10618100   1.008000   ; qtot 28.463403
  742         h1     28    bbb    H12    742 0.10618100   1.008000   ; qtot 28.569584
  743         hn     28    bbb    H13    743 0.25916100   1.008000   ; qtot 28.828745
  744         hn     28    bbb    H25    744 0.17125500   1.008000   ; qtot 29.000000
; residue   29 bbb rtp bbb q 1.0
  745         n4     29    bbb     N1    745 -0.02747900  14.010000   ; qtot 28.972521
  746         c3     29    bbb     C1    746 -0.05097600  12.010000   ; qtot 28.921545
  747         c3     29    bbb     C2    747 -0.05097600  12.010000   ; qtot 28.870569
  748         c3     29    bbb     C3    748 -0.18457900  12.010000   ; qtot 28.685990
  749          c     29    bbb     C4    749 0.67254400  12.010000   ; qtot 29.358534
  750         c3     29    bbb     C5    750 -0.18457900  12.010000   ; qtot 29.173955
  751          c     29    bbb     C6    751 0.67254400  12.010000   ; qtot 29.846499
  752         c3     29    bbb     C7    752 -0.02083000  12.010000   ; qtot 29.825669
  753         c3     29    bbb     C8    753 -0.03328100  12.010000   ; qtot 29.792388
  754          n     29    bbb     N2    754 -0.33303000  14.010000   ; qtot 29.459358
  755          o     29    bbb     O1    755 -0.52917200  16.000000   ; qtot 28.930186
  756          o     29    bbb     O2    756 -0.52917200  16.000000   ; qtot 28.401014
  757         hx     29    bbb     H1    757 0.11563300   1.008000   ; qtot 28.516647
  758         hx     29    bbb     H2    758 0.11563300   1.008000   ; qtot 28.632280
  759         hx     29    bbb     H3    759 0.11563300   1.008000   ; qtot 28.747913
  760         hx     29    bbb     H4    760 0.11563300   1.008000   ; qtot 28.863546
  761         hc     29    bbb     H5    761 0.08347900   1.008000   ; qtot 28.947025
  762         hc     29    bbb     H6    762 0.08347900   1.008000   ; qtot 29.030504
  763         hc     29    bbb     H7    763 0.08347900   1.008000   ; qtot 29.113983
  764         hc     29    bbb     H8    764 0.08347900   1.008000   ; qtot 29.197462
  765         hx     29    bbb     H9    765 0.07988000   1.008000   ; qtot 29.277342
  766         hx     29    bbb    H10    766 0.07988000   1.008000   ; qtot 29.357222
  767         h1     29    bbb    H11    767 0.10618100   1.008000   ; qtot 29.463403
  768         h1     29    bbb    H12    768 0.10618100   1.008000   ; qtot 29.569584
  769         hn     29    bbb    H13    769 0.25916100   1.008000   ; qtot 29.828745
  770         hn     29    bbb    H25    770 0.17125500   1.008000   ; qtot 30.000000
; residue   30 bbb rtp bbb q 1.0
  771         n4     30    bbb     N1    771 -0.02747900  14.010000   ; qtot 29.972521
  772         c3     30    bbb     C1    772 -0.05097600  12.010000   ; qtot 29.921545
  773         c3     30    bbb     C2    773 -0.05097600  12.010000   ; qtot 29.870569
  774         c3     30    bbb     C3    774 -0.18457900  12.010000   ; qtot 29.685990
  775          c     30    bbb     C4    775 0.67254400  12.010000   ; qtot 30.358534
  776         c3     30    bbb     C5    776 -0.18457900  12.010000   ; qtot 30.173955
  777          c     30    bbb     C6    777 0.67254400  12.010000   ; qtot 30.846499
  778         c3     30    bbb     C7    778 -0.02083000  12.010000   ; qtot 30.825669
  779         c3     30    bbb     C8    779 -0.03328100  12.010000   ; qtot 30.792388
  780          n     30    bbb     N2    780 -0.33303000  14.010000   ; qtot 30.459358
  781          o     30    bbb     O1    781 -0.52917200  16.000000   ; qtot 29.930186
  782          o     30    bbb     O2    782 -0.52917200  16.000000   ; qtot 29.401014
  783         hx     30    bbb     H1    783 0.11563300   1.008000   ; qtot 29.516647
  784         hx     30    bbb     H2    784 0.11563300   1.008000   ; qtot 29.632280
  785         hx     30    bbb     H3    785 0.11563300   1.008000   ; qtot 29.747913
  786         hx     30    bbb     H4    786 0.11563300   1.008000   ; qtot 29.863546
  787         hc     30    bbb     H5    787 0.08347900   1.008000   ; qtot 29.947025
  788         hc     30    bbb     H6    788 0.08347900   1.008000   ; qtot 30.030504
  789         hc     30    bbb     H7    789 0.08347900   1.008000   ; qtot 30.113983
  790         hc     30    bbb     H8    790 0.08347900   1.008000   ; qtot 30.197462
  791         hx     30    bbb     H9    791 0.07988000   1.008000   ; qtot 30.277342
  792         hx     30    bbb    H10    792 0.07988000   1.008000   ; qtot 30.357222
  793         h1     30    bbb    H11    793 0.10618100   1.008000   ; qtot 30.463403
  794         h1     30    bbb    H12    794 0.10618100   1.008000   ; qtot 30.569584
  795         hn     30    bbb    H13    795 0.25916100   1.008000   ; qtot 30.828745
  796         hn     30    bbb    H25    796 0.17125500   1.008000   ; qtot 31.000000
; residue   31 bbb rtp bbb q 1.0
  797         n4     31    bbb     N1    797 -0.02747900  14.010000   ; qtot 30.972521
  798         c3     31    bbb     C1    798 -0.05097600  12.010000   ; qtot 30.921545
  799         c3     31    bbb     C2    799 -0.05097600  12.010000   ; qtot 30.870569
  800         c3     31    bbb     C3    800 -0.18457900  12.010000   ; qtot 30.685990
  801          c     31    bbb     C4    801 0.67254400  12.010000   ; qtot 31.358534
  802         c3     31    bbb     C5    802 -0.18457900  12.010000   ; qtot 31.173955
  803          c     31    bbb     C6    803 0.67254400  12.010000   ; qtot 31.846499
  804         c3     31    bbb     C7    804 -0.02083000  12.010000   ; qtot 31.825669
  805         c3     31    bbb     C8    805 -0.03328100  12.010000   ; qtot 31.792388
  806          n     31    bbb     N2    806 -0.33303000  14.010000   ; qtot 31.459358
  807          o     31    bbb     O1    807 -0.52917200  16.000000   ; qtot 30.930186
  808          o     31    bbb     O2    808 -0.52917200  16.000000   ; qtot 30.401014
  809         hx     31    bbb     H1    809 0.11563300   1.008000   ; qtot 30.516647
  810         hx     31    bbb     H2    810 0.11563300   1.008000   ; qtot 30.632280
  811         hx     31    bbb     H3    811 0.11563300   1.008000   ; qtot 30.747913
  812         hx     31    bbb     H4    812 0.11563300   1.008000   ; qtot 30.863546
  813         hc     31    bbb     H5    813 0.08347900   1.008000   ; qtot 30.947025
  814         hc     31    bbb     H6    814 0.08347900   1.008000   ; qtot 31.030504
  815         hc     31    bbb     H7    815 0.08347900   1.008000   ; qtot 31.113983
  816         hc     31    bbb     H8    816 0.08347900   1.008000   ; qtot 31.197462
  817         hx     31    bbb     H9    817 0.07988000   1.008000   ; qtot 31.277342
  818         hx     31    bbb    H10    818 0.07988000   1.008000   ; qtot 31.357222
  819         h1     31    bbb    H11    819 0.10618100   1.008000   ; qtot 31.463403
  820         h1     31    bbb    H12    820 0.10618100   1.008000   ; qtot 31.569584
  821         hn     31    bbb    H13    821 0.25916100   1.008000   ; qtot 31.828745
  822         hn     31    bbb    H25    822 0.17125500   1.008000   ; qtot 32.000000
; residue   32 bbb rtp bbb q 1.0
  823         n4     32    bbb     N1    823 -0.02747900  14.010000   ; qtot 31.972521
  824         c3     32    bbb     C1    824 -0.05097600  12.010000   ; qtot 31.921545
  825         c3     32    bbb     C2    825 -0.05097600  12.010000   ; qtot 31.870569
  826         c3     32    bbb     C3    826 -0.18457900  12.010000   ; qtot 31.685990
  827          c     32    bbb     C4    827 0.67254400  12.010000   ; qtot 32.358534
  828         c3     32    bbb     C5    828 -0.18457900  12.010000   ; qtot 32.173955
  829          c     32    bbb     C6    829 0.67254400  12.010000   ; qtot 32.846499
  830         c3     32    bbb     C7    830 -0.02083000  12.010000   ; qtot 32.825669
  831         c3     32    bbb     C8    831 -0.03328100  12.010000   ; qtot 32.792388
  832          n     32    bbb     N2    832 -0.33303000  14.010000   ; qtot 32.459358
  833          o     32    bbb     O1    833 -0.52917200  16.000000   ; qtot 31.930186
  834          o     32    bbb     O2    834 -0.52917200  16.000000   ; qtot 31.401014
  835         hx     32    bbb     H1    835 0.11563300   1.008000   ; qtot 31.516647
  836         hx     32    bbb     H2    836 0.11563300   1.008000   ; qtot 31.632280
  837         hx     32    bbb     H3    837 0.11563300   1.008000   ; qtot 31.747913
  838         hx     32    bbb     H4    838 0.11563300   1.008000   ; qtot 31.863546
  839         hc     32    bbb     H5    839 0.08347900   1.008000   ; qtot 31.947025
  840         hc     32    bbb     H6    840 0.08347900   1.008000   ; qtot 32.030504
  841         hc     32    bbb     H7    841 0.08347900   1.008000   ; qtot 32.113983
  842         hc     32    bbb     H8    842 0.08347900   1.008000   ; qtot 32.197462
  843         hx     32    bbb     H9    843 0.07988000   1.008000   ; qtot 32.277342
  844         hx     32    bbb    H10    844 0.07988000   1.008000   ; qtot 32.357222
  845         h1     32    bbb    H11    845 0.10618100   1.008000   ; qtot 32.463403
  846         h1     32    bbb    H12    846 0.10618100   1.008000   ; qtot 32.569584
  847         hn     32    bbb    H13    847 0.25916100   1.008000   ; qtot 32.828745
  848         hn     32    bbb    H25    848 0.17125500   1.008000   ; qtot 33.000000
; residue   33 bbb rtp bbb q 1.0
  849         n4     33    bbb     N1    849 -0.02747900  14.010000   ; qtot 32.972521
  850         c3     33    bbb     C1    850 -0.05097600  12.010000   ; qtot 32.921545
  851         c3     33    bbb     C2    851 -0.05097600  12.010000   ; qtot 32.870569
  852         c3     33    bbb     C3    852 -0.18457900  12.010000   ; qtot 32.685990
  853          c     33    bbb     C4    853 0.67254400  12.010000   ; qtot 33.358534
  854         c3     33    bbb     C5    854 -0.18457900  12.010000   ; qtot 33.173955
  855          c     33    bbb     C6    855 0.67254400  12.010000   ; qtot 33.846499
  856         c3     33    bbb     C7    856 -0.02083000  12.010000   ; qtot 33.825669
  857         c3     33    bbb     C8    857 -0.03328100  12.010000   ; qtot 33.792388
  858          n     33    bbb     N2    858 -0.33303000  14.010000   ; qtot 33.459358
  859          o     33    bbb     O1    859 -0.52917200  16.000000   ; qtot 32.930186
  860          o     33    bbb     O2    860 -0.52917200  16.000000   ; qtot 32.401014
  861         hx     33    bbb     H1    861 0.11563300   1.008000   ; qtot 32.516647
  862         hx     33    bbb     H2    862 0.11563300   1.008000   ; qtot 32.632280
  863         hx     33    bbb     H3    863 0.11563300   1.008000   ; qtot 32.747913
  864         hx     33    bbb     H4    864 0.11563300   1.008000   ; qtot 32.863546
  865         hc     33    bbb     H5    865 0.08347900   1.008000   ; qtot 32.947025
  866         hc     33    bbb     H6    866 0.08347900   1.008000   ; qtot 33.030504
  867         hc     33    bbb     H7    867 0.08347900   1.008000   ; qtot 33.113983
  868         hc     33    bbb     H8    868 0.08347900   1.008000   ; qtot 33.197462
  869         hx     33    bbb     H9    869 0.07988000   1.008000   ; qtot 33.277342
  870         hx     33    bbb    H10    870 0.07988000   1.008000   ; qtot 33.357222
  871         h1     33    bbb    H11    871 0.10618100   1.008000   ; qtot 33.463403
  872         h1     33    bbb    H12    872 0.10618100   1.008000   ; qtot 33.569584
  873         hn     33    bbb    H13    873 0.25916100   1.008000   ; qtot 33.828745
  874         hn     33    bbb    H25    874 0.17125500   1.008000   ; qtot 34.000000
; residue   34 bbb rtp bbb q 1.0
  875         n4     34    bbb     N1    875 -0.02747900  14.010000   ; qtot 33.972521
  876         c3     34    bbb     C1    876 -0.05097600  12.010000   ; qtot 33.921545
  877         c3     34    bbb     C2    877 -0.05097600  12.010000   ; qtot 33.870569
  878         c3     34    bbb     C3    878 -0.18457900  12.010000   ; qtot 33.685990
  879          c     34    bbb     C4    879 0.67254400  12.010000   ; qtot 34.358534
  880         c3     34    bbb     C5    880 -0.18457900  12.010000   ; qtot 34.173955
  881          c     34    bbb     C6    881 0.67254400  12.010000   ; qtot 34.846499
  882         c3     34    bbb     C7    882 -0.02083000  12.010000   ; qtot 34.825669
  883         c3     34    bbb     C8    883 -0.03328100  12.010000   ; qtot 34.792388
  884          n     34    bbb     N2    884 -0.33303000  14.010000   ; qtot 34.459358
  885          o     34    bbb     O1    885 -0.52917200  16.000000   ; qtot 33.930186
  886          o     34    bbb     O2    886 -0.52917200  16.000000   ; qtot 33.401014
  887         hx     34    bbb     H1    887 0.11563300   1.008000   ; qtot 33.516647
  888         hx     34    bbb     H2    888 0.11563300   1.008000   ; qtot 33.632280
  889         hx     34    bbb     H3    889 0.11563300   1.008000   ; qtot 33.747913
  890         hx     34    bbb     H4    890 0.11563300   1.008000   ; qtot 33.863546
  891         hc     34    bbb     H5    891 0.08347900   1.008000   ; qtot 33.947025
  892         hc     34    bbb     H6    892 0.08347900   1.008000   ; qtot 34.030504
  893         hc     34    bbb     H7    893 0.08347900   1.008000   ; qtot 34.113983
  894         hc     34    bbb     H8    894 0.08347900   1.008000   ; qtot 34.197462
  895         hx     34    bbb     H9    895 0.07988000   1.008000   ; qtot 34.277342
  896         hx     34    bbb    H10    896 0.07988000   1.008000   ; qtot 34.357222
  897         h1     34    bbb    H11    897 0.10618100   1.008000   ; qtot 34.463403
  898         h1     34    bbb    H12    898 0.10618100   1.008000   ; qtot 34.569584
  899         hn     34    bbb    H13    899 0.25916100   1.008000   ; qtot 34.828745
  900         hn     34    bbb    H25    900 0.17125500   1.008000   ; qtot 35.000000
; residue   35 bbb rtp bbb q 1.0
  901         n4     35    bbb     N1    901 -0.02747900  14.010000   ; qtot 34.972521
  902         c3     35    bbb     C1    902 -0.05097600  12.010000   ; qtot 34.921545
  903         c3     35    bbb     C2    903 -0.05097600  12.010000   ; qtot 34.870569
  904         c3     35    bbb     C3    904 -0.18457900  12.010000   ; qtot 34.685990
  905          c     35    bbb     C4    905 0.67254400  12.010000   ; qtot 35.358534
  906         c3     35    bbb     C5    906 -0.18457900  12.010000   ; qtot 35.173955
  907          c     35    bbb     C6    907 0.67254400  12.010000   ; qtot 35.846499
  908         c3     35    bbb     C7    908 -0.02083000  12.010000   ; qtot 35.825669
  909         c3     35    bbb     C8    909 -0.03328100  12.010000   ; qtot 35.792388
  910          n     35    bbb     N2    910 -0.33303000  14.010000   ; qtot 35.459358
  911          o     35    bbb     O1    911 -0.52917200  16.000000   ; qtot 34.930186
  912          o     35    bbb     O2    912 -0.52917200  16.000000   ; qtot 34.401014
  913         hx     35    bbb     H1    913 0.11563300   1.008000   ; qtot 34.516647
  914         hx     35    bbb     H2    914 0.11563300   1.008000   ; qtot 34.632280
  915         hx     35    bbb     H3    915 0.11563300   1.008000   ; qtot 34.747913
  916         hx     35    bbb     H4    916 0.11563300   1.008000   ; qtot 34.863546
  917         hc     35    bbb     H5    917 0.08347900   1.008000   ; qtot 34.947025
  918         hc     35    bbb     H6    918 0.08347900   1.008000   ; qtot 35.030504
  919         hc     35    bbb     H7    919 0.08347900   1.008000   ; qtot 35.113983
  920         hc     35    bbb     H8    920 0.08347900   1.008000   ; qtot 35.197462
  921         hx     35    bbb     H9    921 0.07988000   1.008000   ; qtot 35.277342
  922         hx     35    bbb    H10    922 0.07988000   1.008000   ; qtot 35.357222
  923         h1     35    bbb    H11    923 0.10618100   1.008000   ; qtot 35.463403
  924         h1     35    bbb    H12    924 0.10618100   1.008000   ; qtot 35.569584
  925         hn     35    bbb    H13    925 0.25916100   1.008000   ; qtot 35.828745
  926         hn     35    bbb    H25    926 0.17125500   1.008000   ; qtot 36.000000
; residue   36 bbb rtp bbb q 1.0
  927         n4     36    bbb     N1    927 -0.02747900  14.010000   ; qtot 35.972521
  928         c3     36    bbb     C1    928 -0.05097600  12.010000   ; qtot 35.921545
  929         c3     36    bbb     C2    929 -0.05097600  12.010000   ; qtot 35.870569
  930         c3     36    bbb     C3    930 -0.18457900  12.010000   ; qtot 35.685990
  931          c     36    bbb     C4    931 0.67254400  12.010000   ; qtot 36.358534
  932         c3     36    bbb     C5    932 -0.18457900  12.010000   ; qtot 36.173955
  933          c     36    bbb     C6    933 0.67254400  12.010000   ; qtot 36.846499
  934         c3     36    bbb     C7    934 -0.02083000  12.010000   ; qtot 36.825669
  935         c3     36    bbb     C8    935 -0.03328100  12.010000   ; qtot 36.792388
  936          n     36    bbb     N2    936 -0.33303000  14.010000   ; qtot 36.459358
  937          o     36    bbb     O1    937 -0.52917200  16.000000   ; qtot 35.930186
  938          o     36    bbb     O2    938 -0.52917200  16.000000   ; qtot 35.401014
  939         hx     36    bbb     H1    939 0.11563300   1.008000   ; qtot 35.516647
  940         hx     36    bbb     H2    940 0.11563300   1.008000   ; qtot 35.632280
  941         hx     36    bbb     H3    941 0.11563300   1.008000   ; qtot 35.747913
  942         hx     36    bbb     H4    942 0.11563300   1.008000   ; qtot 35.863546
  943         hc     36    bbb     H5    943 0.08347900   1.008000   ; qtot 35.947025
  944         hc     36    bbb     H6    944 0.08347900   1.008000   ; qtot 36.030504
  945         hc     36    bbb     H7    945 0.08347900   1.008000   ; qtot 36.113983
  946         hc     36    bbb     H8    946 0.08347900   1.008000   ; qtot 36.197462
  947         hx     36    bbb     H9    947 0.07988000   1.008000   ; qtot 36.277342
  948         hx     36    bbb    H10    948 0.07988000   1.008000   ; qtot 36.357222
  949         h1     36    bbb    H11    949 0.10618100   1.008000   ; qtot 36.463403
  950         h1     36    bbb    H12    950 0.10618100   1.008000   ; qtot 36.569584
  951         hn     36    bbb    H13    951 0.25916100   1.008000   ; qtot 36.828745
  952         hn     36    bbb    H25    952 0.17125500   1.008000   ; qtot 37.000000
; residue   37 bbb rtp bbb q 1.0
  953         n4     37    bbb     N1    953 -0.02747900  14.010000   ; qtot 36.972521
  954         c3     37    bbb     C1    954 -0.05097600  12.010000   ; qtot 36.921545
  955         c3     37    bbb     C2    955 -0.05097600  12.010000   ; qtot 36.870569
  956         c3     37    bbb     C3    956 -0.18457900  12.010000   ; qtot 36.685990
  957          c     37    bbb     C4    957 0.67254400  12.010000   ; qtot 37.358534
  958         c3     37    bbb     C5    958 -0.18457900  12.010000   ; qtot 37.173955
  959          c     37    bbb     C6    959 0.67254400  12.010000   ; qtot 37.846499
  960         c3     37    bbb     C7    960 -0.02083000  12.010000   ; qtot 37.825669
  961         c3     37    bbb     C8    961 -0.03328100  12.010000   ; qtot 37.792388
  962          n     37    bbb     N2    962 -0.33303000  14.010000   ; qtot 37.459358
  963          o     37    bbb     O1    963 -0.52917200  16.000000   ; qtot 36.930186
  964          o     37    bbb     O2    964 -0.52917200  16.000000   ; qtot 36.401014
  965         hx     37    bbb     H1    965 0.11563300   1.008000   ; qtot 36.516647
  966         hx     37    bbb     H2    966 0.11563300   1.008000   ; qtot 36.632280
  967         hx     37    bbb     H3    967 0.11563300   1.008000   ; qtot 36.747913
  968         hx     37    bbb     H4    968 0.11563300   1.008000   ; qtot 36.863546
  969         hc     37    bbb     H5    969 0.08347900   1.008000   ; qtot 36.947025
  970         hc     37    bbb     H6    970 0.08347900   1.008000   ; qtot 37.030504
  971         hc     37    bbb     H7    971 0.08347900   1.008000   ; qtot 37.113983
  972         hc     37    bbb     H8    972 0.08347900   1.008000   ; qtot 37.197462
  973         hx     37    bbb     H9    973 0.07988000   1.008000   ; qtot 37.277342
  974         hx     37    bbb    H10    974 0.07988000   1.008000   ; qtot 37.357222
  975         h1     37    bbb    H11    975 0.10618100   1.008000   ; qtot 37.463403
  976         h1     37    bbb    H12    976 0.10618100   1.008000   ; qtot 37.569584
  977         hn     37    bbb    H13    977 0.25916100   1.008000   ; qtot 37.828745
  978         hn     37    bbb    H25    978 0.17125500   1.008000   ; qtot 38.000000
; residue   38 bbb rtp bbb q 1.0
  979         n4     38    bbb     N1    979 -0.02747900  14.010000   ; qtot 37.972521
  980         c3     38    bbb     C1    980 -0.05097600  12.010000   ; qtot 37.921545
  981         c3     38    bbb     C2    981 -0.05097600  12.010000   ; qtot 37.870569
  982         c3     38    bbb     C3    982 -0.18457900  12.010000   ; qtot 37.685990
  983          c     38    bbb     C4    983 0.67254400  12.010000   ; qtot 38.358534
  984         c3     38    bbb     C5    984 -0.18457900  12.010000   ; qtot 38.173955
  985          c     38    bbb     C6    985 0.67254400  12.010000   ; qtot 38.846499
  986         c3     38    bbb     C7    986 -0.02083000  12.010000   ; qtot 38.825669
  987         c3     38    bbb     C8    987 -0.03328100  12.010000   ; qtot 38.792388
  988          n     38    bbb     N2    988 -0.33303000  14.010000   ; qtot 38.459358
  989          o     38    bbb     O1    989 -0.52917200  16.000000   ; qtot 37.930186
  990          o     38    bbb     O2    990 -0.52917200  16.000000   ; qtot 37.401014
  991         hx     38    bbb     H1    991 0.11563300   1.008000   ; qtot 37.516647
  992         hx     38    bbb     H2    992 0.11563300   1.008000   ; qtot 37.632280
  993         hx     38    bbb     H3    993 0.11563300   1.008000   ; qtot 37.747913
  994         hx     38    bbb     H4    994 0.11563300   1.008000   ; qtot 37.863546
  995         hc     38    bbb     H5    995 0.08347900   1.008000   ; qtot 37.947025
  996         hc     38    bbb     H6    996 0.08347900   1.008000   ; qtot 38.030504
  997         hc     38    bbb     H7    997 0.08347900   1.008000   ; qtot 38.113983
  998         hc     38    bbb     H8    998 0.08347900   1.008000   ; qtot 38.197462
  999         hx     38    bbb     H9    999 0.07988000   1.008000   ; qtot 38.277342
 1000         hx     38    bbb    H10   1000 0.07988000   1.008000   ; qtot 38.357222
 1001         h1     38    bbb    H11   1001 0.10618100   1.008000   ; qtot 38.463403
 1002         h1     38    bbb    H12   1002 0.10618100   1.008000   ; qtot 38.569584
 1003         hn     38    bbb    H13   1003 0.25916100   1.008000   ; qtot 38.828745
 1004         hn     38    bbb    H25   1004 0.17125500   1.008000   ; qtot 39.000000
; residue   39 bbb rtp bbb q 1.0
 1005         n4     39    bbb     N1   1005 -0.02747900  14.010000   ; qtot 38.972521
 1006         c3     39    bbb     C1   1006 -0.05097600  12.010000   ; qtot 38.921545
 1007         c3     39    bbb     C2   1007 -0.05097600  12.010000   ; qtot 38.870569
 1008         c3     39    bbb     C3   1008 -0.18457900  12.010000   ; qtot 38.685990
 1009          c     39    bbb     C4   1009 0.67254400  12.010000   ; qtot 39.358534
 1010         c3     39    bbb     C5   1010 -0.18457900  12.010000   ; qtot 39.173955
 1011          c     39    bbb     C6   1011 0.67254400  12.010000   ; qtot 39.846499
 1012         c3     39    bbb     C7   1012 -0.02083000  12.010000   ; qtot 39.825669
 1013         c3     39    bbb     C8   1013 -0.03328100  12.010000   ; qtot 39.792388
 1014          n     39    bbb     N2   1014 -0.33303000  14.010000   ; qtot 39.459358
 1015          o     39    bbb     O1   1015 -0.52917200  16.000000   ; qtot 38.930186
 1016          o     39    bbb     O2   1016 -0.52917200  16.000000   ; qtot 38.401014
 1017         hx     39    bbb     H1   1017 0.11563300   1.008000   ; qtot 38.516647
 1018         hx     39    bbb     H2   1018 0.11563300   1.008000   ; qtot 38.632280
 1019         hx     39    bbb     H3   1019 0.11563300   1.008000   ; qtot 38.747913
 1020         hx     39    bbb     H4   1020 0.11563300   1.008000   ; qtot 38.863546
 1021         hc     39    bbb     H5   1021 0.08347900   1.008000   ; qtot 38.947025
 1022         hc     39    bbb     H6   1022 0.08347900   1.008000   ; qtot 39.030504
 1023         hc     39    bbb     H7   1023 0.08347900   1.008000   ; qtot 39.113983
 1024         hc     39    bbb     H8   1024 0.08347900   1.008000   ; qtot 39.197462
 1025         hx     39    bbb     H9   1025 0.07988000   1.008000   ; qtot 39.277342
 1026         hx     39    bbb    H10   1026 0.07988000   1.008000   ; qtot 39.357222
 1027         h1     39    bbb    H11   1027 0.10618100   1.008000   ; qtot 39.463403
 1028         h1     39    bbb    H12   1028 0.10618100   1.008000   ; qtot 39.569584
 1029         hn     39    bbb    H13   1029 0.25916100   1.008000   ; qtot 39.828745
 1030         hn     39    bbb    H25   1030 0.17125500   1.008000   ; qtot 40.000000
; residue   40 bbb rtp bbb q 1.0
 1031         n4     40    bbb     N1   1031 -0.02747900  14.010000   ; qtot 39.972521
 1032         c3     40    bbb     C1   1032 -0.05097600  12.010000   ; qtot 39.921545
 1033         c3     40    bbb     C2   1033 -0.05097600  12.010000   ; qtot 39.870569
 1034         c3     40    bbb     C3   1034 -0.18457900  12.010000   ; qtot 39.685990
 1035          c     40    bbb     C4   1035 0.67254400  12.010000   ; qtot 40.358534
 1036         c3     40    bbb     C5   1036 -0.18457900  12.010000   ; qtot 40.173955
 1037          c     40    bbb     C6   1037 0.67254400  12.010000   ; qtot 40.846499
 1038         c3     40    bbb     C7   1038 -0.02083000  12.010000   ; qtot 40.825669
 1039         c3     40    bbb     C8   1039 -0.03328100  12.010000   ; qtot 40.792388
 1040          n     40    bbb     N2   1040 -0.33303000  14.010000   ; qtot 40.459358
 1041          o     40    bbb     O1   1041 -0.52917200  16.000000   ; qtot 39.930186
 1042          o     40    bbb     O2   1042 -0.52917200  16.000000   ; qtot 39.401014
 1043         hx     40    bbb     H1   1043 0.11563300   1.008000   ; qtot 39.516647
 1044         hx     40    bbb     H2   1044 0.11563300   1.008000   ; qtot 39.632280
 1045         hx     40    bbb     H3   1045 0.11563300   1.008000   ; qtot 39.747913
 1046         hx     40    bbb     H4   1046 0.11563300   1.008000   ; qtot 39.863546
 1047         hc     40    bbb     H5   1047 0.08347900   1.008000   ; qtot 39.947025
 1048         hc     40    bbb     H6   1048 0.08347900   1.008000   ; qtot 40.030504
 1049         hc     40    bbb     H7   1049 0.08347900   1.008000   ; qtot 40.113983
 1050         hc     40    bbb     H8   1050 0.08347900   1.008000   ; qtot 40.197462
 1051         hx     40    bbb     H9   1051 0.07988000   1.008000   ; qtot 40.277342
 1052         hx     40    bbb    H10   1052 0.07988000   1.008000   ; qtot 40.357222
 1053         h1     40    bbb    H11   1053 0.10618100   1.008000   ; qtot 40.463403
 1054         h1     40    bbb    H12   1054 0.10618100   1.008000   ; qtot 40.569584
 1055         hn     40    bbb    H13   1055 0.25916100   1.008000   ; qtot 40.828745
 1056         hn     40    bbb    H25   1056 0.17125500   1.008000   ; qtot 41.000000
; residue   41 bbb rtp bbb q 1.0
 1057         n4     41    bbb     N1   1057 -0.02747900  14.010000   ; qtot 40.972521
 1058         c3     41    bbb     C1   1058 -0.05097600  12.010000   ; qtot 40.921545
 1059         c3     41    bbb     C2   1059 -0.05097600  12.010000   ; qtot 40.870569
 1060         c3     41    bbb     C3   1060 -0.18457900  12.010000   ; qtot 40.685990
 1061          c     41    bbb     C4   1061 0.67254400  12.010000   ; qtot 41.358534
 1062         c3     41    bbb     C5   1062 -0.18457900  12.010000   ; qtot 41.173955
 1063          c     41    bbb     C6   1063 0.67254400  12.010000   ; qtot 41.846499
 1064         c3     41    bbb     C7   1064 -0.02083000  12.010000   ; qtot 41.825669
 1065         c3     41    bbb     C8   1065 -0.03328100  12.010000   ; qtot 41.792388
 1066          n     41    bbb     N2   1066 -0.33303000  14.010000   ; qtot 41.459358
 1067          o     41    bbb     O1   1067 -0.52917200  16.000000   ; qtot 40.930186
 1068          o     41    bbb     O2   1068 -0.52917200  16.000000   ; qtot 40.401014
 1069         hx     41    bbb     H1   1069 0.11563300   1.008000   ; qtot 40.516647
 1070         hx     41    bbb     H2   1070 0.11563300   1.008000   ; qtot 40.632280
 1071         hx     41    bbb     H3   1071 0.11563300   1.008000   ; qtot 40.747913
 1072         hx     41    bbb     H4   1072 0.11563300   1.008000   ; qtot 40.863546
 1073         hc     41    bbb     H5   1073 0.08347900   1.008000   ; qtot 40.947025
 1074         hc     41    bbb     H6   1074 0.08347900   1.008000   ; qtot 41.030504
 1075         hc     41    bbb     H7   1075 0.08347900   1.008000   ; qtot 41.113983
 1076         hc     41    bbb     H8   1076 0.08347900   1.008000   ; qtot 41.197462
 1077         hx     41    bbb     H9   1077 0.07988000   1.008000   ; qtot 41.277342
 1078         hx     41    bbb    H10   1078 0.07988000   1.008000   ; qtot 41.357222
 1079         h1     41    bbb    H11   1079 0.10618100   1.008000   ; qtot 41.463403
 1080         h1     41    bbb    H12   1080 0.10618100   1.008000   ; qtot 41.569584
 1081         hn     41    bbb    H13   1081 0.25916100   1.008000   ; qtot 41.828745
 1082         hn     41    bbb    H25   1082 0.17125500   1.008000   ; qtot 42.000000
; residue   42 bbb rtp bbb q 1.0
 1083         n4     42    bbb     N1   1083 -0.02747900  14.010000   ; qtot 41.972521
 1084         c3     42    bbb     C1   1084 -0.05097600  12.010000   ; qtot 41.921545
 1085         c3     42    bbb     C2   1085 -0.05097600  12.010000   ; qtot 41.870569
 1086         c3     42    bbb     C3   1086 -0.18457900  12.010000   ; qtot 41.685990
 1087          c     42    bbb     C4   1087 0.67254400  12.010000   ; qtot 42.358534
 1088         c3     42    bbb     C5   1088 -0.18457900  12.010000   ; qtot 42.173955
 1089          c     42    bbb     C6   1089 0.67254400  12.010000   ; qtot 42.846499
 1090         c3     42    bbb     C7   1090 -0.02083000  12.010000   ; qtot 42.825669
 1091         c3     42    bbb     C8   1091 -0.03328100  12.010000   ; qtot 42.792388
 1092          n     42    bbb     N2   1092 -0.33303000  14.010000   ; qtot 42.459358
 1093          o     42    bbb     O1   1093 -0.52917200  16.000000   ; qtot 41.930186
 1094          o     42    bbb     O2   1094 -0.52917200  16.000000   ; qtot 41.401014
 1095         hx     42    bbb     H1   1095 0.11563300   1.008000   ; qtot 41.516647
 1096         hx     42    bbb     H2   1096 0.11563300   1.008000   ; qtot 41.632280
 1097         hx     42    bbb     H3   1097 0.11563300   1.008000   ; qtot 41.747913
 1098         hx     42    bbb     H4   1098 0.11563300   1.008000   ; qtot 41.863546
 1099         hc     42    bbb     H5   1099 0.08347900   1.008000   ; qtot 41.947025
 1100         hc     42    bbb     H6   1100 0.08347900   1.008000   ; qtot 42.030504
 1101         hc     42    bbb     H7   1101 0.08347900   1.008000   ; qtot 42.113983
 1102         hc     42    bbb     H8   1102 0.08347900   1.008000   ; qtot 42.197462
 1103         hx     42    bbb     H9   1103 0.07988000   1.008000   ; qtot 42.277342
 1104         hx     42    bbb    H10   1104 0.07988000   1.008000   ; qtot 42.357222
 1105         h1     42    bbb    H11   1105 0.10618100   1.008000   ; qtot 42.463403
 1106         h1     42    bbb    H12   1106 0.10618100   1.008000   ; qtot 42.569584
 1107         hn     42    bbb    H13   1107 0.25916100   1.008000   ; qtot 42.828745
 1108         hn     42    bbb    H25   1108 0.17125500   1.008000   ; qtot 43.000000
; residue   43 bbb rtp bbb q 1.0
 1109         n4     43    bbb     N1   1109 -0.02747900  14.010000   ; qtot 42.972521
 1110         c3     43    bbb     C1   1110 -0.05097600  12.010000   ; qtot 42.921545
 1111         c3     43    bbb     C2   1111 -0.05097600  12.010000   ; qtot 42.870569
 1112         c3     43    bbb     C3   1112 -0.18457900  12.010000   ; qtot 42.685990
 1113          c     43    bbb     C4   1113 0.67254400  12.010000   ; qtot 43.358534
 1114         c3     43    bbb     C5   1114 -0.18457900  12.010000   ; qtot 43.173955
 1115          c     43    bbb     C6   1115 0.67254400  12.010000   ; qtot 43.846499
 1116         c3     43    bbb     C7   1116 -0.02083000  12.010000   ; qtot 43.825669
 1117         c3     43    bbb     C8   1117 -0.03328100  12.010000   ; qtot 43.792388
 1118          n     43    bbb     N2   1118 -0.33303000  14.010000   ; qtot 43.459358
 1119          o     43    bbb     O1   1119 -0.52917200  16.000000   ; qtot 42.930186
 1120          o     43    bbb     O2   1120 -0.52917200  16.000000   ; qtot 42.401014
 1121         hx     43    bbb     H1   1121 0.11563300   1.008000   ; qtot 42.516647
 1122         hx     43    bbb     H2   1122 0.11563300   1.008000   ; qtot 42.632280
 1123         hx     43    bbb     H3   1123 0.11563300   1.008000   ; qtot 42.747913
 1124         hx     43    bbb     H4   1124 0.11563300   1.008000   ; qtot 42.863546
 1125         hc     43    bbb     H5   1125 0.08347900   1.008000   ; qtot 42.947025
 1126         hc     43    bbb     H6   1126 0.08347900   1.008000   ; qtot 43.030504
 1127         hc     43    bbb     H7   1127 0.08347900   1.008000   ; qtot 43.113983
 1128         hc     43    bbb     H8   1128 0.08347900   1.008000   ; qtot 43.197462
 1129         hx     43    bbb     H9   1129 0.07988000   1.008000   ; qtot 43.277342
 1130         hx     43    bbb    H10   1130 0.07988000   1.008000   ; qtot 43.357222
 1131         h1     43    bbb    H11   1131 0.10618100   1.008000   ; qtot 43.463403
 1132         h1     43    bbb    H12   1132 0.10618100   1.008000   ; qtot 43.569584
 1133         hn     43    bbb    H13   1133 0.25916100   1.008000   ; qtot 43.828745
 1134         hn     43    bbb    H25   1134 0.17125500   1.008000   ; qtot 44.000000
; residue   44 bbb rtp bbb q 1.0
 1135         n4     44    bbb     N1   1135 -0.02747900  14.010000   ; qtot 43.972521
 1136         c3     44    bbb     C1   1136 -0.05097600  12.010000   ; qtot 43.921545
 1137         c3     44    bbb     C2   1137 -0.05097600  12.010000   ; qtot 43.870569
 1138         c3     44    bbb     C3   1138 -0.18457900  12.010000   ; qtot 43.685990
 1139          c     44    bbb     C4   1139 0.67254400  12.010000   ; qtot 44.358534
 1140         c3     44    bbb     C5   1140 -0.18457900  12.010000   ; qtot 44.173955
 1141          c     44    bbb     C6   1141 0.67254400  12.010000   ; qtot 44.846499
 1142         c3     44    bbb     C7   1142 -0.02083000  12.010000   ; qtot 44.825669
 1143         c3     44    bbb     C8   1143 -0.03328100  12.010000   ; qtot 44.792388
 1144          n     44    bbb     N2   1144 -0.33303000  14.010000   ; qtot 44.459358
 1145          o     44    bbb     O1   1145 -0.52917200  16.000000   ; qtot 43.930186
 1146          o     44    bbb     O2   1146 -0.52917200  16.000000   ; qtot 43.401014
 1147         hx     44    bbb     H1   1147 0.11563300   1.008000   ; qtot 43.516647
 1148         hx     44    bbb     H2   1148 0.11563300   1.008000   ; qtot 43.632280
 1149         hx     44    bbb     H3   1149 0.11563300   1.008000   ; qtot 43.747913
 1150         hx     44    bbb     H4   1150 0.11563300   1.008000   ; qtot 43.863546
 1151         hc     44    bbb     H5   1151 0.08347900   1.008000   ; qtot 43.947025
 1152         hc     44    bbb     H6   1152 0.08347900   1.008000   ; qtot 44.030504
 1153         hc     44    bbb     H7   1153 0.08347900   1.008000   ; qtot 44.113983
 1154         hc     44    bbb     H8   1154 0.08347900   1.008000   ; qtot 44.197462
 1155         hx     44    bbb     H9   1155 0.07988000   1.008000   ; qtot 44.277342
 1156         hx     44    bbb    H10   1156 0.07988000   1.008000   ; qtot 44.357222
 1157         h1     44    bbb    H11   1157 0.10618100   1.008000   ; qtot 44.463403
 1158         h1     44    bbb    H12   1158 0.10618100   1.008000   ; qtot 44.569584
 1159         hn     44    bbb    H13   1159 0.25916100   1.008000   ; qtot 44.828745
 1160         hn     44    bbb    H25   1160 0.17125500   1.008000   ; qtot 45.000000
; residue   45 bbb rtp bbb q 1.0
 1161         n4     45    bbb     N1   1161 -0.02747900  14.010000   ; qtot 44.972521
 1162         c3     45    bbb     C1   1162 -0.05097600  12.010000   ; qtot 44.921545
 1163         c3     45    bbb     C2   1163 -0.05097600  12.010000   ; qtot 44.870569
 1164         c3     45    bbb     C3   1164 -0.18457900  12.010000   ; qtot 44.685990
 1165          c     45    bbb     C4   1165 0.67254400  12.010000   ; qtot 45.358534
 1166         c3     45    bbb     C5   1166 -0.18457900  12.010000   ; qtot 45.173955
 1167          c     45    bbb     C6   1167 0.67254400  12.010000   ; qtot 45.846499
 1168         c3     45    bbb     C7   1168 -0.02083000  12.010000   ; qtot 45.825669
 1169         c3     45    bbb     C8   1169 -0.03328100  12.010000   ; qtot 45.792388
 1170          n     45    bbb     N2   1170 -0.33303000  14.010000   ; qtot 45.459358
 1171          o     45    bbb     O1   1171 -0.52917200  16.000000   ; qtot 44.930186
 1172          o     45    bbb     O2   1172 -0.52917200  16.000000   ; qtot 44.401014
 1173         hx     45    bbb     H1   1173 0.11563300   1.008000   ; qtot 44.516647
 1174         hx     45    bbb     H2   1174 0.11563300   1.008000   ; qtot 44.632280
 1175         hx     45    bbb     H3   1175 0.11563300   1.008000   ; qtot 44.747913
 1176         hx     45    bbb     H4   1176 0.11563300   1.008000   ; qtot 44.863546
 1177         hc     45    bbb     H5   1177 0.08347900   1.008000   ; qtot 44.947025
 1178         hc     45    bbb     H6   1178 0.08347900   1.008000   ; qtot 45.030504
 1179         hc     45    bbb     H7   1179 0.08347900   1.008000   ; qtot 45.113983
 1180         hc     45    bbb     H8   1180 0.08347900   1.008000   ; qtot 45.197462
 1181         hx     45    bbb     H9   1181 0.07988000   1.008000   ; qtot 45.277342
 1182         hx     45    bbb    H10   1182 0.07988000   1.008000   ; qtot 45.357222
 1183         h1     45    bbb    H11   1183 0.10618100   1.008000   ; qtot 45.463403
 1184         h1     45    bbb    H12   1184 0.10618100   1.008000   ; qtot 45.569584
 1185         hn     45    bbb    H13   1185 0.25916100   1.008000   ; qtot 45.828745
 1186         hn     45    bbb    H25   1186 0.17125500   1.008000   ; qtot 46.000000
; residue   46 bbb rtp bbb q 1.0
 1187         n4     46    bbb     N1   1187 -0.02747900  14.010000   ; qtot 45.972521
 1188         c3     46    bbb     C1   1188 -0.05097600  12.010000   ; qtot 45.921545
 1189         c3     46    bbb     C2   1189 -0.05097600  12.010000   ; qtot 45.870569
 1190         c3     46    bbb     C3   1190 -0.18457900  12.010000   ; qtot 45.685990
 1191          c     46    bbb     C4   1191 0.67254400  12.010000   ; qtot 46.358534
 1192         c3     46    bbb     C5   1192 -0.18457900  12.010000   ; qtot 46.173955
 1193          c     46    bbb     C6   1193 0.67254400  12.010000   ; qtot 46.846499
 1194         c3     46    bbb     C7   1194 -0.02083000  12.010000   ; qtot 46.825669
 1195         c3     46    bbb     C8   1195 -0.03328100  12.010000   ; qtot 46.792388
 1196          n     46    bbb     N2   1196 -0.33303000  14.010000   ; qtot 46.459358
 1197          o     46    bbb     O1   1197 -0.52917200  16.000000   ; qtot 45.930186
 1198          o     46    bbb     O2   1198 -0.52917200  16.000000   ; qtot 45.401014
 1199         hx     46    bbb     H1   1199 0.11563300   1.008000   ; qtot 45.516647
 1200         hx     46    bbb     H2   1200 0.11563300   1.008000   ; qtot 45.632280
 1201         hx     46    bbb     H3   1201 0.11563300   1.008000   ; qtot 45.747913
 1202         hx     46    bbb     H4   1202 0.11563300   1.008000   ; qtot 45.863546
 1203         hc     46    bbb     H5   1203 0.08347900   1.008000   ; qtot 45.947025
 1204         hc     46    bbb     H6   1204 0.08347900   1.008000   ; qtot 46.030504
 1205         hc     46    bbb     H7   1205 0.08347900   1.008000   ; qtot 46.113983
 1206         hc     46    bbb     H8   1206 0.08347900   1.008000   ; qtot 46.197462
 1207         hx     46    bbb     H9   1207 0.07988000   1.008000   ; qtot 46.277342
 1208         hx     46    bbb    H10   1208 0.07988000   1.008000   ; qtot 46.357222
 1209         h1     46    bbb    H11   1209 0.10618100   1.008000   ; qtot 46.463403
 1210         h1     46    bbb    H12   1210 0.10618100   1.008000   ; qtot 46.569584
 1211         hn     46    bbb    H13   1211 0.25916100   1.008000   ; qtot 46.828745
 1212         hn     46    bbb    H25   1212 0.17125500   1.008000   ; qtot 47.000000
; residue   47 bbb rtp bbb q 1.0
 1213         n4     47    bbb     N1   1213 -0.02747900  14.010000   ; qtot 46.972521
 1214         c3     47    bbb     C1   1214 -0.05097600  12.010000   ; qtot 46.921545
 1215         c3     47    bbb     C2   1215 -0.05097600  12.010000   ; qtot 46.870569
 1216         c3     47    bbb     C3   1216 -0.18457900  12.010000   ; qtot 46.685990
 1217          c     47    bbb     C4   1217 0.67254400  12.010000   ; qtot 47.358534
 1218         c3     47    bbb     C5   1218 -0.18457900  12.010000   ; qtot 47.173955
 1219          c     47    bbb     C6   1219 0.67254400  12.010000   ; qtot 47.846499
 1220         c3     47    bbb     C7   1220 -0.02083000  12.010000   ; qtot 47.825669
 1221         c3     47    bbb     C8   1221 -0.03328100  12.010000   ; qtot 47.792388
 1222          n     47    bbb     N2   1222 -0.33303000  14.010000   ; qtot 47.459358
 1223          o     47    bbb     O1   1223 -0.52917200  16.000000   ; qtot 46.930186
 1224          o     47    bbb     O2   1224 -0.52917200  16.000000   ; qtot 46.401014
 1225         hx     47    bbb     H1   1225 0.11563300   1.008000   ; qtot 46.516647
 1226         hx     47    bbb     H2   1226 0.11563300   1.008000   ; qtot 46.632280
 1227         hx     47    bbb     H3   1227 0.11563300   1.008000   ; qtot 46.747913
 1228         hx     47    bbb     H4   1228 0.11563300   1.008000   ; qtot 46.863546
 1229         hc     47    bbb     H5   1229 0.08347900   1.008000   ; qtot 46.947025
 1230         hc     47    bbb     H6   1230 0.08347900   1.008000   ; qtot 47.030504
 1231         hc     47    bbb     H7   1231 0.08347900   1.008000   ; qtot 47.113983
 1232         hc     47    bbb     H8   1232 0.08347900   1.008000   ; qtot 47.197462
 1233         hx     47    bbb     H9   1233 0.07988000   1.008000   ; qtot 47.277342
 1234         hx     47    bbb    H10   1234 0.07988000   1.008000   ; qtot 47.357222
 1235         h1     47    bbb    H11   1235 0.10618100   1.008000   ; qtot 47.463403
 1236         h1     47    bbb    H12   1236 0.10618100   1.008000   ; qtot 47.569584
 1237         hn     47    bbb    H13   1237 0.25916100   1.008000   ; qtot 47.828745
 1238         hn     47    bbb    H25   1238 0.17125500   1.008000   ; qtot 48.000000
; residue   48 bbb rtp bbb q 1.0
 1239         n4     48    bbb     N1   1239 -0.02747900  14.010000   ; qtot 47.972521
 1240         c3     48    bbb     C1   1240 -0.05097600  12.010000   ; qtot 47.921545
 1241         c3     48    bbb     C2   1241 -0.05097600  12.010000   ; qtot 47.870569
 1242         c3     48    bbb     C3   1242 -0.18457900  12.010000   ; qtot 47.685990
 1243          c     48    bbb     C4   1243 0.67254400  12.010000   ; qtot 48.358534
 1244         c3     48    bbb     C5   1244 -0.18457900  12.010000   ; qtot 48.173955
 1245          c     48    bbb     C6   1245 0.67254400  12.010000   ; qtot 48.846499
 1246         c3     48    bbb     C7   1246 -0.02083000  12.010000   ; qtot 48.825669
 1247         c3     48    bbb     C8   1247 -0.03328100  12.010000   ; qtot 48.792388
 1248          n     48    bbb     N2   1248 -0.33303000  14.010000   ; qtot 48.459358
 1249          o     48    bbb     O1   1249 -0.52917200  16.000000   ; qtot 47.930186
 1250          o     48    bbb     O2   1250 -0.52917200  16.000000   ; qtot 47.401014
 1251         hx     48    bbb     H1   1251 0.11563300   1.008000   ; qtot 47.516647
 1252         hx     48    bbb     H2   1252 0.11563300   1.008000   ; qtot 47.632280
 1253         hx     48    bbb     H3   1253 0.11563300   1.008000   ; qtot 47.747913
 1254         hx     48    bbb     H4   1254 0.11563300   1.008000   ; qtot 47.863546
 1255         hc     48    bbb     H5   1255 0.08347900   1.008000   ; qtot 47.947025
 1256         hc     48    bbb     H6   1256 0.08347900   1.008000   ; qtot 48.030504
 1257         hc     48    bbb     H7   1257 0.08347900   1.008000   ; qtot 48.113983
 1258         hc     48    bbb     H8   1258 0.08347900   1.008000   ; qtot 48.197462
 1259         hx     48    bbb     H9   1259 0.07988000   1.008000   ; qtot 48.277342
 1260         hx     48    bbb    H10   1260 0.07988000   1.008000   ; qtot 48.357222
 1261         h1     48    bbb    H11   1261 0.10618100   1.008000   ; qtot 48.463403
 1262         h1     48    bbb    H12   1262 0.10618100   1.008000   ; qtot 48.569584
 1263         hn     48    bbb    H13   1263 0.25916100   1.008000   ; qtot 48.828745
 1264         hn     48    bbb    H25   1264 0.17125500   1.008000   ; qtot 49.000000
; residue   49 bbb rtp bbb q 1.0
 1265         n4     49    bbb     N1   1265 -0.02747900  14.010000   ; qtot 48.972521
 1266         c3     49    bbb     C1   1266 -0.05097600  12.010000   ; qtot 48.921545
 1267         c3     49    bbb     C2   1267 -0.05097600  12.010000   ; qtot 48.870569
 1268         c3     49    bbb     C3   1268 -0.18457900  12.010000   ; qtot 48.685990
 1269          c     49    bbb     C4   1269 0.67254400  12.010000   ; qtot 49.358534
 1270         c3     49    bbb     C5   1270 -0.18457900  12.010000   ; qtot 49.173955
 1271          c     49    bbb     C6   1271 0.67254400  12.010000   ; qtot 49.846499
 1272         c3     49    bbb     C7   1272 -0.02083000  12.010000   ; qtot 49.825669
 1273         c3     49    bbb     C8   1273 -0.03328100  12.010000   ; qtot 49.792388
 1274          n     49    bbb     N2   1274 -0.33303000  14.010000   ; qtot 49.459358
 1275          o     49    bbb     O1   1275 -0.52917200  16.000000   ; qtot 48.930186
 1276          o     49    bbb     O2   1276 -0.52917200  16.000000   ; qtot 48.401014
 1277         hx     49    bbb     H1   1277 0.11563300   1.008000   ; qtot 48.516647
 1278         hx     49    bbb     H2   1278 0.11563300   1.008000   ; qtot 48.632280
 1279         hx     49    bbb     H3   1279 0.11563300   1.008000   ; qtot 48.747913
 1280         hx     49    bbb     H4   1280 0.11563300   1.008000   ; qtot 48.863546
 1281         hc     49    bbb     H5   1281 0.08347900   1.008000   ; qtot 48.947025
 1282         hc     49    bbb     H6   1282 0.08347900   1.008000   ; qtot 49.030504
 1283         hc     49    bbb     H7   1283 0.08347900   1.008000   ; qtot 49.113983
 1284         hc     49    bbb     H8   1284 0.08347900   1.008000   ; qtot 49.197462
 1285         hx     49    bbb     H9   1285 0.07988000   1.008000   ; qtot 49.277342
 1286         hx     49    bbb    H10   1286 0.07988000   1.008000   ; qtot 49.357222
 1287         h1     49    bbb    H11   1287 0.10618100   1.008000   ; qtot 49.463403
 1288         h1     49    bbb    H12   1288 0.10618100   1.008000   ; qtot 49.569584
 1289         hn     49    bbb    H13   1289 0.25916100   1.008000   ; qtot 49.828745
 1290         hn     49    bbb    H25   1290 0.17125500   1.008000   ; qtot 50.000000
; residue   50 bbb rtp bbb q 1.0
 1291         n4     50    bbb     N1   1291 -0.02747900  14.010000   ; qtot 49.972521
 1292         c3     50    bbb     C1   1292 -0.05097600  12.010000   ; qtot 49.921545
 1293         c3     50    bbb     C2   1293 -0.05097600  12.010000   ; qtot 49.870569
 1294         c3     50    bbb     C3   1294 -0.18457900  12.010000   ; qtot 49.685990
 1295          c     50    bbb     C4   1295 0.67254400  12.010000   ; qtot 50.358534
 1296         c3     50    bbb     C5   1296 -0.18457900  12.010000   ; qtot 50.173955
 1297          c     50    bbb     C6   1297 0.67254400  12.010000   ; qtot 50.846499
 1298         c3     50    bbb     C7   1298 -0.02083000  12.010000   ; qtot 50.825669
 1299         c3     50    bbb     C8   1299 -0.03328100  12.010000   ; qtot 50.792388
 1300          n     50    bbb     N2   1300 -0.33303000  14.010000   ; qtot 50.459358
 1301          o     50    bbb     O1   1301 -0.52917200  16.000000   ; qtot 49.930186
 1302          o     50    bbb     O2   1302 -0.52917200  16.000000   ; qtot 49.401014
 1303         hx     50    bbb     H1   1303 0.11563300   1.008000   ; qtot 49.516647
 1304         hx     50    bbb     H2   1304 0.11563300   1.008000   ; qtot 49.632280
 1305         hx     50    bbb     H3   1305 0.11563300   1.008000   ; qtot 49.747913
 1306         hx     50    bbb     H4   1306 0.11563300   1.008000   ; qtot 49.863546
 1307         hc     50    bbb     H5   1307 0.08347900   1.008000   ; qtot 49.947025
 1308         hc     50    bbb     H6   1308 0.08347900   1.008000   ; qtot 50.030504
 1309         hc     50    bbb     H7   1309 0.08347900   1.008000   ; qtot 50.113983
 1310         hc     50    bbb     H8   1310 0.08347900   1.008000   ; qtot 50.197462
 1311         hx     50    bbb     H9   1311 0.07988000   1.008000   ; qtot 50.277342
 1312         hx     50    bbb    H10   1312 0.07988000   1.008000   ; qtot 50.357222
 1313         h1     50    bbb    H11   1313 0.10618100   1.008000   ; qtot 50.463403
 1314         h1     50    bbb    H12   1314 0.10618100   1.008000   ; qtot 50.569584
 1315         hn     50    bbb    H13   1315 0.25916100   1.008000   ; qtot 50.828745
 1316         hn     50    bbb    H25   1316 0.17125500   1.008000   ; qtot 51.000000
; residue   51 bbb rtp bbb q 1.0
 1317         n4     51    bbb     N1   1317 -0.02747900  14.010000   ; qtot 50.972521
 1318         c3     51    bbb     C1   1318 -0.05097600  12.010000   ; qtot 50.921545
 1319         c3     51    bbb     C2   1319 -0.05097600  12.010000   ; qtot 50.870569
 1320         c3     51    bbb     C3   1320 -0.18457900  12.010000   ; qtot 50.685990
 1321          c     51    bbb     C4   1321 0.67254400  12.010000   ; qtot 51.358534
 1322         c3     51    bbb     C5   1322 -0.18457900  12.010000   ; qtot 51.173955
 1323          c     51    bbb     C6   1323 0.67254400  12.010000   ; qtot 51.846499
 1324         c3     51    bbb     C7   1324 -0.02083000  12.010000   ; qtot 51.825669
 1325         c3     51    bbb     C8   1325 -0.03328100  12.010000   ; qtot 51.792388
 1326          n     51    bbb     N2   1326 -0.33303000  14.010000   ; qtot 51.459358
 1327          o     51    bbb     O1   1327 -0.52917200  16.000000   ; qtot 50.930186
 1328          o     51    bbb     O2   1328 -0.52917200  16.000000   ; qtot 50.401014
 1329         hx     51    bbb     H1   1329 0.11563300   1.008000   ; qtot 50.516647
 1330         hx     51    bbb     H2   1330 0.11563300   1.008000   ; qtot 50.632280
 1331         hx     51    bbb     H3   1331 0.11563300   1.008000   ; qtot 50.747913
 1332         hx     51    bbb     H4   1332 0.11563300   1.008000   ; qtot 50.863546
 1333         hc     51    bbb     H5   1333 0.08347900   1.008000   ; qtot 50.947025
 1334         hc     51    bbb     H6   1334 0.08347900   1.008000   ; qtot 51.030504
 1335         hc     51    bbb     H7   1335 0.08347900   1.008000   ; qtot 51.113983
 1336         hc     51    bbb     H8   1336 0.08347900   1.008000   ; qtot 51.197462
 1337         hx     51    bbb     H9   1337 0.07988000   1.008000   ; qtot 51.277342
 1338         hx     51    bbb    H10   1338 0.07988000   1.008000   ; qtot 51.357222
 1339         h1     51    bbb    H11   1339 0.10618100   1.008000   ; qtot 51.463403
 1340         h1     51    bbb    H12   1340 0.10618100   1.008000   ; qtot 51.569584
 1341         hn     51    bbb    H13   1341 0.25916100   1.008000   ; qtot 51.828745
 1342         hn     51    bbb    H25   1342 0.17125500   1.008000   ; qtot 52.000000
; residue   52 bbb rtp bbb q 1.0
 1343         n4     52    bbb     N1   1343 -0.02747900  14.010000   ; qtot 51.972521
 1344         c3     52    bbb     C1   1344 -0.05097600  12.010000   ; qtot 51.921545
 1345         c3     52    bbb     C2   1345 -0.05097600  12.010000   ; qtot 51.870569
 1346         c3     52    bbb     C3   1346 -0.18457900  12.010000   ; qtot 51.685990
 1347          c     52    bbb     C4   1347 0.67254400  12.010000   ; qtot 52.358534
 1348         c3     52    bbb     C5   1348 -0.18457900  12.010000   ; qtot 52.173955
 1349          c     52    bbb     C6   1349 0.67254400  12.010000   ; qtot 52.846499
 1350         c3     52    bbb     C7   1350 -0.02083000  12.010000   ; qtot 52.825669
 1351         c3     52    bbb     C8   1351 -0.03328100  12.010000   ; qtot 52.792388
 1352          n     52    bbb     N2   1352 -0.33303000  14.010000   ; qtot 52.459358
 1353          o     52    bbb     O1   1353 -0.52917200  16.000000   ; qtot 51.930186
 1354          o     52    bbb     O2   1354 -0.52917200  16.000000   ; qtot 51.401014
 1355         hx     52    bbb     H1   1355 0.11563300   1.008000   ; qtot 51.516647
 1356         hx     52    bbb     H2   1356 0.11563300   1.008000   ; qtot 51.632280
 1357         hx     52    bbb     H3   1357 0.11563300   1.008000   ; qtot 51.747913
 1358         hx     52    bbb     H4   1358 0.11563300   1.008000   ; qtot 51.863546
 1359         hc     52    bbb     H5   1359 0.08347900   1.008000   ; qtot 51.947025
 1360         hc     52    bbb     H6   1360 0.08347900   1.008000   ; qtot 52.030504
 1361         hc     52    bbb     H7   1361 0.08347900   1.008000   ; qtot 52.113983
 1362         hc     52    bbb     H8   1362 0.08347900   1.008000   ; qtot 52.197462
 1363         hx     52    bbb     H9   1363 0.07988000   1.008000   ; qtot 52.277342
 1364         hx     52    bbb    H10   1364 0.07988000   1.008000   ; qtot 52.357222
 1365         h1     52    bbb    H11   1365 0.10618100   1.008000   ; qtot 52.463403
 1366         h1     52    bbb    H12   1366 0.10618100   1.008000   ; qtot 52.569584
 1367         hn     52    bbb    H13   1367 0.25916100   1.008000   ; qtot 52.828745
 1368         hn     52    bbb    H25   1368 0.17125500   1.008000   ; qtot 53.000000
; residue   53 bbb rtp bbb q 1.0
 1369         n4     53    bbb     N1   1369 -0.02747900  14.010000   ; qtot 52.972521
 1370         c3     53    bbb     C1   1370 -0.05097600  12.010000   ; qtot 52.921545
 1371         c3     53    bbb     C2   1371 -0.05097600  12.010000   ; qtot 52.870569
 1372         c3     53    bbb     C3   1372 -0.18457900  12.010000   ; qtot 52.685990
 1373          c     53    bbb     C4   1373 0.67254400  12.010000   ; qtot 53.358534
 1374         c3     53    bbb     C5   1374 -0.18457900  12.010000   ; qtot 53.173955
 1375          c     53    bbb     C6   1375 0.67254400  12.010000   ; qtot 53.846499
 1376         c3     53    bbb     C7   1376 -0.02083000  12.010000   ; qtot 53.825669
 1377         c3     53    bbb     C8   1377 -0.03328100  12.010000   ; qtot 53.792388
 1378          n     53    bbb     N2   1378 -0.33303000  14.010000   ; qtot 53.459358
 1379          o     53    bbb     O1   1379 -0.52917200  16.000000   ; qtot 52.930186
 1380          o     53    bbb     O2   1380 -0.52917200  16.000000   ; qtot 52.401014
 1381         hx     53    bbb     H1   1381 0.11563300   1.008000   ; qtot 52.516647
 1382         hx     53    bbb     H2   1382 0.11563300   1.008000   ; qtot 52.632280
 1383         hx     53    bbb     H3   1383 0.11563300   1.008000   ; qtot 52.747913
 1384         hx     53    bbb     H4   1384 0.11563300   1.008000   ; qtot 52.863546
 1385         hc     53    bbb     H5   1385 0.08347900   1.008000   ; qtot 52.947025
 1386         hc     53    bbb     H6   1386 0.08347900   1.008000   ; qtot 53.030504
 1387         hc     53    bbb     H7   1387 0.08347900   1.008000   ; qtot 53.113983
 1388         hc     53    bbb     H8   1388 0.08347900   1.008000   ; qtot 53.197462
 1389         hx     53    bbb     H9   1389 0.07988000   1.008000   ; qtot 53.277342
 1390         hx     53    bbb    H10   1390 0.07988000   1.008000   ; qtot 53.357222
 1391         h1     53    bbb    H11   1391 0.10618100   1.008000   ; qtot 53.463403
 1392         h1     53    bbb    H12   1392 0.10618100   1.008000   ; qtot 53.569584
 1393         hn     53    bbb    H13   1393 0.25916100   1.008000   ; qtot 53.828745
 1394         hn     53    bbb    H25   1394 0.17125500   1.008000   ; qtot 54.000000
; residue   54 bbb rtp bbb q 1.0
 1395         n4     54    bbb     N1   1395 -0.02747900  14.010000   ; qtot 53.972521
 1396         c3     54    bbb     C1   1396 -0.05097600  12.010000   ; qtot 53.921545
 1397         c3     54    bbb     C2   1397 -0.05097600  12.010000   ; qtot 53.870569
 1398         c3     54    bbb     C3   1398 -0.18457900  12.010000   ; qtot 53.685990
 1399          c     54    bbb     C4   1399 0.67254400  12.010000   ; qtot 54.358534
 1400         c3     54    bbb     C5   1400 -0.18457900  12.010000   ; qtot 54.173955
 1401          c     54    bbb     C6   1401 0.67254400  12.010000   ; qtot 54.846499
 1402         c3     54    bbb     C7   1402 -0.02083000  12.010000   ; qtot 54.825669
 1403         c3     54    bbb     C8   1403 -0.03328100  12.010000   ; qtot 54.792388
 1404          n     54    bbb     N2   1404 -0.33303000  14.010000   ; qtot 54.459358
 1405          o     54    bbb     O1   1405 -0.52917200  16.000000   ; qtot 53.930186
 1406          o     54    bbb     O2   1406 -0.52917200  16.000000   ; qtot 53.401014
 1407         hx     54    bbb     H1   1407 0.11563300   1.008000   ; qtot 53.516647
 1408         hx     54    bbb     H2   1408 0.11563300   1.008000   ; qtot 53.632280
 1409         hx     54    bbb     H3   1409 0.11563300   1.008000   ; qtot 53.747913
 1410         hx     54    bbb     H4   1410 0.11563300   1.008000   ; qtot 53.863546
 1411         hc     54    bbb     H5   1411 0.08347900   1.008000   ; qtot 53.947025
 1412         hc     54    bbb     H6   1412 0.08347900   1.008000   ; qtot 54.030504
 1413         hc     54    bbb     H7   1413 0.08347900   1.008000   ; qtot 54.113983
 1414         hc     54    bbb     H8   1414 0.08347900   1.008000   ; qtot 54.197462
 1415         hx     54    bbb     H9   1415 0.07988000   1.008000   ; qtot 54.277342
 1416         hx     54    bbb    H10   1416 0.07988000   1.008000   ; qtot 54.357222
 1417         h1     54    bbb    H11   1417 0.10618100   1.008000   ; qtot 54.463403
 1418         h1     54    bbb    H12   1418 0.10618100   1.008000   ; qtot 54.569584
 1419         hn     54    bbb    H13   1419 0.25916100   1.008000   ; qtot 54.828745
 1420         hn     54    bbb    H25   1420 0.17125500   1.008000   ; qtot 55.000000
; residue   55 bbb rtp bbb q 1.0
 1421         n4     55    bbb     N1   1421 -0.02747900  14.010000   ; qtot 54.972521
 1422         c3     55    bbb     C1   1422 -0.05097600  12.010000   ; qtot 54.921545
 1423         c3     55    bbb     C2   1423 -0.05097600  12.010000   ; qtot 54.870569
 1424         c3     55    bbb     C3   1424 -0.18457900  12.010000   ; qtot 54.685990
 1425          c     55    bbb     C4   1425 0.67254400  12.010000   ; qtot 55.358534
 1426         c3     55    bbb     C5   1426 -0.18457900  12.010000   ; qtot 55.173955
 1427          c     55    bbb     C6   1427 0.67254400  12.010000   ; qtot 55.846499
 1428         c3     55    bbb     C7   1428 -0.02083000  12.010000   ; qtot 55.825669
 1429         c3     55    bbb     C8   1429 -0.03328100  12.010000   ; qtot 55.792388
 1430          n     55    bbb     N2   1430 -0.33303000  14.010000   ; qtot 55.459358
 1431          o     55    bbb     O1   1431 -0.52917200  16.000000   ; qtot 54.930186
 1432          o     55    bbb     O2   1432 -0.52917200  16.000000   ; qtot 54.401014
 1433         hx     55    bbb     H1   1433 0.11563300   1.008000   ; qtot 54.516647
 1434         hx     55    bbb     H2   1434 0.11563300   1.008000   ; qtot 54.632280
 1435         hx     55    bbb     H3   1435 0.11563300   1.008000   ; qtot 54.747913
 1436         hx     55    bbb     H4   1436 0.11563300   1.008000   ; qtot 54.863546
 1437         hc     55    bbb     H5   1437 0.08347900   1.008000   ; qtot 54.947025
 1438         hc     55    bbb     H6   1438 0.08347900   1.008000   ; qtot 55.030504
 1439         hc     55    bbb     H7   1439 0.08347900   1.008000   ; qtot 55.113983
 1440         hc     55    bbb     H8   1440 0.08347900   1.008000   ; qtot 55.197462
 1441         hx     55    bbb     H9   1441 0.07988000   1.008000   ; qtot 55.277342
 1442         hx     55    bbb    H10   1442 0.07988000   1.008000   ; qtot 55.357222
 1443         h1     55    bbb    H11   1443 0.10618100   1.008000   ; qtot 55.463403
 1444         h1     55    bbb    H12   1444 0.10618100   1.008000   ; qtot 55.569584
 1445         hn     55    bbb    H13   1445 0.25916100   1.008000   ; qtot 55.828745
 1446         hn     55    bbb    H25   1446 0.17125500   1.008000   ; qtot 56.000000
; residue   56 bbb rtp bbb q 1.0
 1447         n4     56    bbb     N1   1447 -0.02747900  14.010000   ; qtot 55.972521
 1448         c3     56    bbb     C1   1448 -0.05097600  12.010000   ; qtot 55.921545
 1449         c3     56    bbb     C2   1449 -0.05097600  12.010000   ; qtot 55.870569
 1450         c3     56    bbb     C3   1450 -0.18457900  12.010000   ; qtot 55.685990
 1451          c     56    bbb     C4   1451 0.67254400  12.010000   ; qtot 56.358534
 1452         c3     56    bbb     C5   1452 -0.18457900  12.010000   ; qtot 56.173955
 1453          c     56    bbb     C6   1453 0.67254400  12.010000   ; qtot 56.846499
 1454         c3     56    bbb     C7   1454 -0.02083000  12.010000   ; qtot 56.825669
 1455         c3     56    bbb     C8   1455 -0.03328100  12.010000   ; qtot 56.792388
 1456          n     56    bbb     N2   1456 -0.33303000  14.010000   ; qtot 56.459358
 1457          o     56    bbb     O1   1457 -0.52917200  16.000000   ; qtot 55.930186
 1458          o     56    bbb     O2   1458 -0.52917200  16.000000   ; qtot 55.401014
 1459         hx     56    bbb     H1   1459 0.11563300   1.008000   ; qtot 55.516647
 1460         hx     56    bbb     H2   1460 0.11563300   1.008000   ; qtot 55.632280
 1461         hx     56    bbb     H3   1461 0.11563300   1.008000   ; qtot 55.747913
 1462         hx     56    bbb     H4   1462 0.11563300   1.008000   ; qtot 55.863546
 1463         hc     56    bbb     H5   1463 0.08347900   1.008000   ; qtot 55.947025
 1464         hc     56    bbb     H6   1464 0.08347900   1.008000   ; qtot 56.030504
 1465         hc     56    bbb     H7   1465 0.08347900   1.008000   ; qtot 56.113983
 1466         hc     56    bbb     H8   1466 0.08347900   1.008000   ; qtot 56.197462
 1467         hx     56    bbb     H9   1467 0.07988000   1.008000   ; qtot 56.277342
 1468         hx     56    bbb    H10   1468 0.07988000   1.008000   ; qtot 56.357222
 1469         h1     56    bbb    H11   1469 0.10618100   1.008000   ; qtot 56.463403
 1470         h1     56    bbb    H12   1470 0.10618100   1.008000   ; qtot 56.569584
 1471         hn     56    bbb    H13   1471 0.25916100   1.008000   ; qtot 56.828745
 1472         hn     56    bbb    H25   1472 0.17125500   1.008000   ; qtot 57.000000
; residue   57 bbb rtp bbb q 1.0
 1473         n4     57    bbb     N1   1473 -0.02747900  14.010000   ; qtot 56.972521
 1474         c3     57    bbb     C1   1474 -0.05097600  12.010000   ; qtot 56.921545
 1475         c3     57    bbb     C2   1475 -0.05097600  12.010000   ; qtot 56.870569
 1476         c3     57    bbb     C3   1476 -0.18457900  12.010000   ; qtot 56.685990
 1477          c     57    bbb     C4   1477 0.67254400  12.010000   ; qtot 57.358534
 1478         c3     57    bbb     C5   1478 -0.18457900  12.010000   ; qtot 57.173955
 1479          c     57    bbb     C6   1479 0.67254400  12.010000   ; qtot 57.846499
 1480         c3     57    bbb     C7   1480 -0.02083000  12.010000   ; qtot 57.825669
 1481         c3     57    bbb     C8   1481 -0.03328100  12.010000   ; qtot 57.792388
 1482          n     57    bbb     N2   1482 -0.33303000  14.010000   ; qtot 57.459358
 1483          o     57    bbb     O1   1483 -0.52917200  16.000000   ; qtot 56.930186
 1484          o     57    bbb     O2   1484 -0.52917200  16.000000   ; qtot 56.401014
 1485         hx     57    bbb     H1   1485 0.11563300   1.008000   ; qtot 56.516647
 1486         hx     57    bbb     H2   1486 0.11563300   1.008000   ; qtot 56.632280
 1487         hx     57    bbb     H3   1487 0.11563300   1.008000   ; qtot 56.747913
 1488         hx     57    bbb     H4   1488 0.11563300   1.008000   ; qtot 56.863546
 1489         hc     57    bbb     H5   1489 0.08347900   1.008000   ; qtot 56.947025
 1490         hc     57    bbb     H6   1490 0.08347900   1.008000   ; qtot 57.030504
 1491         hc     57    bbb     H7   1491 0.08347900   1.008000   ; qtot 57.113983
 1492         hc     57    bbb     H8   1492 0.08347900   1.008000   ; qtot 57.197462
 1493         hx     57    bbb     H9   1493 0.07988000   1.008000   ; qtot 57.277342
 1494         hx     57    bbb    H10   1494 0.07988000   1.008000   ; qtot 57.357222
 1495         h1     57    bbb    H11   1495 0.10618100   1.008000   ; qtot 57.463403
 1496         h1     57    bbb    H12   1496 0.10618100   1.008000   ; qtot 57.569584
 1497         hn     57    bbb    H13   1497 0.25916100   1.008000   ; qtot 57.828745
 1498         hn     57    bbb    H25   1498 0.17125500   1.008000   ; qtot 58.000000
; residue   58 bbb rtp bbb q 1.0
 1499         n4     58    bbb     N1   1499 -0.02747900  14.010000   ; qtot 57.972521
 1500         c3     58    bbb     C1   1500 -0.05097600  12.010000   ; qtot 57.921545
 1501         c3     58    bbb     C2   1501 -0.05097600  12.010000   ; qtot 57.870569
 1502         c3     58    bbb     C3   1502 -0.18457900  12.010000   ; qtot 57.685990
 1503          c     58    bbb     C4   1503 0.67254400  12.010000   ; qtot 58.358534
 1504         c3     58    bbb     C5   1504 -0.18457900  12.010000   ; qtot 58.173955
 1505          c     58    bbb     C6   1505 0.67254400  12.010000   ; qtot 58.846499
 1506         c3     58    bbb     C7   1506 -0.02083000  12.010000   ; qtot 58.825669
 1507         c3     58    bbb     C8   1507 -0.03328100  12.010000   ; qtot 58.792388
 1508          n     58    bbb     N2   1508 -0.33303000  14.010000   ; qtot 58.459358
 1509          o     58    bbb     O1   1509 -0.52917200  16.000000   ; qtot 57.930186
 1510          o     58    bbb     O2   1510 -0.52917200  16.000000   ; qtot 57.401014
 1511         hx     58    bbb     H1   1511 0.11563300   1.008000   ; qtot 57.516647
 1512         hx     58    bbb     H2   1512 0.11563300   1.008000   ; qtot 57.632280
 1513         hx     58    bbb     H3   1513 0.11563300   1.008000   ; qtot 57.747913
 1514         hx     58    bbb     H4   1514 0.11563300   1.008000   ; qtot 57.863546
 1515         hc     58    bbb     H5   1515 0.08347900   1.008000   ; qtot 57.947025
 1516         hc     58    bbb     H6   1516 0.08347900   1.008000   ; qtot 58.030504
 1517         hc     58    bbb     H7   1517 0.08347900   1.008000   ; qtot 58.113983
 1518         hc     58    bbb     H8   1518 0.08347900   1.008000   ; qtot 58.197462
 1519         hx     58    bbb     H9   1519 0.07988000   1.008000   ; qtot 58.277342
 1520         hx     58    bbb    H10   1520 0.07988000   1.008000   ; qtot 58.357222
 1521         h1     58    bbb    H11   1521 0.10618100   1.008000   ; qtot 58.463403
 1522         h1     58    bbb    H12   1522 0.10618100   1.008000   ; qtot 58.569584
 1523         hn     58    bbb    H13   1523 0.25916100   1.008000   ; qtot 58.828745
 1524         hn     58    bbb    H25   1524 0.17125500   1.008000   ; qtot 59.000000
; residue   59 bbb rtp bbb q 1.0
 1525         n4     59    bbb     N1   1525 -0.02747900  14.010000   ; qtot 58.972521
 1526         c3     59    bbb     C1   1526 -0.05097600  12.010000   ; qtot 58.921545
 1527         c3     59    bbb     C2   1527 -0.05097600  12.010000   ; qtot 58.870569
 1528         c3     59    bbb     C3   1528 -0.18457900  12.010000   ; qtot 58.685990
 1529          c     59    bbb     C4   1529 0.67254400  12.010000   ; qtot 59.358534
 1530         c3     59    bbb     C5   1530 -0.18457900  12.010000   ; qtot 59.173955
 1531          c     59    bbb     C6   1531 0.67254400  12.010000   ; qtot 59.846499
 1532         c3     59    bbb     C7   1532 -0.02083000  12.010000   ; qtot 59.825669
 1533         c3     59    bbb     C8   1533 -0.03328100  12.010000   ; qtot 59.792388
 1534          n     59    bbb     N2   1534 -0.33303000  14.010000   ; qtot 59.459358
 1535          o     59    bbb     O1   1535 -0.52917200  16.000000   ; qtot 58.930186
 1536          o     59    bbb     O2   1536 -0.52917200  16.000000   ; qtot 58.401014
 1537         hx     59    bbb     H1   1537 0.11563300   1.008000   ; qtot 58.516647
 1538         hx     59    bbb     H2   1538 0.11563300   1.008000   ; qtot 58.632280
 1539         hx     59    bbb     H3   1539 0.11563300   1.008000   ; qtot 58.747913
 1540         hx     59    bbb     H4   1540 0.11563300   1.008000   ; qtot 58.863546
 1541         hc     59    bbb     H5   1541 0.08347900   1.008000   ; qtot 58.947025
 1542         hc     59    bbb     H6   1542 0.08347900   1.008000   ; qtot 59.030504
 1543         hc     59    bbb     H7   1543 0.08347900   1.008000   ; qtot 59.113983
 1544         hc     59    bbb     H8   1544 0.08347900   1.008000   ; qtot 59.197462
 1545         hx     59    bbb     H9   1545 0.07988000   1.008000   ; qtot 59.277342
 1546         hx     59    bbb    H10   1546 0.07988000   1.008000   ; qtot 59.357222
 1547         h1     59    bbb    H11   1547 0.10618100   1.008000   ; qtot 59.463403
 1548         h1     59    bbb    H12   1548 0.10618100   1.008000   ; qtot 59.569584
 1549         hn     59    bbb    H13   1549 0.25916100   1.008000   ; qtot 59.828745
 1550         hn     59    bbb    H25   1550 0.17125500   1.008000   ; qtot 60.000000
; residue   60 bbb rtp bbb q 1.0
 1551         n4     60    bbb     N1   1551 -0.02747900  14.010000   ; qtot 59.972521
 1552         c3     60    bbb     C1   1552 -0.05097600  12.010000   ; qtot 59.921545
 1553         c3     60    bbb     C2   1553 -0.05097600  12.010000   ; qtot 59.870569
 1554         c3     60    bbb     C3   1554 -0.18457900  12.010000   ; qtot 59.685990
 1555          c     60    bbb     C4   1555 0.67254400  12.010000   ; qtot 60.358534
 1556         c3     60    bbb     C5   1556 -0.18457900  12.010000   ; qtot 60.173955
 1557          c     60    bbb     C6   1557 0.67254400  12.010000   ; qtot 60.846499
 1558         c3     60    bbb     C7   1558 -0.02083000  12.010000   ; qtot 60.825669
 1559         c3     60    bbb     C8   1559 -0.03328100  12.010000   ; qtot 60.792388
 1560          n     60    bbb     N2   1560 -0.33303000  14.010000   ; qtot 60.459358
 1561          o     60    bbb     O1   1561 -0.52917200  16.000000   ; qtot 59.930186
 1562          o     60    bbb     O2   1562 -0.52917200  16.000000   ; qtot 59.401014
 1563         hx     60    bbb     H1   1563 0.11563300   1.008000   ; qtot 59.516647
 1564         hx     60    bbb     H2   1564 0.11563300   1.008000   ; qtot 59.632280
 1565         hx     60    bbb     H3   1565 0.11563300   1.008000   ; qtot 59.747913
 1566         hx     60    bbb     H4   1566 0.11563300   1.008000   ; qtot 59.863546
 1567         hc     60    bbb     H5   1567 0.08347900   1.008000   ; qtot 59.947025
 1568         hc     60    bbb     H6   1568 0.08347900   1.008000   ; qtot 60.030504
 1569         hc     60    bbb     H7   1569 0.08347900   1.008000   ; qtot 60.113983
 1570         hc     60    bbb     H8   1570 0.08347900   1.008000   ; qtot 60.197462
 1571         hx     60    bbb     H9   1571 0.07988000   1.008000   ; qtot 60.277342
 1572         hx     60    bbb    H10   1572 0.07988000   1.008000   ; qtot 60.357222
 1573         h1     60    bbb    H11   1573 0.10618100   1.008000   ; qtot 60.463403
 1574         h1     60    bbb    H12   1574 0.10618100   1.008000   ; qtot 60.569584
 1575         hn     60    bbb    H13   1575 0.25916100   1.008000   ; qtot 60.828745
 1576         hn     60    bbb    H25   1576 0.17125500   1.008000   ; qtot 61.000000
; residue   61 bbb rtp bbb q 1.0
 1577         n4     61    bbb     N1   1577 -0.02747900  14.010000   ; qtot 60.972521
 1578         c3     61    bbb     C1   1578 -0.05097600  12.010000   ; qtot 60.921545
 1579         c3     61    bbb     C2   1579 -0.05097600  12.010000   ; qtot 60.870569
 1580         c3     61    bbb     C3   1580 -0.18457900  12.010000   ; qtot 60.685990
 1581          c     61    bbb     C4   1581 0.67254400  12.010000   ; qtot 61.358534
 1582         c3     61    bbb     C5   1582 -0.18457900  12.010000   ; qtot 61.173955
 1583          c     61    bbb     C6   1583 0.67254400  12.010000   ; qtot 61.846499
 1584         c3     61    bbb     C7   1584 -0.02083000  12.010000   ; qtot 61.825669
 1585         c3     61    bbb     C8   1585 -0.03328100  12.010000   ; qtot 61.792388
 1586          n     61    bbb     N2   1586 -0.33303000  14.010000   ; qtot 61.459358
 1587          o     61    bbb     O1   1587 -0.52917200  16.000000   ; qtot 60.930186
 1588          o     61    bbb     O2   1588 -0.52917200  16.000000   ; qtot 60.401014
 1589         hx     61    bbb     H1   1589 0.11563300   1.008000   ; qtot 60.516647
 1590         hx     61    bbb     H2   1590 0.11563300   1.008000   ; qtot 60.632280
 1591         hx     61    bbb     H3   1591 0.11563300   1.008000   ; qtot 60.747913
 1592         hx     61    bbb     H4   1592 0.11563300   1.008000   ; qtot 60.863546
 1593         hc     61    bbb     H5   1593 0.08347900   1.008000   ; qtot 60.947025
 1594         hc     61    bbb     H6   1594 0.08347900   1.008000   ; qtot 61.030504
 1595         hc     61    bbb     H7   1595 0.08347900   1.008000   ; qtot 61.113983
 1596         hc     61    bbb     H8   1596 0.08347900   1.008000   ; qtot 61.197462
 1597         hx     61    bbb     H9   1597 0.07988000   1.008000   ; qtot 61.277342
 1598         hx     61    bbb    H10   1598 0.07988000   1.008000   ; qtot 61.357222
 1599         h1     61    bbb    H11   1599 0.10618100   1.008000   ; qtot 61.463403
 1600         h1     61    bbb    H12   1600 0.10618100   1.008000   ; qtot 61.569584
 1601         hn     61    bbb    H13   1601 0.25916100   1.008000   ; qtot 61.828745
 1602         hn     61    bbb    H25   1602 0.17125500   1.008000   ; qtot 62.000000
; residue   62 bbb rtp bbb q 1.0
 1603         n4     62    bbb     N1   1603 -0.02747900  14.010000   ; qtot 61.972521
 1604         c3     62    bbb     C1   1604 -0.05097600  12.010000   ; qtot 61.921545
 1605         c3     62    bbb     C2   1605 -0.05097600  12.010000   ; qtot 61.870569
 1606         c3     62    bbb     C3   1606 -0.18457900  12.010000   ; qtot 61.685990
 1607          c     62    bbb     C4   1607 0.67254400  12.010000   ; qtot 62.358534
 1608         c3     62    bbb     C5   1608 -0.18457900  12.010000   ; qtot 62.173955
 1609          c     62    bbb     C6   1609 0.67254400  12.010000   ; qtot 62.846499
 1610         c3     62    bbb     C7   1610 -0.02083000  12.010000   ; qtot 62.825669
 1611         c3     62    bbb     C8   1611 -0.03328100  12.010000   ; qtot 62.792388
 1612          n     62    bbb     N2   1612 -0.33303000  14.010000   ; qtot 62.459358
 1613          o     62    bbb     O1   1613 -0.52917200  16.000000   ; qtot 61.930186
 1614          o     62    bbb     O2   1614 -0.52917200  16.000000   ; qtot 61.401014
 1615         hx     62    bbb     H1   1615 0.11563300   1.008000   ; qtot 61.516647
 1616         hx     62    bbb     H2   1616 0.11563300   1.008000   ; qtot 61.632280
 1617         hx     62    bbb     H3   1617 0.11563300   1.008000   ; qtot 61.747913
 1618         hx     62    bbb     H4   1618 0.11563300   1.008000   ; qtot 61.863546
 1619         hc     62    bbb     H5   1619 0.08347900   1.008000   ; qtot 61.947025
 1620         hc     62    bbb     H6   1620 0.08347900   1.008000   ; qtot 62.030504
 1621         hc     62    bbb     H7   1621 0.08347900   1.008000   ; qtot 62.113983
 1622         hc     62    bbb     H8   1622 0.08347900   1.008000   ; qtot 62.197462
 1623         hx     62    bbb     H9   1623 0.07988000   1.008000   ; qtot 62.277342
 1624         hx     62    bbb    H10   1624 0.07988000   1.008000   ; qtot 62.357222
 1625         h1     62    bbb    H11   1625 0.10618100   1.008000   ; qtot 62.463403
 1626         h1     62    bbb    H12   1626 0.10618100   1.008000   ; qtot 62.569584
 1627         hn     62    bbb    H13   1627 0.25916100   1.008000   ; qtot 62.828745
 1628         hn     62    bbb    H25   1628 0.17125500   1.008000   ; qtot 63.000000
; residue   63 bbb rtp bbb q 1.0
 1629         n4     63    bbb     N1   1629 -0.02747900  14.010000   ; qtot 62.972521
 1630         c3     63    bbb     C1   1630 -0.05097600  12.010000   ; qtot 62.921545
 1631         c3     63    bbb     C2   1631 -0.05097600  12.010000   ; qtot 62.870569
 1632         c3     63    bbb     C3   1632 -0.18457900  12.010000   ; qtot 62.685990
 1633          c     63    bbb     C4   1633 0.67254400  12.010000   ; qtot 63.358534
 1634         c3     63    bbb     C5   1634 -0.18457900  12.010000   ; qtot 63.173955
 1635          c     63    bbb     C6   1635 0.67254400  12.010000   ; qtot 63.846499
 1636         c3     63    bbb     C7   1636 -0.02083000  12.010000   ; qtot 63.825669
 1637         c3     63    bbb     C8   1637 -0.03328100  12.010000   ; qtot 63.792388
 1638          n     63    bbb     N2   1638 -0.33303000  14.010000   ; qtot 63.459358
 1639          o     63    bbb     O1   1639 -0.52917200  16.000000   ; qtot 62.930186
 1640          o     63    bbb     O2   1640 -0.52917200  16.000000   ; qtot 62.401014
 1641         hx     63    bbb     H1   1641 0.11563300   1.008000   ; qtot 62.516647
 1642         hx     63    bbb     H2   1642 0.11563300   1.008000   ; qtot 62.632280
 1643         hx     63    bbb     H3   1643 0.11563300   1.008000   ; qtot 62.747913
 1644         hx     63    bbb     H4   1644 0.11563300   1.008000   ; qtot 62.863546
 1645         hc     63    bbb     H5   1645 0.08347900   1.008000   ; qtot 62.947025
 1646         hc     63    bbb     H6   1646 0.08347900   1.008000   ; qtot 63.030504
 1647         hc     63    bbb     H7   1647 0.08347900   1.008000   ; qtot 63.113983
 1648         hc     63    bbb     H8   1648 0.08347900   1.008000   ; qtot 63.197462
 1649         hx     63    bbb     H9   1649 0.07988000   1.008000   ; qtot 63.277342
 1650         hx     63    bbb    H10   1650 0.07988000   1.008000   ; qtot 63.357222
 1651         h1     63    bbb    H11   1651 0.10618100   1.008000   ; qtot 63.463403
 1652         h1     63    bbb    H12   1652 0.10618100   1.008000   ; qtot 63.569584
 1653         hn     63    bbb    H13   1653 0.25916100   1.008000   ; qtot 63.828745
 1654         hn     63    bbb    H25   1654 0.17125500   1.008000   ; qtot 64.000000
; residue   64 bbb rtp bbb q 1.0
 1655         n4     64    bbb     N1   1655 -0.02747900  14.010000   ; qtot 63.972521
 1656         c3     64    bbb     C1   1656 -0.05097600  12.010000   ; qtot 63.921545
 1657         c3     64    bbb     C2   1657 -0.05097600  12.010000   ; qtot 63.870569
 1658         c3     64    bbb     C3   1658 -0.18457900  12.010000   ; qtot 63.685990
 1659          c     64    bbb     C4   1659 0.67254400  12.010000   ; qtot 64.358534
 1660         c3     64    bbb     C5   1660 -0.18457900  12.010000   ; qtot 64.173955
 1661          c     64    bbb     C6   1661 0.67254400  12.010000   ; qtot 64.846499
 1662         c3     64    bbb     C7   1662 -0.02083000  12.010000   ; qtot 64.825669
 1663         c3     64    bbb     C8   1663 -0.03328100  12.010000   ; qtot 64.792388
 1664          n     64    bbb     N2   1664 -0.33303000  14.010000   ; qtot 64.459358
 1665          o     64    bbb     O1   1665 -0.52917200  16.000000   ; qtot 63.930186
 1666          o     64    bbb     O2   1666 -0.52917200  16.000000   ; qtot 63.401014
 1667         hx     64    bbb     H1   1667 0.11563300   1.008000   ; qtot 63.516647
 1668         hx     64    bbb     H2   1668 0.11563300   1.008000   ; qtot 63.632280
 1669         hx     64    bbb     H3   1669 0.11563300   1.008000   ; qtot 63.747913
 1670         hx     64    bbb     H4   1670 0.11563300   1.008000   ; qtot 63.863546
 1671         hc     64    bbb     H5   1671 0.08347900   1.008000   ; qtot 63.947025
 1672         hc     64    bbb     H6   1672 0.08347900   1.008000   ; qtot 64.030504
 1673         hc     64    bbb     H7   1673 0.08347900   1.008000   ; qtot 64.113983
 1674         hc     64    bbb     H8   1674 0.08347900   1.008000   ; qtot 64.197462
 1675         hx     64    bbb     H9   1675 0.07988000   1.008000   ; qtot 64.277342
 1676         hx     64    bbb    H10   1676 0.07988000   1.008000   ; qtot 64.357222
 1677         h1     64    bbb    H11   1677 0.10618100   1.008000   ; qtot 64.463403
 1678         h1     64    bbb    H12   1678 0.10618100   1.008000   ; qtot 64.569584
 1679         hn     64    bbb    H13   1679 0.25916100   1.008000   ; qtot 64.828745
 1680         hn     64    bbb    H25   1680 0.17125500   1.008000   ; qtot 65.000000
; residue   65 bbb rtp bbb q 1.0
 1681         n4     65    bbb     N1   1681 -0.02747900  14.010000   ; qtot 64.972521
 1682         c3     65    bbb     C1   1682 -0.05097600  12.010000   ; qtot 64.921545
 1683         c3     65    bbb     C2   1683 -0.05097600  12.010000   ; qtot 64.870569
 1684         c3     65    bbb     C3   1684 -0.18457900  12.010000   ; qtot 64.685990
 1685          c     65    bbb     C4   1685 0.67254400  12.010000   ; qtot 65.358534
 1686         c3     65    bbb     C5   1686 -0.18457900  12.010000   ; qtot 65.173955
 1687          c     65    bbb     C6   1687 0.67254400  12.010000   ; qtot 65.846499
 1688         c3     65    bbb     C7   1688 -0.02083000  12.010000   ; qtot 65.825669
 1689         c3     65    bbb     C8   1689 -0.03328100  12.010000   ; qtot 65.792388
 1690          n     65    bbb     N2   1690 -0.33303000  14.010000   ; qtot 65.459358
 1691          o     65    bbb     O1   1691 -0.52917200  16.000000   ; qtot 64.930186
 1692          o     65    bbb     O2   1692 -0.52917200  16.000000   ; qtot 64.401014
 1693         hx     65    bbb     H1   1693 0.11563300   1.008000   ; qtot 64.516647
 1694         hx     65    bbb     H2   1694 0.11563300   1.008000   ; qtot 64.632280
 1695         hx     65    bbb     H3   1695 0.11563300   1.008000   ; qtot 64.747913
 1696         hx     65    bbb     H4   1696 0.11563300   1.008000   ; qtot 64.863546
 1697         hc     65    bbb     H5   1697 0.08347900   1.008000   ; qtot 64.947025
 1698         hc     65    bbb     H6   1698 0.08347900   1.008000   ; qtot 65.030504
 1699         hc     65    bbb     H7   1699 0.08347900   1.008000   ; qtot 65.113983
 1700         hc     65    bbb     H8   1700 0.08347900   1.008000   ; qtot 65.197462
 1701         hx     65    bbb     H9   1701 0.07988000   1.008000   ; qtot 65.277342
 1702         hx     65    bbb    H10   1702 0.07988000   1.008000   ; qtot 65.357222
 1703         h1     65    bbb    H11   1703 0.10618100   1.008000   ; qtot 65.463403
 1704         h1     65    bbb    H12   1704 0.10618100   1.008000   ; qtot 65.569584
 1705         hn     65    bbb    H13   1705 0.25916100   1.008000   ; qtot 65.828745
 1706         hn     65    bbb    H25   1706 0.17125500   1.008000   ; qtot 66.000000
; residue   66 bbb rtp bbb q 1.0
 1707         n4     66    bbb     N1   1707 -0.02747900  14.010000   ; qtot 65.972521
 1708         c3     66    bbb     C1   1708 -0.05097600  12.010000   ; qtot 65.921545
 1709         c3     66    bbb     C2   1709 -0.05097600  12.010000   ; qtot 65.870569
 1710         c3     66    bbb     C3   1710 -0.18457900  12.010000   ; qtot 65.685990
 1711          c     66    bbb     C4   1711 0.67254400  12.010000   ; qtot 66.358534
 1712         c3     66    bbb     C5   1712 -0.18457900  12.010000   ; qtot 66.173955
 1713          c     66    bbb     C6   1713 0.67254400  12.010000   ; qtot 66.846499
 1714         c3     66    bbb     C7   1714 -0.02083000  12.010000   ; qtot 66.825669
 1715         c3     66    bbb     C8   1715 -0.03328100  12.010000   ; qtot 66.792388
 1716          n     66    bbb     N2   1716 -0.33303000  14.010000   ; qtot 66.459358
 1717          o     66    bbb     O1   1717 -0.52917200  16.000000   ; qtot 65.930186
 1718          o     66    bbb     O2   1718 -0.52917200  16.000000   ; qtot 65.401014
 1719         hx     66    bbb     H1   1719 0.11563300   1.008000   ; qtot 65.516647
 1720         hx     66    bbb     H2   1720 0.11563300   1.008000   ; qtot 65.632280
 1721         hx     66    bbb     H3   1721 0.11563300   1.008000   ; qtot 65.747913
 1722         hx     66    bbb     H4   1722 0.11563300   1.008000   ; qtot 65.863546
 1723         hc     66    bbb     H5   1723 0.08347900   1.008000   ; qtot 65.947025
 1724         hc     66    bbb     H6   1724 0.08347900   1.008000   ; qtot 66.030504
 1725         hc     66    bbb     H7   1725 0.08347900   1.008000   ; qtot 66.113983
 1726         hc     66    bbb     H8   1726 0.08347900   1.008000   ; qtot 66.197462
 1727         hx     66    bbb     H9   1727 0.07988000   1.008000   ; qtot 66.277342
 1728         hx     66    bbb    H10   1728 0.07988000   1.008000   ; qtot 66.357222
 1729         h1     66    bbb    H11   1729 0.10618100   1.008000   ; qtot 66.463403
 1730         h1     66    bbb    H12   1730 0.10618100   1.008000   ; qtot 66.569584
 1731         hn     66    bbb    H13   1731 0.25916100   1.008000   ; qtot 66.828745
 1732         hn     66    bbb    H25   1732 0.17125500   1.008000   ; qtot 67.000000
; residue   67 bbb rtp bbb q 1.0
 1733         n4     67    bbb     N1   1733 -0.02747900  14.010000   ; qtot 66.972521
 1734         c3     67    bbb     C1   1734 -0.05097600  12.010000   ; qtot 66.921545
 1735         c3     67    bbb     C2   1735 -0.05097600  12.010000   ; qtot 66.870569
 1736         c3     67    bbb     C3   1736 -0.18457900  12.010000   ; qtot 66.685990
 1737          c     67    bbb     C4   1737 0.67254400  12.010000   ; qtot 67.358534
 1738         c3     67    bbb     C5   1738 -0.18457900  12.010000   ; qtot 67.173955
 1739          c     67    bbb     C6   1739 0.67254400  12.010000   ; qtot 67.846499
 1740         c3     67    bbb     C7   1740 -0.02083000  12.010000   ; qtot 67.825669
 1741         c3     67    bbb     C8   1741 -0.03328100  12.010000   ; qtot 67.792388
 1742          n     67    bbb     N2   1742 -0.33303000  14.010000   ; qtot 67.459358
 1743          o     67    bbb     O1   1743 -0.52917200  16.000000   ; qtot 66.930186
 1744          o     67    bbb     O2   1744 -0.52917200  16.000000   ; qtot 66.401014
 1745         hx     67    bbb     H1   1745 0.11563300   1.008000   ; qtot 66.516647
 1746         hx     67    bbb     H2   1746 0.11563300   1.008000   ; qtot 66.632280
 1747         hx     67    bbb     H3   1747 0.11563300   1.008000   ; qtot 66.747913
 1748         hx     67    bbb     H4   1748 0.11563300   1.008000   ; qtot 66.863546
 1749         hc     67    bbb     H5   1749 0.08347900   1.008000   ; qtot 66.947025
 1750         hc     67    bbb     H6   1750 0.08347900   1.008000   ; qtot 67.030504
 1751         hc     67    bbb     H7   1751 0.08347900   1.008000   ; qtot 67.113983
 1752         hc     67    bbb     H8   1752 0.08347900   1.008000   ; qtot 67.197462
 1753         hx     67    bbb     H9   1753 0.07988000   1.008000   ; qtot 67.277342
 1754         hx     67    bbb    H10   1754 0.07988000   1.008000   ; qtot 67.357222
 1755         h1     67    bbb    H11   1755 0.10618100   1.008000   ; qtot 67.463403
 1756         h1     67    bbb    H12   1756 0.10618100   1.008000   ; qtot 67.569584
 1757         hn     67    bbb    H13   1757 0.25916100   1.008000   ; qtot 67.828745
 1758         hn     67    bbb    H25   1758 0.17125500   1.008000   ; qtot 68.000000
; residue   68 bbb rtp bbb q 1.0
 1759         n4     68    bbb     N1   1759 -0.02747900  14.010000   ; qtot 67.972521
 1760         c3     68    bbb     C1   1760 -0.05097600  12.010000   ; qtot 67.921545
 1761         c3     68    bbb     C2   1761 -0.05097600  12.010000   ; qtot 67.870569
 1762         c3     68    bbb     C3   1762 -0.18457900  12.010000   ; qtot 67.685990
 1763          c     68    bbb     C4   1763 0.67254400  12.010000   ; qtot 68.358534
 1764         c3     68    bbb     C5   1764 -0.18457900  12.010000   ; qtot 68.173955
 1765          c     68    bbb     C6   1765 0.67254400  12.010000   ; qtot 68.846499
 1766         c3     68    bbb     C7   1766 -0.02083000  12.010000   ; qtot 68.825669
 1767         c3     68    bbb     C8   1767 -0.03328100  12.010000   ; qtot 68.792388
 1768          n     68    bbb     N2   1768 -0.33303000  14.010000   ; qtot 68.459358
 1769          o     68    bbb     O1   1769 -0.52917200  16.000000   ; qtot 67.930186
 1770          o     68    bbb     O2   1770 -0.52917200  16.000000   ; qtot 67.401014
 1771         hx     68    bbb     H1   1771 0.11563300   1.008000   ; qtot 67.516647
 1772         hx     68    bbb     H2   1772 0.11563300   1.008000   ; qtot 67.632280
 1773         hx     68    bbb     H3   1773 0.11563300   1.008000   ; qtot 67.747913
 1774         hx     68    bbb     H4   1774 0.11563300   1.008000   ; qtot 67.863546
 1775         hc     68    bbb     H5   1775 0.08347900   1.008000   ; qtot 67.947025
 1776         hc     68    bbb     H6   1776 0.08347900   1.008000   ; qtot 68.030504
 1777         hc     68    bbb     H7   1777 0.08347900   1.008000   ; qtot 68.113983
 1778         hc     68    bbb     H8   1778 0.08347900   1.008000   ; qtot 68.197462
 1779         hx     68    bbb     H9   1779 0.07988000   1.008000   ; qtot 68.277342
 1780         hx     68    bbb    H10   1780 0.07988000   1.008000   ; qtot 68.357222
 1781         h1     68    bbb    H11   1781 0.10618100   1.008000   ; qtot 68.463403
 1782         h1     68    bbb    H12   1782 0.10618100   1.008000   ; qtot 68.569584
 1783         hn     68    bbb    H13   1783 0.25916100   1.008000   ; qtot 68.828745
 1784         hn     68    bbb    H25   1784 0.17125500   1.008000   ; qtot 69.000000
; residue   69 bbb rtp bbb q 1.0
 1785         n4     69    bbb     N1   1785 -0.02747900  14.010000   ; qtot 68.972521
 1786         c3     69    bbb     C1   1786 -0.05097600  12.010000   ; qtot 68.921545
 1787         c3     69    bbb     C2   1787 -0.05097600  12.010000   ; qtot 68.870569
 1788         c3     69    bbb     C3   1788 -0.18457900  12.010000   ; qtot 68.685990
 1789          c     69    bbb     C4   1789 0.67254400  12.010000   ; qtot 69.358534
 1790         c3     69    bbb     C5   1790 -0.18457900  12.010000   ; qtot 69.173955
 1791          c     69    bbb     C6   1791 0.67254400  12.010000   ; qtot 69.846499
 1792         c3     69    bbb     C7   1792 -0.02083000  12.010000   ; qtot 69.825669
 1793         c3     69    bbb     C8   1793 -0.03328100  12.010000   ; qtot 69.792388
 1794          n     69    bbb     N2   1794 -0.33303000  14.010000   ; qtot 69.459358
 1795          o     69    bbb     O1   1795 -0.52917200  16.000000   ; qtot 68.930186
 1796          o     69    bbb     O2   1796 -0.52917200  16.000000   ; qtot 68.401014
 1797         hx     69    bbb     H1   1797 0.11563300   1.008000   ; qtot 68.516647
 1798         hx     69    bbb     H2   1798 0.11563300   1.008000   ; qtot 68.632280
 1799         hx     69    bbb     H3   1799 0.11563300   1.008000   ; qtot 68.747913
 1800         hx     69    bbb     H4   1800 0.11563300   1.008000   ; qtot 68.863546
 1801         hc     69    bbb     H5   1801 0.08347900   1.008000   ; qtot 68.947025
 1802         hc     69    bbb     H6   1802 0.08347900   1.008000   ; qtot 69.030504
 1803         hc     69    bbb     H7   1803 0.08347900   1.008000   ; qtot 69.113983
 1804         hc     69    bbb     H8   1804 0.08347900   1.008000   ; qtot 69.197462
 1805         hx     69    bbb     H9   1805 0.07988000   1.008000   ; qtot 69.277342
 1806         hx     69    bbb    H10   1806 0.07988000   1.008000   ; qtot 69.357222
 1807         h1     69    bbb    H11   1807 0.10618100   1.008000   ; qtot 69.463403
 1808         h1     69    bbb    H12   1808 0.10618100   1.008000   ; qtot 69.569584
 1809         hn     69    bbb    H13   1809 0.25916100   1.008000   ; qtot 69.828745
 1810         hn     69    bbb    H25   1810 0.17125500   1.008000   ; qtot 70.000000
; residue   70 bbb rtp bbb q 1.0
 1811         n4     70    bbb     N1   1811 -0.02747900  14.010000   ; qtot 69.972521
 1812         c3     70    bbb     C1   1812 -0.05097600  12.010000   ; qtot 69.921545
 1813         c3     70    bbb     C2   1813 -0.05097600  12.010000   ; qtot 69.870569
 1814         c3     70    bbb     C3   1814 -0.18457900  12.010000   ; qtot 69.685990
 1815          c     70    bbb     C4   1815 0.67254400  12.010000   ; qtot 70.358534
 1816         c3     70    bbb     C5   1816 -0.18457900  12.010000   ; qtot 70.173955
 1817          c     70    bbb     C6   1817 0.67254400  12.010000   ; qtot 70.846499
 1818         c3     70    bbb     C7   1818 -0.02083000  12.010000   ; qtot 70.825669
 1819         c3     70    bbb     C8   1819 -0.03328100  12.010000   ; qtot 70.792388
 1820          n     70    bbb     N2   1820 -0.33303000  14.010000   ; qtot 70.459358
 1821          o     70    bbb     O1   1821 -0.52917200  16.000000   ; qtot 69.930186
 1822          o     70    bbb     O2   1822 -0.52917200  16.000000   ; qtot 69.401014
 1823         hx     70    bbb     H1   1823 0.11563300   1.008000   ; qtot 69.516647
 1824         hx     70    bbb     H2   1824 0.11563300   1.008000   ; qtot 69.632280
 1825         hx     70    bbb     H3   1825 0.11563300   1.008000   ; qtot 69.747913
 1826         hx     70    bbb     H4   1826 0.11563300   1.008000   ; qtot 69.863546
 1827         hc     70    bbb     H5   1827 0.08347900   1.008000   ; qtot 69.947025
 1828         hc     70    bbb     H6   1828 0.08347900   1.008000   ; qtot 70.030504
 1829         hc     70    bbb     H7   1829 0.08347900   1.008000   ; qtot 70.113983
 1830         hc     70    bbb     H8   1830 0.08347900   1.008000   ; qtot 70.197462
 1831         hx     70    bbb     H9   1831 0.07988000   1.008000   ; qtot 70.277342
 1832         hx     70    bbb    H10   1832 0.07988000   1.008000   ; qtot 70.357222
 1833         h1     70    bbb    H11   1833 0.10618100   1.008000   ; qtot 70.463403
 1834         h1     70    bbb    H12   1834 0.10618100   1.008000   ; qtot 70.569584
 1835         hn     70    bbb    H13   1835 0.25916100   1.008000   ; qtot 70.828745
 1836         hn     70    bbb    H25   1836 0.17125500   1.008000   ; qtot 71.000000
; residue   71 bbb rtp bbb q 1.0
 1837         n4     71    bbb     N1   1837 -0.02747900  14.010000   ; qtot 70.972521
 1838         c3     71    bbb     C1   1838 -0.05097600  12.010000   ; qtot 70.921545
 1839         c3     71    bbb     C2   1839 -0.05097600  12.010000   ; qtot 70.870569
 1840         c3     71    bbb     C3   1840 -0.18457900  12.010000   ; qtot 70.685990
 1841          c     71    bbb     C4   1841 0.67254400  12.010000   ; qtot 71.358534
 1842         c3     71    bbb     C5   1842 -0.18457900  12.010000   ; qtot 71.173955
 1843          c     71    bbb     C6   1843 0.67254400  12.010000   ; qtot 71.846499
 1844         c3     71    bbb     C7   1844 -0.02083000  12.010000   ; qtot 71.825669
 1845         c3     71    bbb     C8   1845 -0.03328100  12.010000   ; qtot 71.792388
 1846          n     71    bbb     N2   1846 -0.33303000  14.010000   ; qtot 71.459358
 1847          o     71    bbb     O1   1847 -0.52917200  16.000000   ; qtot 70.930186
 1848          o     71    bbb     O2   1848 -0.52917200  16.000000   ; qtot 70.401014
 1849         hx     71    bbb     H1   1849 0.11563300   1.008000   ; qtot 70.516647
 1850         hx     71    bbb     H2   1850 0.11563300   1.008000   ; qtot 70.632280
 1851         hx     71    bbb     H3   1851 0.11563300   1.008000   ; qtot 70.747913
 1852         hx     71    bbb     H4   1852 0.11563300   1.008000   ; qtot 70.863546
 1853         hc     71    bbb     H5   1853 0.08347900   1.008000   ; qtot 70.947025
 1854         hc     71    bbb     H6   1854 0.08347900   1.008000   ; qtot 71.030504
 1855         hc     71    bbb     H7   1855 0.08347900   1.008000   ; qtot 71.113983
 1856         hc     71    bbb     H8   1856 0.08347900   1.008000   ; qtot 71.197462
 1857         hx     71    bbb     H9   1857 0.07988000   1.008000   ; qtot 71.277342
 1858         hx     71    bbb    H10   1858 0.07988000   1.008000   ; qtot 71.357222
 1859         h1     71    bbb    H11   1859 0.10618100   1.008000   ; qtot 71.463403
 1860         h1     71    bbb    H12   1860 0.10618100   1.008000   ; qtot 71.569584
 1861         hn     71    bbb    H13   1861 0.25916100   1.008000   ; qtot 71.828745
 1862         hn     71    bbb    H25   1862 0.17125500   1.008000   ; qtot 72.000000
; residue   72 bbb rtp bbb q 1.0
 1863         n4     72    bbb     N1   1863 -0.02747900  14.010000   ; qtot 71.972521
 1864         c3     72    bbb     C1   1864 -0.05097600  12.010000   ; qtot 71.921545
 1865         c3     72    bbb     C2   1865 -0.05097600  12.010000   ; qtot 71.870569
 1866         c3     72    bbb     C3   1866 -0.18457900  12.010000   ; qtot 71.685990
 1867          c     72    bbb     C4   1867 0.67254400  12.010000   ; qtot 72.358534
 1868         c3     72    bbb     C5   1868 -0.18457900  12.010000   ; qtot 72.173955
 1869          c     72    bbb     C6   1869 0.67254400  12.010000   ; qtot 72.846499
 1870         c3     72    bbb     C7   1870 -0.02083000  12.010000   ; qtot 72.825669
 1871         c3     72    bbb     C8   1871 -0.03328100  12.010000   ; qtot 72.792388
 1872          n     72    bbb     N2   1872 -0.33303000  14.010000   ; qtot 72.459358
 1873          o     72    bbb     O1   1873 -0.52917200  16.000000   ; qtot 71.930186
 1874          o     72    bbb     O2   1874 -0.52917200  16.000000   ; qtot 71.401014
 1875         hx     72    bbb     H1   1875 0.11563300   1.008000   ; qtot 71.516647
 1876         hx     72    bbb     H2   1876 0.11563300   1.008000   ; qtot 71.632280
 1877         hx     72    bbb     H3   1877 0.11563300   1.008000   ; qtot 71.747913
 1878         hx     72    bbb     H4   1878 0.11563300   1.008000   ; qtot 71.863546
 1879         hc     72    bbb     H5   1879 0.08347900   1.008000   ; qtot 71.947025
 1880         hc     72    bbb     H6   1880 0.08347900   1.008000   ; qtot 72.030504
 1881         hc     72    bbb     H7   1881 0.08347900   1.008000   ; qtot 72.113983
 1882         hc     72    bbb     H8   1882 0.08347900   1.008000   ; qtot 72.197462
 1883         hx     72    bbb     H9   1883 0.07988000   1.008000   ; qtot 72.277342
 1884         hx     72    bbb    H10   1884 0.07988000   1.008000   ; qtot 72.357222
 1885         h1     72    bbb    H11   1885 0.10618100   1.008000   ; qtot 72.463403
 1886         h1     72    bbb    H12   1886 0.10618100   1.008000   ; qtot 72.569584
 1887         hn     72    bbb    H13   1887 0.25916100   1.008000   ; qtot 72.828745
 1888         hn     72    bbb    H25   1888 0.17125500   1.008000   ; qtot 73.000000
; residue   73 bbb rtp bbb q 1.0
 1889         n4     73    bbb     N1   1889 -0.02747900  14.010000   ; qtot 72.972521
 1890         c3     73    bbb     C1   1890 -0.05097600  12.010000   ; qtot 72.921545
 1891         c3     73    bbb     C2   1891 -0.05097600  12.010000   ; qtot 72.870569
 1892         c3     73    bbb     C3   1892 -0.18457900  12.010000   ; qtot 72.685990
 1893          c     73    bbb     C4   1893 0.67254400  12.010000   ; qtot 73.358534
 1894         c3     73    bbb     C5   1894 -0.18457900  12.010000   ; qtot 73.173955
 1895          c     73    bbb     C6   1895 0.67254400  12.010000   ; qtot 73.846499
 1896         c3     73    bbb     C7   1896 -0.02083000  12.010000   ; qtot 73.825669
 1897         c3     73    bbb     C8   1897 -0.03328100  12.010000   ; qtot 73.792388
 1898          n     73    bbb     N2   1898 -0.33303000  14.010000   ; qtot 73.459358
 1899          o     73    bbb     O1   1899 -0.52917200  16.000000   ; qtot 72.930186
 1900          o     73    bbb     O2   1900 -0.52917200  16.000000   ; qtot 72.401014
 1901         hx     73    bbb     H1   1901 0.11563300   1.008000   ; qtot 72.516647
 1902         hx     73    bbb     H2   1902 0.11563300   1.008000   ; qtot 72.632280
 1903         hx     73    bbb     H3   1903 0.11563300   1.008000   ; qtot 72.747913
 1904         hx     73    bbb     H4   1904 0.11563300   1.008000   ; qtot 72.863546
 1905         hc     73    bbb     H5   1905 0.08347900   1.008000   ; qtot 72.947025
 1906         hc     73    bbb     H6   1906 0.08347900   1.008000   ; qtot 73.030504
 1907         hc     73    bbb     H7   1907 0.08347900   1.008000   ; qtot 73.113983
 1908         hc     73    bbb     H8   1908 0.08347900   1.008000   ; qtot 73.197462
 1909         hx     73    bbb     H9   1909 0.07988000   1.008000   ; qtot 73.277342
 1910         hx     73    bbb    H10   1910 0.07988000   1.008000   ; qtot 73.357222
 1911         h1     73    bbb    H11   1911 0.10618100   1.008000   ; qtot 73.463403
 1912         h1     73    bbb    H12   1912 0.10618100   1.008000   ; qtot 73.569584
 1913         hn     73    bbb    H13   1913 0.25916100   1.008000   ; qtot 73.828745
 1914         hn     73    bbb    H25   1914 0.17125500   1.008000   ; qtot 74.000000
; residue   74 bbb rtp bbb q 1.0
 1915         n4     74    bbb     N1   1915 -0.02747900  14.010000   ; qtot 73.972521
 1916         c3     74    bbb     C1   1916 -0.05097600  12.010000   ; qtot 73.921545
 1917         c3     74    bbb     C2   1917 -0.05097600  12.010000   ; qtot 73.870569
 1918         c3     74    bbb     C3   1918 -0.18457900  12.010000   ; qtot 73.685990
 1919          c     74    bbb     C4   1919 0.67254400  12.010000   ; qtot 74.358534
 1920         c3     74    bbb     C5   1920 -0.18457900  12.010000   ; qtot 74.173955
 1921          c     74    bbb     C6   1921 0.67254400  12.010000   ; qtot 74.846499
 1922         c3     74    bbb     C7   1922 -0.02083000  12.010000   ; qtot 74.825669
 1923         c3     74    bbb     C8   1923 -0.03328100  12.010000   ; qtot 74.792388
 1924          n     74    bbb     N2   1924 -0.33303000  14.010000   ; qtot 74.459358
 1925          o     74    bbb     O1   1925 -0.52917200  16.000000   ; qtot 73.930186
 1926          o     74    bbb     O2   1926 -0.52917200  16.000000   ; qtot 73.401014
 1927         hx     74    bbb     H1   1927 0.11563300   1.008000   ; qtot 73.516647
 1928         hx     74    bbb     H2   1928 0.11563300   1.008000   ; qtot 73.632280
 1929         hx     74    bbb     H3   1929 0.11563300   1.008000   ; qtot 73.747913
 1930         hx     74    bbb     H4   1930 0.11563300   1.008000   ; qtot 73.863546
 1931         hc     74    bbb     H5   1931 0.08347900   1.008000   ; qtot 73.947025
 1932         hc     74    bbb     H6   1932 0.08347900   1.008000   ; qtot 74.030504
 1933         hc     74    bbb     H7   1933 0.08347900   1.008000   ; qtot 74.113983
 1934         hc     74    bbb     H8   1934 0.08347900   1.008000   ; qtot 74.197462
 1935         hx     74    bbb     H9   1935 0.07988000   1.008000   ; qtot 74.277342
 1936         hx     74    bbb    H10   1936 0.07988000   1.008000   ; qtot 74.357222
 1937         h1     74    bbb    H11   1937 0.10618100   1.008000   ; qtot 74.463403
 1938         h1     74    bbb    H12   1938 0.10618100   1.008000   ; qtot 74.569584
 1939         hn     74    bbb    H13   1939 0.25916100   1.008000   ; qtot 74.828745
 1940         hn     74    bbb    H25   1940 0.17125500   1.008000   ; qtot 75.000000
; residue   75 bbb rtp bbb q 1.0
 1941         n4     75    bbb     N1   1941 -0.02747900  14.010000   ; qtot 74.972521
 1942         c3     75    bbb     C1   1942 -0.05097600  12.010000   ; qtot 74.921545
 1943         c3     75    bbb     C2   1943 -0.05097600  12.010000   ; qtot 74.870569
 1944         c3     75    bbb     C3   1944 -0.18457900  12.010000   ; qtot 74.685990
 1945          c     75    bbb     C4   1945 0.67254400  12.010000   ; qtot 75.358534
 1946         c3     75    bbb     C5   1946 -0.18457900  12.010000   ; qtot 75.173955
 1947          c     75    bbb     C6   1947 0.67254400  12.010000   ; qtot 75.846499
 1948         c3     75    bbb     C7   1948 -0.02083000  12.010000   ; qtot 75.825669
 1949         c3     75    bbb     C8   1949 -0.03328100  12.010000   ; qtot 75.792388
 1950          n     75    bbb     N2   1950 -0.33303000  14.010000   ; qtot 75.459358
 1951          o     75    bbb     O1   1951 -0.52917200  16.000000   ; qtot 74.930186
 1952          o     75    bbb     O2   1952 -0.52917200  16.000000   ; qtot 74.401014
 1953         hx     75    bbb     H1   1953 0.11563300   1.008000   ; qtot 74.516647
 1954         hx     75    bbb     H2   1954 0.11563300   1.008000   ; qtot 74.632280
 1955         hx     75    bbb     H3   1955 0.11563300   1.008000   ; qtot 74.747913
 1956         hx     75    bbb     H4   1956 0.11563300   1.008000   ; qtot 74.863546
 1957         hc     75    bbb     H5   1957 0.08347900   1.008000   ; qtot 74.947025
 1958         hc     75    bbb     H6   1958 0.08347900   1.008000   ; qtot 75.030504
 1959         hc     75    bbb     H7   1959 0.08347900   1.008000   ; qtot 75.113983
 1960         hc     75    bbb     H8   1960 0.08347900   1.008000   ; qtot 75.197462
 1961         hx     75    bbb     H9   1961 0.07988000   1.008000   ; qtot 75.277342
 1962         hx     75    bbb    H10   1962 0.07988000   1.008000   ; qtot 75.357222
 1963         h1     75    bbb    H11   1963 0.10618100   1.008000   ; qtot 75.463403
 1964         h1     75    bbb    H12   1964 0.10618100   1.008000   ; qtot 75.569584
 1965         hn     75    bbb    H13   1965 0.25916100   1.008000   ; qtot 75.828745
 1966         hn     75    bbb    H25   1966 0.17125500   1.008000   ; qtot 76.000000
; residue   76 bbb rtp bbb q 1.0
 1967         n4     76    bbb     N1   1967 -0.02747900  14.010000   ; qtot 75.972521
 1968         c3     76    bbb     C1   1968 -0.05097600  12.010000   ; qtot 75.921545
 1969         c3     76    bbb     C2   1969 -0.05097600  12.010000   ; qtot 75.870569
 1970         c3     76    bbb     C3   1970 -0.18457900  12.010000   ; qtot 75.685990
 1971          c     76    bbb     C4   1971 0.67254400  12.010000   ; qtot 76.358534
 1972         c3     76    bbb     C5   1972 -0.18457900  12.010000   ; qtot 76.173955
 1973          c     76    bbb     C6   1973 0.67254400  12.010000   ; qtot 76.846499
 1974         c3     76    bbb     C7   1974 -0.02083000  12.010000   ; qtot 76.825669
 1975         c3     76    bbb     C8   1975 -0.03328100  12.010000   ; qtot 76.792388
 1976          n     76    bbb     N2   1976 -0.33303000  14.010000   ; qtot 76.459358
 1977          o     76    bbb     O1   1977 -0.52917200  16.000000   ; qtot 75.930186
 1978          o     76    bbb     O2   1978 -0.52917200  16.000000   ; qtot 75.401014
 1979         hx     76    bbb     H1   1979 0.11563300   1.008000   ; qtot 75.516647
 1980         hx     76    bbb     H2   1980 0.11563300   1.008000   ; qtot 75.632280
 1981         hx     76    bbb     H3   1981 0.11563300   1.008000   ; qtot 75.747913
 1982         hx     76    bbb     H4   1982 0.11563300   1.008000   ; qtot 75.863546
 1983         hc     76    bbb     H5   1983 0.08347900   1.008000   ; qtot 75.947025
 1984         hc     76    bbb     H6   1984 0.08347900   1.008000   ; qtot 76.030504
 1985         hc     76    bbb     H7   1985 0.08347900   1.008000   ; qtot 76.113983
 1986         hc     76    bbb     H8   1986 0.08347900   1.008000   ; qtot 76.197462
 1987         hx     76    bbb     H9   1987 0.07988000   1.008000   ; qtot 76.277342
 1988         hx     76    bbb    H10   1988 0.07988000   1.008000   ; qtot 76.357222
 1989         h1     76    bbb    H11   1989 0.10618100   1.008000   ; qtot 76.463403
 1990         h1     76    bbb    H12   1990 0.10618100   1.008000   ; qtot 76.569584
 1991         hn     76    bbb    H13   1991 0.25916100   1.008000   ; qtot 76.828745
 1992         hn     76    bbb    H25   1992 0.17125500   1.008000   ; qtot 77.000000
; residue   77 bbb rtp bbb q 1.0
 1993         n4     77    bbb     N1   1993 -0.02747900  14.010000   ; qtot 76.972521
 1994         c3     77    bbb     C1   1994 -0.05097600  12.010000   ; qtot 76.921545
 1995         c3     77    bbb     C2   1995 -0.05097600  12.010000   ; qtot 76.870569
 1996         c3     77    bbb     C3   1996 -0.18457900  12.010000   ; qtot 76.685990
 1997          c     77    bbb     C4   1997 0.67254400  12.010000   ; qtot 77.358534
 1998         c3     77    bbb     C5   1998 -0.18457900  12.010000   ; qtot 77.173955
 1999          c     77    bbb     C6   1999 0.67254400  12.010000   ; qtot 77.846499
 2000         c3     77    bbb     C7   2000 -0.02083000  12.010000   ; qtot 77.825669
 2001         c3     77    bbb     C8   2001 -0.03328100  12.010000   ; qtot 77.792388
 2002          n     77    bbb     N2   2002 -0.33303000  14.010000   ; qtot 77.459358
 2003          o     77    bbb     O1   2003 -0.52917200  16.000000   ; qtot 76.930186
 2004          o     77    bbb     O2   2004 -0.52917200  16.000000   ; qtot 76.401014
 2005         hx     77    bbb     H1   2005 0.11563300   1.008000   ; qtot 76.516647
 2006         hx     77    bbb     H2   2006 0.11563300   1.008000   ; qtot 76.632280
 2007         hx     77    bbb     H3   2007 0.11563300   1.008000   ; qtot 76.747913
 2008         hx     77    bbb     H4   2008 0.11563300   1.008000   ; qtot 76.863546
 2009         hc     77    bbb     H5   2009 0.08347900   1.008000   ; qtot 76.947025
 2010         hc     77    bbb     H6   2010 0.08347900   1.008000   ; qtot 77.030504
 2011         hc     77    bbb     H7   2011 0.08347900   1.008000   ; qtot 77.113983
 2012         hc     77    bbb     H8   2012 0.08347900   1.008000   ; qtot 77.197462
 2013         hx     77    bbb     H9   2013 0.07988000   1.008000   ; qtot 77.277342
 2014         hx     77    bbb    H10   2014 0.07988000   1.008000   ; qtot 77.357222
 2015         h1     77    bbb    H11   2015 0.10618100   1.008000   ; qtot 77.463403
 2016         h1     77    bbb    H12   2016 0.10618100   1.008000   ; qtot 77.569584
 2017         hn     77    bbb    H13   2017 0.25916100   1.008000   ; qtot 77.828745
 2018         hn     77    bbb    H25   2018 0.17125500   1.008000   ; qtot 78.000000
; residue   78 bbb rtp bbb q 1.0
 2019         n4     78    bbb     N1   2019 -0.02747900  14.010000   ; qtot 77.972521
 2020         c3     78    bbb     C1   2020 -0.05097600  12.010000   ; qtot 77.921545
 2021         c3     78    bbb     C2   2021 -0.05097600  12.010000   ; qtot 77.870569
 2022         c3     78    bbb     C3   2022 -0.18457900  12.010000   ; qtot 77.685990
 2023          c     78    bbb     C4   2023 0.67254400  12.010000   ; qtot 78.358534
 2024         c3     78    bbb     C5   2024 -0.18457900  12.010000   ; qtot 78.173955
 2025          c     78    bbb     C6   2025 0.67254400  12.010000   ; qtot 78.846499
 2026         c3     78    bbb     C7   2026 -0.02083000  12.010000   ; qtot 78.825669
 2027         c3     78    bbb     C8   2027 -0.03328100  12.010000   ; qtot 78.792388
 2028          n     78    bbb     N2   2028 -0.33303000  14.010000   ; qtot 78.459358
 2029          o     78    bbb     O1   2029 -0.52917200  16.000000   ; qtot 77.930186
 2030          o     78    bbb     O2   2030 -0.52917200  16.000000   ; qtot 77.401014
 2031         hx     78    bbb     H1   2031 0.11563300   1.008000   ; qtot 77.516647
 2032         hx     78    bbb     H2   2032 0.11563300   1.008000   ; qtot 77.632280
 2033         hx     78    bbb     H3   2033 0.11563300   1.008000   ; qtot 77.747913
 2034         hx     78    bbb     H4   2034 0.11563300   1.008000   ; qtot 77.863546
 2035         hc     78    bbb     H5   2035 0.08347900   1.008000   ; qtot 77.947025
 2036         hc     78    bbb     H6   2036 0.08347900   1.008000   ; qtot 78.030504
 2037         hc     78    bbb     H7   2037 0.08347900   1.008000   ; qtot 78.113983
 2038         hc     78    bbb     H8   2038 0.08347900   1.008000   ; qtot 78.197462
 2039         hx     78    bbb     H9   2039 0.07988000   1.008000   ; qtot 78.277342
 2040         hx     78    bbb    H10   2040 0.07988000   1.008000   ; qtot 78.357222
 2041         h1     78    bbb    H11   2041 0.10618100   1.008000   ; qtot 78.463403
 2042         h1     78    bbb    H12   2042 0.10618100   1.008000   ; qtot 78.569584
 2043         hn     78    bbb    H13   2043 0.25916100   1.008000   ; qtot 78.828745
 2044         hn     78    bbb    H25   2044 0.17125500   1.008000   ; qtot 79.000000
; residue   79 bbb rtp bbb q 1.0
 2045         n4     79    bbb     N1   2045 -0.02747900  14.010000   ; qtot 78.972521
 2046         c3     79    bbb     C1   2046 -0.05097600  12.010000   ; qtot 78.921545
 2047         c3     79    bbb     C2   2047 -0.05097600  12.010000   ; qtot 78.870569
 2048         c3     79    bbb     C3   2048 -0.18457900  12.010000   ; qtot 78.685990
 2049          c     79    bbb     C4   2049 0.67254400  12.010000   ; qtot 79.358534
 2050         c3     79    bbb     C5   2050 -0.18457900  12.010000   ; qtot 79.173955
 2051          c     79    bbb     C6   2051 0.67254400  12.010000   ; qtot 79.846499
 2052         c3     79    bbb     C7   2052 -0.02083000  12.010000   ; qtot 79.825669
 2053         c3     79    bbb     C8   2053 -0.03328100  12.010000   ; qtot 79.792388
 2054          n     79    bbb     N2   2054 -0.33303000  14.010000   ; qtot 79.459358
 2055          o     79    bbb     O1   2055 -0.52917200  16.000000   ; qtot 78.930186
 2056          o     79    bbb     O2   2056 -0.52917200  16.000000   ; qtot 78.401014
 2057         hx     79    bbb     H1   2057 0.11563300   1.008000   ; qtot 78.516647
 2058         hx     79    bbb     H2   2058 0.11563300   1.008000   ; qtot 78.632280
 2059         hx     79    bbb     H3   2059 0.11563300   1.008000   ; qtot 78.747913
 2060         hx     79    bbb     H4   2060 0.11563300   1.008000   ; qtot 78.863546
 2061         hc     79    bbb     H5   2061 0.08347900   1.008000   ; qtot 78.947025
 2062         hc     79    bbb     H6   2062 0.08347900   1.008000   ; qtot 79.030504
 2063         hc     79    bbb     H7   2063 0.08347900   1.008000   ; qtot 79.113983
 2064         hc     79    bbb     H8   2064 0.08347900   1.008000   ; qtot 79.197462
 2065         hx     79    bbb     H9   2065 0.07988000   1.008000   ; qtot 79.277342
 2066         hx     79    bbb    H10   2066 0.07988000   1.008000   ; qtot 79.357222
 2067         h1     79    bbb    H11   2067 0.10618100   1.008000   ; qtot 79.463403
 2068         h1     79    bbb    H12   2068 0.10618100   1.008000   ; qtot 79.569584
 2069         hn     79    bbb    H13   2069 0.25916100   1.008000   ; qtot 79.828745
 2070         hn     79    bbb    H25   2070 0.17125500   1.008000   ; qtot 80.000000
; residue   80 bbb rtp bbb q 1.0
 2071         n4     80    bbb     N1   2071 -0.02747900  14.010000   ; qtot 79.972521
 2072         c3     80    bbb     C1   2072 -0.05097600  12.010000   ; qtot 79.921545
 2073         c3     80    bbb     C2   2073 -0.05097600  12.010000   ; qtot 79.870569
 2074         c3     80    bbb     C3   2074 -0.18457900  12.010000   ; qtot 79.685990
 2075          c     80    bbb     C4   2075 0.67254400  12.010000   ; qtot 80.358534
 2076         c3     80    bbb     C5   2076 -0.18457900  12.010000   ; qtot 80.173955
 2077          c     80    bbb     C6   2077 0.67254400  12.010000   ; qtot 80.846499
 2078         c3     80    bbb     C7   2078 -0.02083000  12.010000   ; qtot 80.825669
 2079         c3     80    bbb     C8   2079 -0.03328100  12.010000   ; qtot 80.792388
 2080          n     80    bbb     N2   2080 -0.33303000  14.010000   ; qtot 80.459358
 2081          o     80    bbb     O1   2081 -0.52917200  16.000000   ; qtot 79.930186
 2082          o     80    bbb     O2   2082 -0.52917200  16.000000   ; qtot 79.401014
 2083         hx     80    bbb     H1   2083 0.11563300   1.008000   ; qtot 79.516647
 2084         hx     80    bbb     H2   2084 0.11563300   1.008000   ; qtot 79.632280
 2085         hx     80    bbb     H3   2085 0.11563300   1.008000   ; qtot 79.747913
 2086         hx     80    bbb     H4   2086 0.11563300   1.008000   ; qtot 79.863546
 2087         hc     80    bbb     H5   2087 0.08347900   1.008000   ; qtot 79.947025
 2088         hc     80    bbb     H6   2088 0.08347900   1.008000   ; qtot 80.030504
 2089         hc     80    bbb     H7   2089 0.08347900   1.008000   ; qtot 80.113983
 2090         hc     80    bbb     H8   2090 0.08347900   1.008000   ; qtot 80.197462
 2091         hx     80    bbb     H9   2091 0.07988000   1.008000   ; qtot 80.277342
 2092         hx     80    bbb    H10   2092 0.07988000   1.008000   ; qtot 80.357222
 2093         h1     80    bbb    H11   2093 0.10618100   1.008000   ; qtot 80.463403
 2094         h1     80    bbb    H12   2094 0.10618100   1.008000   ; qtot 80.569584
 2095         hn     80    bbb    H13   2095 0.25916100   1.008000   ; qtot 80.828745
 2096         hn     80    bbb    H25   2096 0.17125500   1.008000   ; qtot 81.000000
; residue   81 bbb rtp bbb q 1.0
 2097         n4     81    bbb     N1   2097 -0.02747900  14.010000   ; qtot 80.972521
 2098         c3     81    bbb     C1   2098 -0.05097600  12.010000   ; qtot 80.921545
 2099         c3     81    bbb     C2   2099 -0.05097600  12.010000   ; qtot 80.870569
 2100         c3     81    bbb     C3   2100 -0.18457900  12.010000   ; qtot 80.685990
 2101          c     81    bbb     C4   2101 0.67254400  12.010000   ; qtot 81.358534
 2102         c3     81    bbb     C5   2102 -0.18457900  12.010000   ; qtot 81.173955
 2103          c     81    bbb     C6   2103 0.67254400  12.010000   ; qtot 81.846499
 2104         c3     81    bbb     C7   2104 -0.02083000  12.010000   ; qtot 81.825669
 2105         c3     81    bbb     C8   2105 -0.03328100  12.010000   ; qtot 81.792388
 2106          n     81    bbb     N2   2106 -0.33303000  14.010000   ; qtot 81.459358
 2107          o     81    bbb     O1   2107 -0.52917200  16.000000   ; qtot 80.930186
 2108          o     81    bbb     O2   2108 -0.52917200  16.000000   ; qtot 80.401014
 2109         hx     81    bbb     H1   2109 0.11563300   1.008000   ; qtot 80.516647
 2110         hx     81    bbb     H2   2110 0.11563300   1.008000   ; qtot 80.632280
 2111         hx     81    bbb     H3   2111 0.11563300   1.008000   ; qtot 80.747913
 2112         hx     81    bbb     H4   2112 0.11563300   1.008000   ; qtot 80.863546
 2113         hc     81    bbb     H5   2113 0.08347900   1.008000   ; qtot 80.947025
 2114         hc     81    bbb     H6   2114 0.08347900   1.008000   ; qtot 81.030504
 2115         hc     81    bbb     H7   2115 0.08347900   1.008000   ; qtot 81.113983
 2116         hc     81    bbb     H8   2116 0.08347900   1.008000   ; qtot 81.197462
 2117         hx     81    bbb     H9   2117 0.07988000   1.008000   ; qtot 81.277342
 2118         hx     81    bbb    H10   2118 0.07988000   1.008000   ; qtot 81.357222
 2119         h1     81    bbb    H11   2119 0.10618100   1.008000   ; qtot 81.463403
 2120         h1     81    bbb    H12   2120 0.10618100   1.008000   ; qtot 81.569584
 2121         hn     81    bbb    H13   2121 0.25916100   1.008000   ; qtot 81.828745
 2122         hn     81    bbb    H25   2122 0.17125500   1.008000   ; qtot 82.000000
; residue   82 bbb rtp bbb q 1.0
 2123         n4     82    bbb     N1   2123 -0.02747900  14.010000   ; qtot 81.972521
 2124         c3     82    bbb     C1   2124 -0.05097600  12.010000   ; qtot 81.921545
 2125         c3     82    bbb     C2   2125 -0.05097600  12.010000   ; qtot 81.870569
 2126         c3     82    bbb     C3   2126 -0.18457900  12.010000   ; qtot 81.685990
 2127          c     82    bbb     C4   2127 0.67254400  12.010000   ; qtot 82.358534
 2128         c3     82    bbb     C5   2128 -0.18457900  12.010000   ; qtot 82.173955
 2129          c     82    bbb     C6   2129 0.67254400  12.010000   ; qtot 82.846499
 2130         c3     82    bbb     C7   2130 -0.02083000  12.010000   ; qtot 82.825669
 2131         c3     82    bbb     C8   2131 -0.03328100  12.010000   ; qtot 82.792388
 2132          n     82    bbb     N2   2132 -0.33303000  14.010000   ; qtot 82.459358
 2133          o     82    bbb     O1   2133 -0.52917200  16.000000   ; qtot 81.930186
 2134          o     82    bbb     O2   2134 -0.52917200  16.000000   ; qtot 81.401014
 2135         hx     82    bbb     H1   2135 0.11563300   1.008000   ; qtot 81.516647
 2136         hx     82    bbb     H2   2136 0.11563300   1.008000   ; qtot 81.632280
 2137         hx     82    bbb     H3   2137 0.11563300   1.008000   ; qtot 81.747913
 2138         hx     82    bbb     H4   2138 0.11563300   1.008000   ; qtot 81.863546
 2139         hc     82    bbb     H5   2139 0.08347900   1.008000   ; qtot 81.947025
 2140         hc     82    bbb     H6   2140 0.08347900   1.008000   ; qtot 82.030504
 2141         hc     82    bbb     H7   2141 0.08347900   1.008000   ; qtot 82.113983
 2142         hc     82    bbb     H8   2142 0.08347900   1.008000   ; qtot 82.197462
 2143         hx     82    bbb     H9   2143 0.07988000   1.008000   ; qtot 82.277342
 2144         hx     82    bbb    H10   2144 0.07988000   1.008000   ; qtot 82.357222
 2145         h1     82    bbb    H11   2145 0.10618100   1.008000   ; qtot 82.463403
 2146         h1     82    bbb    H12   2146 0.10618100   1.008000   ; qtot 82.569584
 2147         hn     82    bbb    H13   2147 0.25916100   1.008000   ; qtot 82.828745
 2148         hn     82    bbb    H25   2148 0.17125500   1.008000   ; qtot 83.000000
; residue   83 bbb rtp bbb q 1.0
 2149         n4     83    bbb     N1   2149 -0.02747900  14.010000   ; qtot 82.972521
 2150         c3     83    bbb     C1   2150 -0.05097600  12.010000   ; qtot 82.921545
 2151         c3     83    bbb     C2   2151 -0.05097600  12.010000   ; qtot 82.870569
 2152         c3     83    bbb     C3   2152 -0.18457900  12.010000   ; qtot 82.685990
 2153          c     83    bbb     C4   2153 0.67254400  12.010000   ; qtot 83.358534
 2154         c3     83    bbb     C5   2154 -0.18457900  12.010000   ; qtot 83.173955
 2155          c     83    bbb     C6   2155 0.67254400  12.010000   ; qtot 83.846499
 2156         c3     83    bbb     C7   2156 -0.02083000  12.010000   ; qtot 83.825669
 2157         c3     83    bbb     C8   2157 -0.03328100  12.010000   ; qtot 83.792388
 2158          n     83    bbb     N2   2158 -0.33303000  14.010000   ; qtot 83.459358
 2159          o     83    bbb     O1   2159 -0.52917200  16.000000   ; qtot 82.930186
 2160          o     83    bbb     O2   2160 -0.52917200  16.000000   ; qtot 82.401014
 2161         hx     83    bbb     H1   2161 0.11563300   1.008000   ; qtot 82.516647
 2162         hx     83    bbb     H2   2162 0.11563300   1.008000   ; qtot 82.632280
 2163         hx     83    bbb     H3   2163 0.11563300   1.008000   ; qtot 82.747913
 2164         hx     83    bbb     H4   2164 0.11563300   1.008000   ; qtot 82.863546
 2165         hc     83    bbb     H5   2165 0.08347900   1.008000   ; qtot 82.947025
 2166         hc     83    bbb     H6   2166 0.08347900   1.008000   ; qtot 83.030504
 2167         hc     83    bbb     H7   2167 0.08347900   1.008000   ; qtot 83.113983
 2168         hc     83    bbb     H8   2168 0.08347900   1.008000   ; qtot 83.197462
 2169         hx     83    bbb     H9   2169 0.07988000   1.008000   ; qtot 83.277342
 2170         hx     83    bbb    H10   2170 0.07988000   1.008000   ; qtot 83.357222
 2171         h1     83    bbb    H11   2171 0.10618100   1.008000   ; qtot 83.463403
 2172         h1     83    bbb    H12   2172 0.10618100   1.008000   ; qtot 83.569584
 2173         hn     83    bbb    H13   2173 0.25916100   1.008000   ; qtot 83.828745
 2174         hn     83    bbb    H25   2174 0.17125500   1.008000   ; qtot 84.000000
; residue   84 bbb rtp bbb q 1.0
 2175         n4     84    bbb     N1   2175 -0.02747900  14.010000   ; qtot 83.972521
 2176         c3     84    bbb     C1   2176 -0.05097600  12.010000   ; qtot 83.921545
 2177         c3     84    bbb     C2   2177 -0.05097600  12.010000   ; qtot 83.870569
 2178         c3     84    bbb     C3   2178 -0.18457900  12.010000   ; qtot 83.685990
 2179          c     84    bbb     C4   2179 0.67254400  12.010000   ; qtot 84.358534
 2180         c3     84    bbb     C5   2180 -0.18457900  12.010000   ; qtot 84.173955
 2181          c     84    bbb     C6   2181 0.67254400  12.010000   ; qtot 84.846499
 2182         c3     84    bbb     C7   2182 -0.02083000  12.010000   ; qtot 84.825669
 2183         c3     84    bbb     C8   2183 -0.03328100  12.010000   ; qtot 84.792388
 2184          n     84    bbb     N2   2184 -0.33303000  14.010000   ; qtot 84.459358
 2185          o     84    bbb     O1   2185 -0.52917200  16.000000   ; qtot 83.930186
 2186          o     84    bbb     O2   2186 -0.52917200  16.000000   ; qtot 83.401014
 2187         hx     84    bbb     H1   2187 0.11563300   1.008000   ; qtot 83.516647
 2188         hx     84    bbb     H2   2188 0.11563300   1.008000   ; qtot 83.632280
 2189         hx     84    bbb     H3   2189 0.11563300   1.008000   ; qtot 83.747913
 2190         hx     84    bbb     H4   2190 0.11563300   1.008000   ; qtot 83.863546
 2191         hc     84    bbb     H5   2191 0.08347900   1.008000   ; qtot 83.947025
 2192         hc     84    bbb     H6   2192 0.08347900   1.008000   ; qtot 84.030504
 2193         hc     84    bbb     H7   2193 0.08347900   1.008000   ; qtot 84.113983
 2194         hc     84    bbb     H8   2194 0.08347900   1.008000   ; qtot 84.197462
 2195         hx     84    bbb     H9   2195 0.07988000   1.008000   ; qtot 84.277342
 2196         hx     84    bbb    H10   2196 0.07988000   1.008000   ; qtot 84.357222
 2197         h1     84    bbb    H11   2197 0.10618100   1.008000   ; qtot 84.463403
 2198         h1     84    bbb    H12   2198 0.10618100   1.008000   ; qtot 84.569584
 2199         hn     84    bbb    H13   2199 0.25916100   1.008000   ; qtot 84.828745
 2200         hn     84    bbb    H25   2200 0.17125500   1.008000   ; qtot 85.000000
; residue   85 bbb rtp bbb q 1.0
 2201         n4     85    bbb     N1   2201 -0.02747900  14.010000   ; qtot 84.972521
 2202         c3     85    bbb     C1   2202 -0.05097600  12.010000   ; qtot 84.921545
 2203         c3     85    bbb     C2   2203 -0.05097600  12.010000   ; qtot 84.870569
 2204         c3     85    bbb     C3   2204 -0.18457900  12.010000   ; qtot 84.685990
 2205          c     85    bbb     C4   2205 0.67254400  12.010000   ; qtot 85.358534
 2206         c3     85    bbb     C5   2206 -0.18457900  12.010000   ; qtot 85.173955
 2207          c     85    bbb     C6   2207 0.67254400  12.010000   ; qtot 85.846499
 2208         c3     85    bbb     C7   2208 -0.02083000  12.010000   ; qtot 85.825669
 2209         c3     85    bbb     C8   2209 -0.03328100  12.010000   ; qtot 85.792388
 2210          n     85    bbb     N2   2210 -0.33303000  14.010000   ; qtot 85.459358
 2211          o     85    bbb     O1   2211 -0.52917200  16.000000   ; qtot 84.930186
 2212          o     85    bbb     O2   2212 -0.52917200  16.000000   ; qtot 84.401014
 2213         hx     85    bbb     H1   2213 0.11563300   1.008000   ; qtot 84.516647
 2214         hx     85    bbb     H2   2214 0.11563300   1.008000   ; qtot 84.632280
 2215         hx     85    bbb     H3   2215 0.11563300   1.008000   ; qtot 84.747913
 2216         hx     85    bbb     H4   2216 0.11563300   1.008000   ; qtot 84.863546
 2217         hc     85    bbb     H5   2217 0.08347900   1.008000   ; qtot 84.947025
 2218         hc     85    bbb     H6   2218 0.08347900   1.008000   ; qtot 85.030504
 2219         hc     85    bbb     H7   2219 0.08347900   1.008000   ; qtot 85.113983
 2220         hc     85    bbb     H8   2220 0.08347900   1.008000   ; qtot 85.197462
 2221         hx     85    bbb     H9   2221 0.07988000   1.008000   ; qtot 85.277342
 2222         hx     85    bbb    H10   2222 0.07988000   1.008000   ; qtot 85.357222
 2223         h1     85    bbb    H11   2223 0.10618100   1.008000   ; qtot 85.463403
 2224         h1     85    bbb    H12   2224 0.10618100   1.008000   ; qtot 85.569584
 2225         hn     85    bbb    H13   2225 0.25916100   1.008000   ; qtot 85.828745
 2226         hn     85    bbb    H25   2226 0.17125500   1.008000   ; qtot 86.000000
; residue   86 bbb rtp bbb q 1.0
 2227         n4     86    bbb     N1   2227 -0.02747900  14.010000   ; qtot 85.972521
 2228         c3     86    bbb     C1   2228 -0.05097600  12.010000   ; qtot 85.921545
 2229         c3     86    bbb     C2   2229 -0.05097600  12.010000   ; qtot 85.870569
 2230         c3     86    bbb     C3   2230 -0.18457900  12.010000   ; qtot 85.685990
 2231          c     86    bbb     C4   2231 0.67254400  12.010000   ; qtot 86.358534
 2232         c3     86    bbb     C5   2232 -0.18457900  12.010000   ; qtot 86.173955
 2233          c     86    bbb     C6   2233 0.67254400  12.010000   ; qtot 86.846499
 2234         c3     86    bbb     C7   2234 -0.02083000  12.010000   ; qtot 86.825669
 2235         c3     86    bbb     C8   2235 -0.03328100  12.010000   ; qtot 86.792388
 2236          n     86    bbb     N2   2236 -0.33303000  14.010000   ; qtot 86.459358
 2237          o     86    bbb     O1   2237 -0.52917200  16.000000   ; qtot 85.930186
 2238          o     86    bbb     O2   2238 -0.52917200  16.000000   ; qtot 85.401014
 2239         hx     86    bbb     H1   2239 0.11563300   1.008000   ; qtot 85.516647
 2240         hx     86    bbb     H2   2240 0.11563300   1.008000   ; qtot 85.632280
 2241         hx     86    bbb     H3   2241 0.11563300   1.008000   ; qtot 85.747913
 2242         hx     86    bbb     H4   2242 0.11563300   1.008000   ; qtot 85.863546
 2243         hc     86    bbb     H5   2243 0.08347900   1.008000   ; qtot 85.947025
 2244         hc     86    bbb     H6   2244 0.08347900   1.008000   ; qtot 86.030504
 2245         hc     86    bbb     H7   2245 0.08347900   1.008000   ; qtot 86.113983
 2246         hc     86    bbb     H8   2246 0.08347900   1.008000   ; qtot 86.197462
 2247         hx     86    bbb     H9   2247 0.07988000   1.008000   ; qtot 86.277342
 2248         hx     86    bbb    H10   2248 0.07988000   1.008000   ; qtot 86.357222
 2249         h1     86    bbb    H11   2249 0.10618100   1.008000   ; qtot 86.463403
 2250         h1     86    bbb    H12   2250 0.10618100   1.008000   ; qtot 86.569584
 2251         hn     86    bbb    H13   2251 0.25916100   1.008000   ; qtot 86.828745
 2252         hn     86    bbb    H25   2252 0.17125500   1.008000   ; qtot 87.000000
; residue   87 bbb rtp bbb q 1.0
 2253         n4     87    bbb     N1   2253 -0.02747900  14.010000   ; qtot 86.972521
 2254         c3     87    bbb     C1   2254 -0.05097600  12.010000   ; qtot 86.921545
 2255         c3     87    bbb     C2   2255 -0.05097600  12.010000   ; qtot 86.870569
 2256         c3     87    bbb     C3   2256 -0.18457900  12.010000   ; qtot 86.685990
 2257          c     87    bbb     C4   2257 0.67254400  12.010000   ; qtot 87.358534
 2258         c3     87    bbb     C5   2258 -0.18457900  12.010000   ; qtot 87.173955
 2259          c     87    bbb     C6   2259 0.67254400  12.010000   ; qtot 87.846499
 2260         c3     87    bbb     C7   2260 -0.02083000  12.010000   ; qtot 87.825669
 2261         c3     87    bbb     C8   2261 -0.03328100  12.010000   ; qtot 87.792388
 2262          n     87    bbb     N2   2262 -0.33303000  14.010000   ; qtot 87.459358
 2263          o     87    bbb     O1   2263 -0.52917200  16.000000   ; qtot 86.930186
 2264          o     87    bbb     O2   2264 -0.52917200  16.000000   ; qtot 86.401014
 2265         hx     87    bbb     H1   2265 0.11563300   1.008000   ; qtot 86.516647
 2266         hx     87    bbb     H2   2266 0.11563300   1.008000   ; qtot 86.632280
 2267         hx     87    bbb     H3   2267 0.11563300   1.008000   ; qtot 86.747913
 2268         hx     87    bbb     H4   2268 0.11563300   1.008000   ; qtot 86.863546
 2269         hc     87    bbb     H5   2269 0.08347900   1.008000   ; qtot 86.947025
 2270         hc     87    bbb     H6   2270 0.08347900   1.008000   ; qtot 87.030504
 2271         hc     87    bbb     H7   2271 0.08347900   1.008000   ; qtot 87.113983
 2272         hc     87    bbb     H8   2272 0.08347900   1.008000   ; qtot 87.197462
 2273         hx     87    bbb     H9   2273 0.07988000   1.008000   ; qtot 87.277342
 2274         hx     87    bbb    H10   2274 0.07988000   1.008000   ; qtot 87.357222
 2275         h1     87    bbb    H11   2275 0.10618100   1.008000   ; qtot 87.463403
 2276         h1     87    bbb    H12   2276 0.10618100   1.008000   ; qtot 87.569584
 2277         hn     87    bbb    H13   2277 0.25916100   1.008000   ; qtot 87.828745
 2278         hn     87    bbb    H25   2278 0.17125500   1.008000   ; qtot 88.000000
; residue   88 bbb rtp bbb q 1.0
 2279         n4     88    bbb     N1   2279 -0.02747900  14.010000   ; qtot 87.972521
 2280         c3     88    bbb     C1   2280 -0.05097600  12.010000   ; qtot 87.921545
 2281         c3     88    bbb     C2   2281 -0.05097600  12.010000   ; qtot 87.870569
 2282         c3     88    bbb     C3   2282 -0.18457900  12.010000   ; qtot 87.685990
 2283          c     88    bbb     C4   2283 0.67254400  12.010000   ; qtot 88.358534
 2284         c3     88    bbb     C5   2284 -0.18457900  12.010000   ; qtot 88.173955
 2285          c     88    bbb     C6   2285 0.67254400  12.010000   ; qtot 88.846499
 2286         c3     88    bbb     C7   2286 -0.02083000  12.010000   ; qtot 88.825669
 2287         c3     88    bbb     C8   2287 -0.03328100  12.010000   ; qtot 88.792388
 2288          n     88    bbb     N2   2288 -0.33303000  14.010000   ; qtot 88.459358
 2289          o     88    bbb     O1   2289 -0.52917200  16.000000   ; qtot 87.930186
 2290          o     88    bbb     O2   2290 -0.52917200  16.000000   ; qtot 87.401014
 2291         hx     88    bbb     H1   2291 0.11563300   1.008000   ; qtot 87.516647
 2292         hx     88    bbb     H2   2292 0.11563300   1.008000   ; qtot 87.632280
 2293         hx     88    bbb     H3   2293 0.11563300   1.008000   ; qtot 87.747913
 2294         hx     88    bbb     H4   2294 0.11563300   1.008000   ; qtot 87.863546
 2295         hc     88    bbb     H5   2295 0.08347900   1.008000   ; qtot 87.947025
 2296         hc     88    bbb     H6   2296 0.08347900   1.008000   ; qtot 88.030504
 2297         hc     88    bbb     H7   2297 0.08347900   1.008000   ; qtot 88.113983
 2298         hc     88    bbb     H8   2298 0.08347900   1.008000   ; qtot 88.197462
 2299         hx     88    bbb     H9   2299 0.07988000   1.008000   ; qtot 88.277342
 2300         hx     88    bbb    H10   2300 0.07988000   1.008000   ; qtot 88.357222
 2301         h1     88    bbb    H11   2301 0.10618100   1.008000   ; qtot 88.463403
 2302         h1     88    bbb    H12   2302 0.10618100   1.008000   ; qtot 88.569584
 2303         hn     88    bbb    H13   2303 0.25916100   1.008000   ; qtot 88.828745
 2304         hn     88    bbb    H25   2304 0.17125500   1.008000   ; qtot 89.000000
; residue   89 bbb rtp bbb q 1.0
 2305         n4     89    bbb     N1   2305 -0.02747900  14.010000   ; qtot 88.972521
 2306         c3     89    bbb     C1   2306 -0.05097600  12.010000   ; qtot 88.921545
 2307         c3     89    bbb     C2   2307 -0.05097600  12.010000   ; qtot 88.870569
 2308         c3     89    bbb     C3   2308 -0.18457900  12.010000   ; qtot 88.685990
 2309          c     89    bbb     C4   2309 0.67254400  12.010000   ; qtot 89.358534
 2310         c3     89    bbb     C5   2310 -0.18457900  12.010000   ; qtot 89.173955
 2311          c     89    bbb     C6   2311 0.67254400  12.010000   ; qtot 89.846499
 2312         c3     89    bbb     C7   2312 -0.02083000  12.010000   ; qtot 89.825669
 2313         c3     89    bbb     C8   2313 -0.03328100  12.010000   ; qtot 89.792388
 2314          n     89    bbb     N2   2314 -0.33303000  14.010000   ; qtot 89.459358
 2315          o     89    bbb     O1   2315 -0.52917200  16.000000   ; qtot 88.930186
 2316          o     89    bbb     O2   2316 -0.52917200  16.000000   ; qtot 88.401014
 2317         hx     89    bbb     H1   2317 0.11563300   1.008000   ; qtot 88.516647
 2318         hx     89    bbb     H2   2318 0.11563300   1.008000   ; qtot 88.632280
 2319         hx     89    bbb     H3   2319 0.11563300   1.008000   ; qtot 88.747913
 2320         hx     89    bbb     H4   2320 0.11563300   1.008000   ; qtot 88.863546
 2321         hc     89    bbb     H5   2321 0.08347900   1.008000   ; qtot 88.947025
 2322         hc     89    bbb     H6   2322 0.08347900   1.008000   ; qtot 89.030504
 2323         hc     89    bbb     H7   2323 0.08347900   1.008000   ; qtot 89.113983
 2324         hc     89    bbb     H8   2324 0.08347900   1.008000   ; qtot 89.197462
 2325         hx     89    bbb     H9   2325 0.07988000   1.008000   ; qtot 89.277342
 2326         hx     89    bbb    H10   2326 0.07988000   1.008000   ; qtot 89.357222
 2327         h1     89    bbb    H11   2327 0.10618100   1.008000   ; qtot 89.463403
 2328         h1     89    bbb    H12   2328 0.10618100   1.008000   ; qtot 89.569584
 2329         hn     89    bbb    H13   2329 0.25916100   1.008000   ; qtot 89.828745
 2330         hn     89    bbb    H25   2330 0.17125500   1.008000   ; qtot 90.000000
; residue   90 bbb rtp bbb q 1.0
 2331         n4     90    bbb     N1   2331 -0.02747900  14.010000   ; qtot 89.972521
 2332         c3     90    bbb     C1   2332 -0.05097600  12.010000   ; qtot 89.921545
 2333         c3     90    bbb     C2   2333 -0.05097600  12.010000   ; qtot 89.870569
 2334         c3     90    bbb     C3   2334 -0.18457900  12.010000   ; qtot 89.685990
 2335          c     90    bbb     C4   2335 0.67254400  12.010000   ; qtot 90.358534
 2336         c3     90    bbb     C5   2336 -0.18457900  12.010000   ; qtot 90.173955
 2337          c     90    bbb     C6   2337 0.67254400  12.010000   ; qtot 90.846499
 2338         c3     90    bbb     C7   2338 -0.02083000  12.010000   ; qtot 90.825669
 2339         c3     90    bbb     C8   2339 -0.03328100  12.010000   ; qtot 90.792388
 2340          n     90    bbb     N2   2340 -0.33303000  14.010000   ; qtot 90.459358
 2341          o     90    bbb     O1   2341 -0.52917200  16.000000   ; qtot 89.930186
 2342          o     90    bbb     O2   2342 -0.52917200  16.000000   ; qtot 89.401014
 2343         hx     90    bbb     H1   2343 0.11563300   1.008000   ; qtot 89.516647
 2344         hx     90    bbb     H2   2344 0.11563300   1.008000   ; qtot 89.632280
 2345         hx     90    bbb     H3   2345 0.11563300   1.008000   ; qtot 89.747913
 2346         hx     90    bbb     H4   2346 0.11563300   1.008000   ; qtot 89.863546
 2347         hc     90    bbb     H5   2347 0.08347900   1.008000   ; qtot 89.947025
 2348         hc     90    bbb     H6   2348 0.08347900   1.008000   ; qtot 90.030504
 2349         hc     90    bbb     H7   2349 0.08347900   1.008000   ; qtot 90.113983
 2350         hc     90    bbb     H8   2350 0.08347900   1.008000   ; qtot 90.197462
 2351         hx     90    bbb     H9   2351 0.07988000   1.008000   ; qtot 90.277342
 2352         hx     90    bbb    H10   2352 0.07988000   1.008000   ; qtot 90.357222
 2353         h1     90    bbb    H11   2353 0.10618100   1.008000   ; qtot 90.463403
 2354         h1     90    bbb    H12   2354 0.10618100   1.008000   ; qtot 90.569584
 2355         hn     90    bbb    H13   2355 0.25916100   1.008000   ; qtot 90.828745
 2356         hn     90    bbb    H25   2356 0.17125500   1.008000   ; qtot 91.000000
; residue   91 bbb rtp bbb q 1.0
 2357         n4     91    bbb     N1   2357 -0.02747900  14.010000   ; qtot 90.972521
 2358         c3     91    bbb     C1   2358 -0.05097600  12.010000   ; qtot 90.921545
 2359         c3     91    bbb     C2   2359 -0.05097600  12.010000   ; qtot 90.870569
 2360         c3     91    bbb     C3   2360 -0.18457900  12.010000   ; qtot 90.685990
 2361          c     91    bbb     C4   2361 0.67254400  12.010000   ; qtot 91.358534
 2362         c3     91    bbb     C5   2362 -0.18457900  12.010000   ; qtot 91.173955
 2363          c     91    bbb     C6   2363 0.67254400  12.010000   ; qtot 91.846499
 2364         c3     91    bbb     C7   2364 -0.02083000  12.010000   ; qtot 91.825669
 2365         c3     91    bbb     C8   2365 -0.03328100  12.010000   ; qtot 91.792388
 2366          n     91    bbb     N2   2366 -0.33303000  14.010000   ; qtot 91.459358
 2367          o     91    bbb     O1   2367 -0.52917200  16.000000   ; qtot 90.930186
 2368          o     91    bbb     O2   2368 -0.52917200  16.000000   ; qtot 90.401014
 2369         hx     91    bbb     H1   2369 0.11563300   1.008000   ; qtot 90.516647
 2370         hx     91    bbb     H2   2370 0.11563300   1.008000   ; qtot 90.632280
 2371         hx     91    bbb     H3   2371 0.11563300   1.008000   ; qtot 90.747913
 2372         hx     91    bbb     H4   2372 0.11563300   1.008000   ; qtot 90.863546
 2373         hc     91    bbb     H5   2373 0.08347900   1.008000   ; qtot 90.947025
 2374         hc     91    bbb     H6   2374 0.08347900   1.008000   ; qtot 91.030504
 2375         hc     91    bbb     H7   2375 0.08347900   1.008000   ; qtot 91.113983
 2376         hc     91    bbb     H8   2376 0.08347900   1.008000   ; qtot 91.197462
 2377         hx     91    bbb     H9   2377 0.07988000   1.008000   ; qtot 91.277342
 2378         hx     91    bbb    H10   2378 0.07988000   1.008000   ; qtot 91.357222
 2379         h1     91    bbb    H11   2379 0.10618100   1.008000   ; qtot 91.463403
 2380         h1     91    bbb    H12   2380 0.10618100   1.008000   ; qtot 91.569584
 2381         hn     91    bbb    H13   2381 0.25916100   1.008000   ; qtot 91.828745
 2382         hn     91    bbb    H25   2382 0.17125500   1.008000   ; qtot 92.000000
; residue   92 bbb rtp bbb q 1.0
 2383         n4     92    bbb     N1   2383 -0.02747900  14.010000   ; qtot 91.972521
 2384         c3     92    bbb     C1   2384 -0.05097600  12.010000   ; qtot 91.921545
 2385         c3     92    bbb     C2   2385 -0.05097600  12.010000   ; qtot 91.870569
 2386         c3     92    bbb     C3   2386 -0.18457900  12.010000   ; qtot 91.685990
 2387          c     92    bbb     C4   2387 0.67254400  12.010000   ; qtot 92.358534
 2388         c3     92    bbb     C5   2388 -0.18457900  12.010000   ; qtot 92.173955
 2389          c     92    bbb     C6   2389 0.67254400  12.010000   ; qtot 92.846499
 2390         c3     92    bbb     C7   2390 -0.02083000  12.010000   ; qtot 92.825669
 2391         c3     92    bbb     C8   2391 -0.03328100  12.010000   ; qtot 92.792388
 2392          n     92    bbb     N2   2392 -0.33303000  14.010000   ; qtot 92.459358
 2393          o     92    bbb     O1   2393 -0.52917200  16.000000   ; qtot 91.930186
 2394          o     92    bbb     O2   2394 -0.52917200  16.000000   ; qtot 91.401014
 2395         hx     92    bbb     H1   2395 0.11563300   1.008000   ; qtot 91.516647
 2396         hx     92    bbb     H2   2396 0.11563300   1.008000   ; qtot 91.632280
 2397         hx     92    bbb     H3   2397 0.11563300   1.008000   ; qtot 91.747913
 2398         hx     92    bbb     H4   2398 0.11563300   1.008000   ; qtot 91.863546
 2399         hc     92    bbb     H5   2399 0.08347900   1.008000   ; qtot 91.947025
 2400         hc     92    bbb     H6   2400 0.08347900   1.008000   ; qtot 92.030504
 2401         hc     92    bbb     H7   2401 0.08347900   1.008000   ; qtot 92.113983
 2402         hc     92    bbb     H8   2402 0.08347900   1.008000   ; qtot 92.197462
 2403         hx     92    bbb     H9   2403 0.07988000   1.008000   ; qtot 92.277342
 2404         hx     92    bbb    H10   2404 0.07988000   1.008000   ; qtot 92.357222
 2405         h1     92    bbb    H11   2405 0.10618100   1.008000   ; qtot 92.463403
 2406         h1     92    bbb    H12   2406 0.10618100   1.008000   ; qtot 92.569584
 2407         hn     92    bbb    H13   2407 0.25916100   1.008000   ; qtot 92.828745
 2408         hn     92    bbb    H25   2408 0.17125500   1.008000   ; qtot 93.000000
; residue   93 bbb rtp bbb q 1.0
 2409         n4     93    bbb     N1   2409 -0.02747900  14.010000   ; qtot 92.972521
 2410         c3     93    bbb     C1   2410 -0.05097600  12.010000   ; qtot 92.921545
 2411         c3     93    bbb     C2   2411 -0.05097600  12.010000   ; qtot 92.870569
 2412         c3     93    bbb     C3   2412 -0.18457900  12.010000   ; qtot 92.685990
 2413          c     93    bbb     C4   2413 0.67254400  12.010000   ; qtot 93.358534
 2414         c3     93    bbb     C5   2414 -0.18457900  12.010000   ; qtot 93.173955
 2415          c     93    bbb     C6   2415 0.67254400  12.010000   ; qtot 93.846499
 2416         c3     93    bbb     C7   2416 -0.02083000  12.010000   ; qtot 93.825669
 2417         c3     93    bbb     C8   2417 -0.03328100  12.010000   ; qtot 93.792388
 2418          n     93    bbb     N2   2418 -0.33303000  14.010000   ; qtot 93.459358
 2419          o     93    bbb     O1   2419 -0.52917200  16.000000   ; qtot 92.930186
 2420          o     93    bbb     O2   2420 -0.52917200  16.000000   ; qtot 92.401014
 2421         hx     93    bbb     H1   2421 0.11563300   1.008000   ; qtot 92.516647
 2422         hx     93    bbb     H2   2422 0.11563300   1.008000   ; qtot 92.632280
 2423         hx     93    bbb     H3   2423 0.11563300   1.008000   ; qtot 92.747913
 2424         hx     93    bbb     H4   2424 0.11563300   1.008000   ; qtot 92.863546
 2425         hc     93    bbb     H5   2425 0.08347900   1.008000   ; qtot 92.947025
 2426         hc     93    bbb     H6   2426 0.08347900   1.008000   ; qtot 93.030504
 2427         hc     93    bbb     H7   2427 0.08347900   1.008000   ; qtot 93.113983
 2428         hc     93    bbb     H8   2428 0.08347900   1.008000   ; qtot 93.197462
 2429         hx     93    bbb     H9   2429 0.07988000   1.008000   ; qtot 93.277342
 2430         hx     93    bbb    H10   2430 0.07988000   1.008000   ; qtot 93.357222
 2431         h1     93    bbb    H11   2431 0.10618100   1.008000   ; qtot 93.463403
 2432         h1     93    bbb    H12   2432 0.10618100   1.008000   ; qtot 93.569584
 2433         hn     93    bbb    H13   2433 0.25916100   1.008000   ; qtot 93.828745
 2434         hn     93    bbb    H25   2434 0.17125500   1.008000   ; qtot 94.000000
; residue   94 bbb rtp bbb q 1.0
 2435         n4     94    bbb     N1   2435 -0.02747900  14.010000   ; qtot 93.972521
 2436         c3     94    bbb     C1   2436 -0.05097600  12.010000   ; qtot 93.921545
 2437         c3     94    bbb     C2   2437 -0.05097600  12.010000   ; qtot 93.870569
 2438         c3     94    bbb     C3   2438 -0.18457900  12.010000   ; qtot 93.685990
 2439          c     94    bbb     C4   2439 0.67254400  12.010000   ; qtot 94.358534
 2440         c3     94    bbb     C5   2440 -0.18457900  12.010000   ; qtot 94.173955
 2441          c     94    bbb     C6   2441 0.67254400  12.010000   ; qtot 94.846499
 2442         c3     94    bbb     C7   2442 -0.02083000  12.010000   ; qtot 94.825669
 2443         c3     94    bbb     C8   2443 -0.03328100  12.010000   ; qtot 94.792388
 2444          n     94    bbb     N2   2444 -0.33303000  14.010000   ; qtot 94.459358
 2445          o     94    bbb     O1   2445 -0.52917200  16.000000   ; qtot 93.930186
 2446          o     94    bbb     O2   2446 -0.52917200  16.000000   ; qtot 93.401014
 2447         hx     94    bbb     H1   2447 0.11563300   1.008000   ; qtot 93.516647
 2448         hx     94    bbb     H2   2448 0.11563300   1.008000   ; qtot 93.632280
 2449         hx     94    bbb     H3   2449 0.11563300   1.008000   ; qtot 93.747913
 2450         hx     94    bbb     H4   2450 0.11563300   1.008000   ; qtot 93.863546
 2451         hc     94    bbb     H5   2451 0.08347900   1.008000   ; qtot 93.947025
 2452         hc     94    bbb     H6   2452 0.08347900   1.008000   ; qtot 94.030504
 2453         hc     94    bbb     H7   2453 0.08347900   1.008000   ; qtot 94.113983
 2454         hc     94    bbb     H8   2454 0.08347900   1.008000   ; qtot 94.197462
 2455         hx     94    bbb     H9   2455 0.07988000   1.008000   ; qtot 94.277342
 2456         hx     94    bbb    H10   2456 0.07988000   1.008000   ; qtot 94.357222
 2457         h1     94    bbb    H11   2457 0.10618100   1.008000   ; qtot 94.463403
 2458         h1     94    bbb    H12   2458 0.10618100   1.008000   ; qtot 94.569584
 2459         hn     94    bbb    H13   2459 0.25916100   1.008000   ; qtot 94.828745
 2460         hn     94    bbb    H25   2460 0.17125500   1.008000   ; qtot 95.000000
; residue   95 bbb rtp bbb q 1.0
 2461         n4     95    bbb     N1   2461 -0.02747900  14.010000   ; qtot 94.972521
 2462         c3     95    bbb     C1   2462 -0.05097600  12.010000   ; qtot 94.921545
 2463         c3     95    bbb     C2   2463 -0.05097600  12.010000   ; qtot 94.870569
 2464         c3     95    bbb     C3   2464 -0.18457900  12.010000   ; qtot 94.685990
 2465          c     95    bbb     C4   2465 0.67254400  12.010000   ; qtot 95.358534
 2466         c3     95    bbb     C5   2466 -0.18457900  12.010000   ; qtot 95.173955
 2467          c     95    bbb     C6   2467 0.67254400  12.010000   ; qtot 95.846499
 2468         c3     95    bbb     C7   2468 -0.02083000  12.010000   ; qtot 95.825669
 2469         c3     95    bbb     C8   2469 -0.03328100  12.010000   ; qtot 95.792388
 2470          n     95    bbb     N2   2470 -0.33303000  14.010000   ; qtot 95.459358
 2471          o     95    bbb     O1   2471 -0.52917200  16.000000   ; qtot 94.930186
 2472          o     95    bbb     O2   2472 -0.52917200  16.000000   ; qtot 94.401014
 2473         hx     95    bbb     H1   2473 0.11563300   1.008000   ; qtot 94.516647
 2474         hx     95    bbb     H2   2474 0.11563300   1.008000   ; qtot 94.632280
 2475         hx     95    bbb     H3   2475 0.11563300   1.008000   ; qtot 94.747913
 2476         hx     95    bbb     H4   2476 0.11563300   1.008000   ; qtot 94.863546
 2477         hc     95    bbb     H5   2477 0.08347900   1.008000   ; qtot 94.947025
 2478         hc     95    bbb     H6   2478 0.08347900   1.008000   ; qtot 95.030504
 2479         hc     95    bbb     H7   2479 0.08347900   1.008000   ; qtot 95.113983
 2480         hc     95    bbb     H8   2480 0.08347900   1.008000   ; qtot 95.197462
 2481         hx     95    bbb     H9   2481 0.07988000   1.008000   ; qtot 95.277342
 2482         hx     95    bbb    H10   2482 0.07988000   1.008000   ; qtot 95.357222
 2483         h1     95    bbb    H11   2483 0.10618100   1.008000   ; qtot 95.463403
 2484         h1     95    bbb    H12   2484 0.10618100   1.008000   ; qtot 95.569584
 2485         hn     95    bbb    H13   2485 0.25916100   1.008000   ; qtot 95.828745
 2486         hn     95    bbb    H25   2486 0.17125500   1.008000   ; qtot 96.000000
; residue   96 bbb rtp bbb q 1.0
 2487         n4     96    bbb     N1   2487 -0.02747900  14.010000   ; qtot 95.972521
 2488         c3     96    bbb     C1   2488 -0.05097600  12.010000   ; qtot 95.921545
 2489         c3     96    bbb     C2   2489 -0.05097600  12.010000   ; qtot 95.870569
 2490         c3     96    bbb     C3   2490 -0.18457900  12.010000   ; qtot 95.685990
 2491          c     96    bbb     C4   2491 0.67254400  12.010000   ; qtot 96.358534
 2492         c3     96    bbb     C5   2492 -0.18457900  12.010000   ; qtot 96.173955
 2493          c     96    bbb     C6   2493 0.67254400  12.010000   ; qtot 96.846499
 2494         c3     96    bbb     C7   2494 -0.02083000  12.010000   ; qtot 96.825669
 2495         c3     96    bbb     C8   2495 -0.03328100  12.010000   ; qtot 96.792388
 2496          n     96    bbb     N2   2496 -0.33303000  14.010000   ; qtot 96.459358
 2497          o     96    bbb     O1   2497 -0.52917200  16.000000   ; qtot 95.930186
 2498          o     96    bbb     O2   2498 -0.52917200  16.000000   ; qtot 95.401014
 2499         hx     96    bbb     H1   2499 0.11563300   1.008000   ; qtot 95.516647
 2500         hx     96    bbb     H2   2500 0.11563300   1.008000   ; qtot 95.632280
 2501         hx     96    bbb     H3   2501 0.11563300   1.008000   ; qtot 95.747913
 2502         hx     96    bbb     H4   2502 0.11563300   1.008000   ; qtot 95.863546
 2503         hc     96    bbb     H5   2503 0.08347900   1.008000   ; qtot 95.947025
 2504         hc     96    bbb     H6   2504 0.08347900   1.008000   ; qtot 96.030504
 2505         hc     96    bbb     H7   2505 0.08347900   1.008000   ; qtot 96.113983
 2506         hc     96    bbb     H8   2506 0.08347900   1.008000   ; qtot 96.197462
 2507         hx     96    bbb     H9   2507 0.07988000   1.008000   ; qtot 96.277342
 2508         hx     96    bbb    H10   2508 0.07988000   1.008000   ; qtot 96.357222
 2509         h1     96    bbb    H11   2509 0.10618100   1.008000   ; qtot 96.463403
 2510         h1     96    bbb    H12   2510 0.10618100   1.008000   ; qtot 96.569584
 2511         hn     96    bbb    H13   2511 0.25916100   1.008000   ; qtot 96.828745
 2512         hn     96    bbb    H25   2512 0.17125500   1.008000   ; qtot 97.000000
; residue   97 bbb rtp bbb q 1.0
 2513         n4     97    bbb     N1   2513 -0.02747900  14.010000   ; qtot 96.972521
 2514         c3     97    bbb     C1   2514 -0.05097600  12.010000   ; qtot 96.921545
 2515         c3     97    bbb     C2   2515 -0.05097600  12.010000   ; qtot 96.870569
 2516         c3     97    bbb     C3   2516 -0.18457900  12.010000   ; qtot 96.685990
 2517          c     97    bbb     C4   2517 0.67254400  12.010000   ; qtot 97.358534
 2518         c3     97    bbb     C5   2518 -0.18457900  12.010000   ; qtot 97.173955
 2519          c     97    bbb     C6   2519 0.67254400  12.010000   ; qtot 97.846499
 2520         c3     97    bbb     C7   2520 -0.02083000  12.010000   ; qtot 97.825669
 2521         c3     97    bbb     C8   2521 -0.03328100  12.010000   ; qtot 97.792388
 2522          n     97    bbb     N2   2522 -0.33303000  14.010000   ; qtot 97.459358
 2523          o     97    bbb     O1   2523 -0.52917200  16.000000   ; qtot 96.930186
 2524          o     97    bbb     O2   2524 -0.52917200  16.000000   ; qtot 96.401014
 2525         hx     97    bbb     H1   2525 0.11563300   1.008000   ; qtot 96.516647
 2526         hx     97    bbb     H2   2526 0.11563300   1.008000   ; qtot 96.632280
 2527         hx     97    bbb     H3   2527 0.11563300   1.008000   ; qtot 96.747913
 2528         hx     97    bbb     H4   2528 0.11563300   1.008000   ; qtot 96.863546
 2529         hc     97    bbb     H5   2529 0.08347900   1.008000   ; qtot 96.947025
 2530         hc     97    bbb     H6   2530 0.08347900   1.008000   ; qtot 97.030504
 2531         hc     97    bbb     H7   2531 0.08347900   1.008000   ; qtot 97.113983
 2532         hc     97    bbb     H8   2532 0.08347900   1.008000   ; qtot 97.197462
 2533         hx     97    bbb     H9   2533 0.07988000   1.008000   ; qtot 97.277342
 2534         hx     97    bbb    H10   2534 0.07988000   1.008000   ; qtot 97.357222
 2535         h1     97    bbb    H11   2535 0.10618100   1.008000   ; qtot 97.463403
 2536         h1     97    bbb    H12   2536 0.10618100   1.008000   ; qtot 97.569584
 2537         hn     97    bbb    H13   2537 0.25916100   1.008000   ; qtot 97.828745
 2538         hn     97    bbb    H25   2538 0.17125500   1.008000   ; qtot 98.000000
; residue   98 bbb rtp bbb q 1.0
 2539         n4     98    bbb     N1   2539 -0.02747900  14.010000   ; qtot 97.972521
 2540         c3     98    bbb     C1   2540 -0.05097600  12.010000   ; qtot 97.921545
 2541         c3     98    bbb     C2   2541 -0.05097600  12.010000   ; qtot 97.870569
 2542         c3     98    bbb     C3   2542 -0.18457900  12.010000   ; qtot 97.685990
 2543          c     98    bbb     C4   2543 0.67254400  12.010000   ; qtot 98.358534
 2544         c3     98    bbb     C5   2544 -0.18457900  12.010000   ; qtot 98.173955
 2545          c     98    bbb     C6   2545 0.67254400  12.010000   ; qtot 98.846499
 2546         c3     98    bbb     C7   2546 -0.02083000  12.010000   ; qtot 98.825669
 2547         c3     98    bbb     C8   2547 -0.03328100  12.010000   ; qtot 98.792388
 2548          n     98    bbb     N2   2548 -0.33303000  14.010000   ; qtot 98.459358
 2549          o     98    bbb     O1   2549 -0.52917200  16.000000   ; qtot 97.930186
 2550          o     98    bbb     O2   2550 -0.52917200  16.000000   ; qtot 97.401014
 2551         hx     98    bbb     H1   2551 0.11563300   1.008000   ; qtot 97.516647
 2552         hx     98    bbb     H2   2552 0.11563300   1.008000   ; qtot 97.632280
 2553         hx     98    bbb     H3   2553 0.11563300   1.008000   ; qtot 97.747913
 2554         hx     98    bbb     H4   2554 0.11563300   1.008000   ; qtot 97.863546
 2555         hc     98    bbb     H5   2555 0.08347900   1.008000   ; qtot 97.947025
 2556         hc     98    bbb     H6   2556 0.08347900   1.008000   ; qtot 98.030504
 2557         hc     98    bbb     H7   2557 0.08347900   1.008000   ; qtot 98.113983
 2558         hc     98    bbb     H8   2558 0.08347900   1.008000   ; qtot 98.197462
 2559         hx     98    bbb     H9   2559 0.07988000   1.008000   ; qtot 98.277342
 2560         hx     98    bbb    H10   2560 0.07988000   1.008000   ; qtot 98.357222
 2561         h1     98    bbb    H11   2561 0.10618100   1.008000   ; qtot 98.463403
 2562         h1     98    bbb    H12   2562 0.10618100   1.008000   ; qtot 98.569584
 2563         hn     98    bbb    H13   2563 0.25916100   1.008000   ; qtot 98.828745
 2564         hn     98    bbb    H25   2564 0.17125500   1.008000   ; qtot 99.000000
; residue   99 bbb rtp bbb q 1.0
 2565         n4     99    bbb     N1   2565 -0.02747900  14.010000   ; qtot 98.972521
 2566         c3     99    bbb     C1   2566 -0.05097600  12.010000   ; qtot 98.921545
 2567         c3     99    bbb     C2   2567 -0.05097600  12.010000   ; qtot 98.870569
 2568         c3     99    bbb     C3   2568 -0.18457900  12.010000   ; qtot 98.685990
 2569          c     99    bbb     C4   2569 0.67254400  12.010000   ; qtot 99.358534
 2570         c3     99    bbb     C5   2570 -0.18457900  12.010000   ; qtot 99.173955
 2571          c     99    bbb     C6   2571 0.67254400  12.010000   ; qtot 99.846499
 2572         c3     99    bbb     C7   2572 -0.02083000  12.010000   ; qtot 99.825669
 2573         c3     99    bbb     C8   2573 -0.03328100  12.010000   ; qtot 99.792388
 2574          n     99    bbb     N2   2574 -0.33303000  14.010000   ; qtot 99.459358
 2575          o     99    bbb     O1   2575 -0.52917200  16.000000   ; qtot 98.930186
 2576          o     99    bbb     O2   2576 -0.52917200  16.000000   ; qtot 98.401014
 2577         hx     99    bbb     H1   2577 0.11563300   1.008000   ; qtot 98.516647
 2578         hx     99    bbb     H2   2578 0.11563300   1.008000   ; qtot 98.632280
 2579         hx     99    bbb     H3   2579 0.11563300   1.008000   ; qtot 98.747913
 2580         hx     99    bbb     H4   2580 0.11563300   1.008000   ; qtot 98.863546
 2581         hc     99    bbb     H5   2581 0.08347900   1.008000   ; qtot 98.947025
 2582         hc     99    bbb     H6   2582 0.08347900   1.008000   ; qtot 99.030504
 2583         hc     99    bbb     H7   2583 0.08347900   1.008000   ; qtot 99.113983
 2584         hc     99    bbb     H8   2584 0.08347900   1.008000   ; qtot 99.197462
 2585         hx     99    bbb     H9   2585 0.07988000   1.008000   ; qtot 99.277342
 2586         hx     99    bbb    H10   2586 0.07988000   1.008000   ; qtot 99.357222
 2587         h1     99    bbb    H11   2587 0.10618100   1.008000   ; qtot 99.463403
 2588         h1     99    bbb    H12   2588 0.10618100   1.008000   ; qtot 99.569584
 2589         hn     99    bbb    H13   2589 0.25916100   1.008000   ; qtot 99.828745
 2590         hn     99    bbb    H25   2590 0.17125500   1.008000   ; qtot 100.000000
; residue  100 bbb rtp bbb q 1.0
 2591         n4    100    bbb     N1   2591 -0.02747900  14.010000   ; qtot 99.972521
 2592         c3    100    bbb     C1   2592 -0.05097600  12.010000   ; qtot 99.921545
 2593         c3    100    bbb     C2   2593 -0.05097600  12.010000   ; qtot 99.870569
 2594         c3    100    bbb     C3   2594 -0.18457900  12.010000   ; qtot 99.685990
 2595          c    100    bbb     C4   2595 0.67254400  12.010000   ; qtot 100.358534
 2596         c3    100    bbb     C5   2596 -0.18457900  12.010000   ; qtot 100.173955
 2597          c    100    bbb     C6   2597 0.67254400  12.010000   ; qtot 100.846499
 2598         c3    100    bbb     C7   2598 -0.02083000  12.010000   ; qtot 100.825669
 2599         c3    100    bbb     C8   2599 -0.03328100  12.010000   ; qtot 100.792388
 2600          n    100    bbb     N2   2600 -0.33303000  14.010000   ; qtot 100.459358
 2601          o    100    bbb     O1   2601 -0.52917200  16.000000   ; qtot 99.930186
 2602          o    100    bbb     O2   2602 -0.52917200  16.000000   ; qtot 99.401014
 2603         hx    100    bbb     H1   2603 0.11563300   1.008000   ; qtot 99.516647
 2604         hx    100    bbb     H2   2604 0.11563300   1.008000   ; qtot 99.632280
 2605         hx    100    bbb     H3   2605 0.11563300   1.008000   ; qtot 99.747913
 2606         hx    100    bbb     H4   2606 0.11563300   1.008000   ; qtot 99.863546
 2607         hc    100    bbb     H5   2607 0.08347900   1.008000   ; qtot 99.947025
 2608         hc    100    bbb     H6   2608 0.08347900   1.008000   ; qtot 100.030504
 2609         hc    100    bbb     H7   2609 0.08347900   1.008000   ; qtot 100.113983
 2610         hc    100    bbb     H8   2610 0.08347900   1.008000   ; qtot 100.197462
 2611         hx    100    bbb     H9   2611 0.07988000   1.008000   ; qtot 100.277342
 2612         hx    100    bbb    H10   2612 0.07988000   1.008000   ; qtot 100.357222
 2613         h1    100    bbb    H11   2613 0.10618100   1.008000   ; qtot 100.463403
 2614         h1    100    bbb    H12   2614 0.10618100   1.008000   ; qtot 100.569584
 2615         hn    100    bbb    H13   2615 0.25916100   1.008000   ; qtot 100.828745
 2616         hn    100    bbb    H25   2616 0.17125500   1.008000   ; qtot 101.000000
; residue  101 bbb rtp bbb q 1.0
 2617         n4    101    bbb     N1   2617 -0.02747900  14.010000   ; qtot 100.972521
 2618         c3    101    bbb     C1   2618 -0.05097600  12.010000   ; qtot 100.921545
 2619         c3    101    bbb     C2   2619 -0.05097600  12.010000   ; qtot 100.870569
 2620         c3    101    bbb     C3   2620 -0.18457900  12.010000   ; qtot 100.685990
 2621          c    101    bbb     C4   2621 0.67254400  12.010000   ; qtot 101.358534
 2622         c3    101    bbb     C5   2622 -0.18457900  12.010000   ; qtot 101.173955
 2623          c    101    bbb     C6   2623 0.67254400  12.010000   ; qtot 101.846499
 2624         c3    101    bbb     C7   2624 -0.02083000  12.010000   ; qtot 101.825669
 2625         c3    101    bbb     C8   2625 -0.03328100  12.010000   ; qtot 101.792388
 2626          n    101    bbb     N2   2626 -0.33303000  14.010000   ; qtot 101.459358
 2627          o    101    bbb     O1   2627 -0.52917200  16.000000   ; qtot 100.930186
 2628          o    101    bbb     O2   2628 -0.52917200  16.000000   ; qtot 100.401014
 2629         hx    101    bbb     H1   2629 0.11563300   1.008000   ; qtot 100.516647
 2630         hx    101    bbb     H2   2630 0.11563300   1.008000   ; qtot 100.632280
 2631         hx    101    bbb     H3   2631 0.11563300   1.008000   ; qtot 100.747913
 2632         hx    101    bbb     H4   2632 0.11563300   1.008000   ; qtot 100.863546
 2633         hc    101    bbb     H5   2633 0.08347900   1.008000   ; qtot 100.947025
 2634         hc    101    bbb     H6   2634 0.08347900   1.008000   ; qtot 101.030504
 2635         hc    101    bbb     H7   2635 0.08347900   1.008000   ; qtot 101.113983
 2636         hc    101    bbb     H8   2636 0.08347900   1.008000   ; qtot 101.197462
 2637         hx    101    bbb     H9   2637 0.07988000   1.008000   ; qtot 101.277342
 2638         hx    101    bbb    H10   2638 0.07988000   1.008000   ; qtot 101.357222
 2639         h1    101    bbb    H11   2639 0.10618100   1.008000   ; qtot 101.463403
 2640         h1    101    bbb    H12   2640 0.10618100   1.008000   ; qtot 101.569584
 2641         hn    101    bbb    H13   2641 0.25916100   1.008000   ; qtot 101.828745
 2642         hn    101    bbb    H25   2642 0.17125500   1.008000   ; qtot 102.000000
; residue  102 bbb rtp bbb q 1.0
 2643         n4    102    bbb     N1   2643 -0.02747900  14.010000   ; qtot 101.972521
 2644         c3    102    bbb     C1   2644 -0.05097600  12.010000   ; qtot 101.921545
 2645         c3    102    bbb     C2   2645 -0.05097600  12.010000   ; qtot 101.870569
 2646         c3    102    bbb     C3   2646 -0.18457900  12.010000   ; qtot 101.685990
 2647          c    102    bbb     C4   2647 0.67254400  12.010000   ; qtot 102.358534
 2648         c3    102    bbb     C5   2648 -0.18457900  12.010000   ; qtot 102.173955
 2649          c    102    bbb     C6   2649 0.67254400  12.010000   ; qtot 102.846499
 2650         c3    102    bbb     C7   2650 -0.02083000  12.010000   ; qtot 102.825669
 2651         c3    102    bbb     C8   2651 -0.03328100  12.010000   ; qtot 102.792388
 2652          n    102    bbb     N2   2652 -0.33303000  14.010000   ; qtot 102.459358
 2653          o    102    bbb     O1   2653 -0.52917200  16.000000   ; qtot 101.930186
 2654          o    102    bbb     O2   2654 -0.52917200  16.000000   ; qtot 101.401014
 2655         hx    102    bbb     H1   2655 0.11563300   1.008000   ; qtot 101.516647
 2656         hx    102    bbb     H2   2656 0.11563300   1.008000   ; qtot 101.632280
 2657         hx    102    bbb     H3   2657 0.11563300   1.008000   ; qtot 101.747913
 2658         hx    102    bbb     H4   2658 0.11563300   1.008000   ; qtot 101.863546
 2659         hc    102    bbb     H5   2659 0.08347900   1.008000   ; qtot 101.947025
 2660         hc    102    bbb     H6   2660 0.08347900   1.008000   ; qtot 102.030504
 2661         hc    102    bbb     H7   2661 0.08347900   1.008000   ; qtot 102.113983
 2662         hc    102    bbb     H8   2662 0.08347900   1.008000   ; qtot 102.197462
 2663         hx    102    bbb     H9   2663 0.07988000   1.008000   ; qtot 102.277342
 2664         hx    102    bbb    H10   2664 0.07988000   1.008000   ; qtot 102.357222
 2665         h1    102    bbb    H11   2665 0.10618100   1.008000   ; qtot 102.463403
 2666         h1    102    bbb    H12   2666 0.10618100   1.008000   ; qtot 102.569584
 2667         hn    102    bbb    H13   2667 0.25916100   1.008000   ; qtot 102.828745
 2668         hn    102    bbb    H25   2668 0.17125500   1.008000   ; qtot 103.000000
; residue  103 bbb rtp bbb q 1.0
 2669         n4    103    bbb     N1   2669 -0.02747900  14.010000   ; qtot 102.972521
 2670         c3    103    bbb     C1   2670 -0.05097600  12.010000   ; qtot 102.921545
 2671         c3    103    bbb     C2   2671 -0.05097600  12.010000   ; qtot 102.870569
 2672         c3    103    bbb     C3   2672 -0.18457900  12.010000   ; qtot 102.685990
 2673          c    103    bbb     C4   2673 0.67254400  12.010000   ; qtot 103.358534
 2674         c3    103    bbb     C5   2674 -0.18457900  12.010000   ; qtot 103.173955
 2675          c    103    bbb     C6   2675 0.67254400  12.010000   ; qtot 103.846499
 2676         c3    103    bbb     C7   2676 -0.02083000  12.010000   ; qtot 103.825669
 2677         c3    103    bbb     C8   2677 -0.03328100  12.010000   ; qtot 103.792388
 2678          n    103    bbb     N2   2678 -0.33303000  14.010000   ; qtot 103.459358
 2679          o    103    bbb     O1   2679 -0.52917200  16.000000   ; qtot 102.930186
 2680          o    103    bbb     O2   2680 -0.52917200  16.000000   ; qtot 102.401014
 2681         hx    103    bbb     H1   2681 0.11563300   1.008000   ; qtot 102.516647
 2682         hx    103    bbb     H2   2682 0.11563300   1.008000   ; qtot 102.632280
 2683         hx    103    bbb     H3   2683 0.11563300   1.008000   ; qtot 102.747913
 2684         hx    103    bbb     H4   2684 0.11563300   1.008000   ; qtot 102.863546
 2685         hc    103    bbb     H5   2685 0.08347900   1.008000   ; qtot 102.947025
 2686         hc    103    bbb     H6   2686 0.08347900   1.008000   ; qtot 103.030504
 2687         hc    103    bbb     H7   2687 0.08347900   1.008000   ; qtot 103.113983
 2688         hc    103    bbb     H8   2688 0.08347900   1.008000   ; qtot 103.197462
 2689         hx    103    bbb     H9   2689 0.07988000   1.008000   ; qtot 103.277342
 2690         hx    103    bbb    H10   2690 0.07988000   1.008000   ; qtot 103.357222
 2691         h1    103    bbb    H11   2691 0.10618100   1.008000   ; qtot 103.463403
 2692         h1    103    bbb    H12   2692 0.10618100   1.008000   ; qtot 103.569584
 2693         hn    103    bbb    H13   2693 0.25916100   1.008000   ; qtot 103.828745
 2694         hn    103    bbb    H25   2694 0.17125500   1.008000   ; qtot 104.000000
; residue  104 bbb rtp bbb q 1.0
 2695         n4    104    bbb     N1   2695 -0.02747900  14.010000   ; qtot 103.972521
 2696         c3    104    bbb     C1   2696 -0.05097600  12.010000   ; qtot 103.921545
 2697         c3    104    bbb     C2   2697 -0.05097600  12.010000   ; qtot 103.870569
 2698         c3    104    bbb     C3   2698 -0.18457900  12.010000   ; qtot 103.685990
 2699          c    104    bbb     C4   2699 0.67254400  12.010000   ; qtot 104.358534
 2700         c3    104    bbb     C5   2700 -0.18457900  12.010000   ; qtot 104.173955
 2701          c    104    bbb     C6   2701 0.67254400  12.010000   ; qtot 104.846499
 2702         c3    104    bbb     C7   2702 -0.02083000  12.010000   ; qtot 104.825669
 2703         c3    104    bbb     C8   2703 -0.03328100  12.010000   ; qtot 104.792388
 2704          n    104    bbb     N2   2704 -0.33303000  14.010000   ; qtot 104.459358
 2705          o    104    bbb     O1   2705 -0.52917200  16.000000   ; qtot 103.930186
 2706          o    104    bbb     O2   2706 -0.52917200  16.000000   ; qtot 103.401014
 2707         hx    104    bbb     H1   2707 0.11563300   1.008000   ; qtot 103.516647
 2708         hx    104    bbb     H2   2708 0.11563300   1.008000   ; qtot 103.632280
 2709         hx    104    bbb     H3   2709 0.11563300   1.008000   ; qtot 103.747913
 2710         hx    104    bbb     H4   2710 0.11563300   1.008000   ; qtot 103.863546
 2711         hc    104    bbb     H5   2711 0.08347900   1.008000   ; qtot 103.947025
 2712         hc    104    bbb     H6   2712 0.08347900   1.008000   ; qtot 104.030504
 2713         hc    104    bbb     H7   2713 0.08347900   1.008000   ; qtot 104.113983
 2714         hc    104    bbb     H8   2714 0.08347900   1.008000   ; qtot 104.197462
 2715         hx    104    bbb     H9   2715 0.07988000   1.008000   ; qtot 104.277342
 2716         hx    104    bbb    H10   2716 0.07988000   1.008000   ; qtot 104.357222
 2717         h1    104    bbb    H11   2717 0.10618100   1.008000   ; qtot 104.463403
 2718         h1    104    bbb    H12   2718 0.10618100   1.008000   ; qtot 104.569584
 2719         hn    104    bbb    H13   2719 0.25916100   1.008000   ; qtot 104.828745
 2720         hn    104    bbb    H25   2720 0.17125500   1.008000   ; qtot 105.000000
; residue  105 bbb rtp bbb q 1.0
 2721         n4    105    bbb     N1   2721 -0.02747900  14.010000   ; qtot 104.972521
 2722         c3    105    bbb     C1   2722 -0.05097600  12.010000   ; qtot 104.921545
 2723         c3    105    bbb     C2   2723 -0.05097600  12.010000   ; qtot 104.870569
 2724         c3    105    bbb     C3   2724 -0.18457900  12.010000   ; qtot 104.685990
 2725          c    105    bbb     C4   2725 0.67254400  12.010000   ; qtot 105.358534
 2726         c3    105    bbb     C5   2726 -0.18457900  12.010000   ; qtot 105.173955
 2727          c    105    bbb     C6   2727 0.67254400  12.010000   ; qtot 105.846499
 2728         c3    105    bbb     C7   2728 -0.02083000  12.010000   ; qtot 105.825669
 2729         c3    105    bbb     C8   2729 -0.03328100  12.010000   ; qtot 105.792388
 2730          n    105    bbb     N2   2730 -0.33303000  14.010000   ; qtot 105.459358
 2731          o    105    bbb     O1   2731 -0.52917200  16.000000   ; qtot 104.930186
 2732          o    105    bbb     O2   2732 -0.52917200  16.000000   ; qtot 104.401014
 2733         hx    105    bbb     H1   2733 0.11563300   1.008000   ; qtot 104.516647
 2734         hx    105    bbb     H2   2734 0.11563300   1.008000   ; qtot 104.632280
 2735         hx    105    bbb     H3   2735 0.11563300   1.008000   ; qtot 104.747913
 2736         hx    105    bbb     H4   2736 0.11563300   1.008000   ; qtot 104.863546
 2737         hc    105    bbb     H5   2737 0.08347900   1.008000   ; qtot 104.947025
 2738         hc    105    bbb     H6   2738 0.08347900   1.008000   ; qtot 105.030504
 2739         hc    105    bbb     H7   2739 0.08347900   1.008000   ; qtot 105.113983
 2740         hc    105    bbb     H8   2740 0.08347900   1.008000   ; qtot 105.197462
 2741         hx    105    bbb     H9   2741 0.07988000   1.008000   ; qtot 105.277342
 2742         hx    105    bbb    H10   2742 0.07988000   1.008000   ; qtot 105.357222
 2743         h1    105    bbb    H11   2743 0.10618100   1.008000   ; qtot 105.463403
 2744         h1    105    bbb    H12   2744 0.10618100   1.008000   ; qtot 105.569584
 2745         hn    105    bbb    H13   2745 0.25916100   1.008000   ; qtot 105.828745
 2746         hn    105    bbb    H25   2746 0.17125500   1.008000   ; qtot 106.000000
; residue  106 bbb rtp bbb q 1.0
 2747         n4    106    bbb     N1   2747 -0.02747900  14.010000   ; qtot 105.972521
 2748         c3    106    bbb     C1   2748 -0.05097600  12.010000   ; qtot 105.921545
 2749         c3    106    bbb     C2   2749 -0.05097600  12.010000   ; qtot 105.870569
 2750         c3    106    bbb     C3   2750 -0.18457900  12.010000   ; qtot 105.685990
 2751          c    106    bbb     C4   2751 0.67254400  12.010000   ; qtot 106.358534
 2752         c3    106    bbb     C5   2752 -0.18457900  12.010000   ; qtot 106.173955
 2753          c    106    bbb     C6   2753 0.67254400  12.010000   ; qtot 106.846499
 2754         c3    106    bbb     C7   2754 -0.02083000  12.010000   ; qtot 106.825669
 2755         c3    106    bbb     C8   2755 -0.03328100  12.010000   ; qtot 106.792388
 2756          n    106    bbb     N2   2756 -0.33303000  14.010000   ; qtot 106.459358
 2757          o    106    bbb     O1   2757 -0.52917200  16.000000   ; qtot 105.930186
 2758          o    106    bbb     O2   2758 -0.52917200  16.000000   ; qtot 105.401014
 2759         hx    106    bbb     H1   2759 0.11563300   1.008000   ; qtot 105.516647
 2760         hx    106    bbb     H2   2760 0.11563300   1.008000   ; qtot 105.632280
 2761         hx    106    bbb     H3   2761 0.11563300   1.008000   ; qtot 105.747913
 2762         hx    106    bbb     H4   2762 0.11563300   1.008000   ; qtot 105.863546
 2763         hc    106    bbb     H5   2763 0.08347900   1.008000   ; qtot 105.947025
 2764         hc    106    bbb     H6   2764 0.08347900   1.008000   ; qtot 106.030504
 2765         hc    106    bbb     H7   2765 0.08347900   1.008000   ; qtot 106.113983
 2766         hc    106    bbb     H8   2766 0.08347900   1.008000   ; qtot 106.197462
 2767         hx    106    bbb     H9   2767 0.07988000   1.008000   ; qtot 106.277342
 2768         hx    106    bbb    H10   2768 0.07988000   1.008000   ; qtot 106.357222
 2769         h1    106    bbb    H11   2769 0.10618100   1.008000   ; qtot 106.463403
 2770         h1    106    bbb    H12   2770 0.10618100   1.008000   ; qtot 106.569584
 2771         hn    106    bbb    H13   2771 0.25916100   1.008000   ; qtot 106.828745
 2772         hn    106    bbb    H25   2772 0.17125500   1.008000   ; qtot 107.000000
; residue  107 bbb rtp bbb q 1.0
 2773         n4    107    bbb     N1   2773 -0.02747900  14.010000   ; qtot 106.972521
 2774         c3    107    bbb     C1   2774 -0.05097600  12.010000   ; qtot 106.921545
 2775         c3    107    bbb     C2   2775 -0.05097600  12.010000   ; qtot 106.870569
 2776         c3    107    bbb     C3   2776 -0.18457900  12.010000   ; qtot 106.685990
 2777          c    107    bbb     C4   2777 0.67254400  12.010000   ; qtot 107.358534
 2778         c3    107    bbb     C5   2778 -0.18457900  12.010000   ; qtot 107.173955
 2779          c    107    bbb     C6   2779 0.67254400  12.010000   ; qtot 107.846499
 2780         c3    107    bbb     C7   2780 -0.02083000  12.010000   ; qtot 107.825669
 2781         c3    107    bbb     C8   2781 -0.03328100  12.010000   ; qtot 107.792388
 2782          n    107    bbb     N2   2782 -0.33303000  14.010000   ; qtot 107.459358
 2783          o    107    bbb     O1   2783 -0.52917200  16.000000   ; qtot 106.930186
 2784          o    107    bbb     O2   2784 -0.52917200  16.000000   ; qtot 106.401014
 2785         hx    107    bbb     H1   2785 0.11563300   1.008000   ; qtot 106.516647
 2786         hx    107    bbb     H2   2786 0.11563300   1.008000   ; qtot 106.632280
 2787         hx    107    bbb     H3   2787 0.11563300   1.008000   ; qtot 106.747913
 2788         hx    107    bbb     H4   2788 0.11563300   1.008000   ; qtot 106.863546
 2789         hc    107    bbb     H5   2789 0.08347900   1.008000   ; qtot 106.947025
 2790         hc    107    bbb     H6   2790 0.08347900   1.008000   ; qtot 107.030504
 2791         hc    107    bbb     H7   2791 0.08347900   1.008000   ; qtot 107.113983
 2792         hc    107    bbb     H8   2792 0.08347900   1.008000   ; qtot 107.197462
 2793         hx    107    bbb     H9   2793 0.07988000   1.008000   ; qtot 107.277342
 2794         hx    107    bbb    H10   2794 0.07988000   1.008000   ; qtot 107.357222
 2795         h1    107    bbb    H11   2795 0.10618100   1.008000   ; qtot 107.463403
 2796         h1    107    bbb    H12   2796 0.10618100   1.008000   ; qtot 107.569584
 2797         hn    107    bbb    H13   2797 0.25916100   1.008000   ; qtot 107.828745
 2798         hn    107    bbb    H25   2798 0.17125500   1.008000   ; qtot 108.000000
; residue  108 bbb rtp bbb q 1.0
 2799         n4    108    bbb     N1   2799 -0.02747900  14.010000   ; qtot 107.972521
 2800         c3    108    bbb     C1   2800 -0.05097600  12.010000   ; qtot 107.921545
 2801         c3    108    bbb     C2   2801 -0.05097600  12.010000   ; qtot 107.870569
 2802         c3    108    bbb     C3   2802 -0.18457900  12.010000   ; qtot 107.685990
 2803          c    108    bbb     C4   2803 0.67254400  12.010000   ; qtot 108.358534
 2804         c3    108    bbb     C5   2804 -0.18457900  12.010000   ; qtot 108.173955
 2805          c    108    bbb     C6   2805 0.67254400  12.010000   ; qtot 108.846499
 2806         c3    108    bbb     C7   2806 -0.02083000  12.010000   ; qtot 108.825669
 2807         c3    108    bbb     C8   2807 -0.03328100  12.010000   ; qtot 108.792388
 2808          n    108    bbb     N2   2808 -0.33303000  14.010000   ; qtot 108.459358
 2809          o    108    bbb     O1   2809 -0.52917200  16.000000   ; qtot 107.930186
 2810          o    108    bbb     O2   2810 -0.52917200  16.000000   ; qtot 107.401014
 2811         hx    108    bbb     H1   2811 0.11563300   1.008000   ; qtot 107.516647
 2812         hx    108    bbb     H2   2812 0.11563300   1.008000   ; qtot 107.632280
 2813         hx    108    bbb     H3   2813 0.11563300   1.008000   ; qtot 107.747913
 2814         hx    108    bbb     H4   2814 0.11563300   1.008000   ; qtot 107.863546
 2815         hc    108    bbb     H5   2815 0.08347900   1.008000   ; qtot 107.947025
 2816         hc    108    bbb     H6   2816 0.08347900   1.008000   ; qtot 108.030504
 2817         hc    108    bbb     H7   2817 0.08347900   1.008000   ; qtot 108.113983
 2818         hc    108    bbb     H8   2818 0.08347900   1.008000   ; qtot 108.197462
 2819         hx    108    bbb     H9   2819 0.07988000   1.008000   ; qtot 108.277342
 2820         hx    108    bbb    H10   2820 0.07988000   1.008000   ; qtot 108.357222
 2821         h1    108    bbb    H11   2821 0.10618100   1.008000   ; qtot 108.463403
 2822         h1    108    bbb    H12   2822 0.10618100   1.008000   ; qtot 108.569584
 2823         hn    108    bbb    H13   2823 0.25916100   1.008000   ; qtot 108.828745
 2824         hn    108    bbb    H25   2824 0.17125500   1.008000   ; qtot 109.000000
; residue  109 bbb rtp bbb q 1.0
 2825         n4    109    bbb     N1   2825 -0.02747900  14.010000   ; qtot 108.972521
 2826         c3    109    bbb     C1   2826 -0.05097600  12.010000   ; qtot 108.921545
 2827         c3    109    bbb     C2   2827 -0.05097600  12.010000   ; qtot 108.870569
 2828         c3    109    bbb     C3   2828 -0.18457900  12.010000   ; qtot 108.685990
 2829          c    109    bbb     C4   2829 0.67254400  12.010000   ; qtot 109.358534
 2830         c3    109    bbb     C5   2830 -0.18457900  12.010000   ; qtot 109.173955
 2831          c    109    bbb     C6   2831 0.67254400  12.010000   ; qtot 109.846499
 2832         c3    109    bbb     C7   2832 -0.02083000  12.010000   ; qtot 109.825669
 2833         c3    109    bbb     C8   2833 -0.03328100  12.010000   ; qtot 109.792388
 2834          n    109    bbb     N2   2834 -0.33303000  14.010000   ; qtot 109.459358
 2835          o    109    bbb     O1   2835 -0.52917200  16.000000   ; qtot 108.930186
 2836          o    109    bbb     O2   2836 -0.52917200  16.000000   ; qtot 108.401014
 2837         hx    109    bbb     H1   2837 0.11563300   1.008000   ; qtot 108.516647
 2838         hx    109    bbb     H2   2838 0.11563300   1.008000   ; qtot 108.632280
 2839         hx    109    bbb     H3   2839 0.11563300   1.008000   ; qtot 108.747913
 2840         hx    109    bbb     H4   2840 0.11563300   1.008000   ; qtot 108.863546
 2841         hc    109    bbb     H5   2841 0.08347900   1.008000   ; qtot 108.947025
 2842         hc    109    bbb     H6   2842 0.08347900   1.008000   ; qtot 109.030504
 2843         hc    109    bbb     H7   2843 0.08347900   1.008000   ; qtot 109.113983
 2844         hc    109    bbb     H8   2844 0.08347900   1.008000   ; qtot 109.197462
 2845         hx    109    bbb     H9   2845 0.07988000   1.008000   ; qtot 109.277342
 2846         hx    109    bbb    H10   2846 0.07988000   1.008000   ; qtot 109.357222
 2847         h1    109    bbb    H11   2847 0.10618100   1.008000   ; qtot 109.463403
 2848         h1    109    bbb    H12   2848 0.10618100   1.008000   ; qtot 109.569584
 2849         hn    109    bbb    H13   2849 0.25916100   1.008000   ; qtot 109.828745
 2850         hn    109    bbb    H25   2850 0.17125500   1.008000   ; qtot 110.000000
; residue  110 bbb rtp bbb q 1.0
 2851         n4    110    bbb     N1   2851 -0.02747900  14.010000   ; qtot 109.972521
 2852         c3    110    bbb     C1   2852 -0.05097600  12.010000   ; qtot 109.921545
 2853         c3    110    bbb     C2   2853 -0.05097600  12.010000   ; qtot 109.870569
 2854         c3    110    bbb     C3   2854 -0.18457900  12.010000   ; qtot 109.685990
 2855          c    110    bbb     C4   2855 0.67254400  12.010000   ; qtot 110.358534
 2856         c3    110    bbb     C5   2856 -0.18457900  12.010000   ; qtot 110.173955
 2857          c    110    bbb     C6   2857 0.67254400  12.010000   ; qtot 110.846499
 2858         c3    110    bbb     C7   2858 -0.02083000  12.010000   ; qtot 110.825669
 2859         c3    110    bbb     C8   2859 -0.03328100  12.010000   ; qtot 110.792388
 2860          n    110    bbb     N2   2860 -0.33303000  14.010000   ; qtot 110.459358
 2861          o    110    bbb     O1   2861 -0.52917200  16.000000   ; qtot 109.930186
 2862          o    110    bbb     O2   2862 -0.52917200  16.000000   ; qtot 109.401014
 2863         hx    110    bbb     H1   2863 0.11563300   1.008000   ; qtot 109.516647
 2864         hx    110    bbb     H2   2864 0.11563300   1.008000   ; qtot 109.632280
 2865         hx    110    bbb     H3   2865 0.11563300   1.008000   ; qtot 109.747913
 2866         hx    110    bbb     H4   2866 0.11563300   1.008000   ; qtot 109.863546
 2867         hc    110    bbb     H5   2867 0.08347900   1.008000   ; qtot 109.947025
 2868         hc    110    bbb     H6   2868 0.08347900   1.008000   ; qtot 110.030504
 2869         hc    110    bbb     H7   2869 0.08347900   1.008000   ; qtot 110.113983
 2870         hc    110    bbb     H8   2870 0.08347900   1.008000   ; qtot 110.197462
 2871         hx    110    bbb     H9   2871 0.07988000   1.008000   ; qtot 110.277342
 2872         hx    110    bbb    H10   2872 0.07988000   1.008000   ; qtot 110.357222
 2873         h1    110    bbb    H11   2873 0.10618100   1.008000   ; qtot 110.463403
 2874         h1    110    bbb    H12   2874 0.10618100   1.008000   ; qtot 110.569584
 2875         hn    110    bbb    H13   2875 0.25916100   1.008000   ; qtot 110.828745
 2876         hn    110    bbb    H25   2876 0.17125500   1.008000   ; qtot 111.000000
; residue  111 bbb rtp bbb q 1.0
 2877         n4    111    bbb     N1   2877 -0.02747900  14.010000   ; qtot 110.972521
 2878         c3    111    bbb     C1   2878 -0.05097600  12.010000   ; qtot 110.921545
 2879         c3    111    bbb     C2   2879 -0.05097600  12.010000   ; qtot 110.870569
 2880         c3    111    bbb     C3   2880 -0.18457900  12.010000   ; qtot 110.685990
 2881          c    111    bbb     C4   2881 0.67254400  12.010000   ; qtot 111.358534
 2882         c3    111    bbb     C5   2882 -0.18457900  12.010000   ; qtot 111.173955
 2883          c    111    bbb     C6   2883 0.67254400  12.010000   ; qtot 111.846499
 2884         c3    111    bbb     C7   2884 -0.02083000  12.010000   ; qtot 111.825669
 2885         c3    111    bbb     C8   2885 -0.03328100  12.010000   ; qtot 111.792388
 2886          n    111    bbb     N2   2886 -0.33303000  14.010000   ; qtot 111.459358
 2887          o    111    bbb     O1   2887 -0.52917200  16.000000   ; qtot 110.930186
 2888          o    111    bbb     O2   2888 -0.52917200  16.000000   ; qtot 110.401014
 2889         hx    111    bbb     H1   2889 0.11563300   1.008000   ; qtot 110.516647
 2890         hx    111    bbb     H2   2890 0.11563300   1.008000   ; qtot 110.632280
 2891         hx    111    bbb     H3   2891 0.11563300   1.008000   ; qtot 110.747913
 2892         hx    111    bbb     H4   2892 0.11563300   1.008000   ; qtot 110.863546
 2893         hc    111    bbb     H5   2893 0.08347900   1.008000   ; qtot 110.947025
 2894         hc    111    bbb     H6   2894 0.08347900   1.008000   ; qtot 111.030504
 2895         hc    111    bbb     H7   2895 0.08347900   1.008000   ; qtot 111.113983
 2896         hc    111    bbb     H8   2896 0.08347900   1.008000   ; qtot 111.197462
 2897         hx    111    bbb     H9   2897 0.07988000   1.008000   ; qtot 111.277342
 2898         hx    111    bbb    H10   2898 0.07988000   1.008000   ; qtot 111.357222
 2899         h1    111    bbb    H11   2899 0.10618100   1.008000   ; qtot 111.463403
 2900         h1    111    bbb    H12   2900 0.10618100   1.008000   ; qtot 111.569584
 2901         hn    111    bbb    H13   2901 0.25916100   1.008000   ; qtot 111.828745
 2902         hn    111    bbb    H25   2902 0.17125500   1.008000   ; qtot 112.000000
; residue  112 bbb rtp bbb q 1.0
 2903         n4    112    bbb     N1   2903 -0.02747900  14.010000   ; qtot 111.972521
 2904         c3    112    bbb     C1   2904 -0.05097600  12.010000   ; qtot 111.921545
 2905         c3    112    bbb     C2   2905 -0.05097600  12.010000   ; qtot 111.870569
 2906         c3    112    bbb     C3   2906 -0.18457900  12.010000   ; qtot 111.685990
 2907          c    112    bbb     C4   2907 0.67254400  12.010000   ; qtot 112.358534
 2908         c3    112    bbb     C5   2908 -0.18457900  12.010000   ; qtot 112.173955
 2909          c    112    bbb     C6   2909 0.67254400  12.010000   ; qtot 112.846499
 2910         c3    112    bbb     C7   2910 -0.02083000  12.010000   ; qtot 112.825669
 2911         c3    112    bbb     C8   2911 -0.03328100  12.010000   ; qtot 112.792388
 2912          n    112    bbb     N2   2912 -0.33303000  14.010000   ; qtot 112.459358
 2913          o    112    bbb     O1   2913 -0.52917200  16.000000   ; qtot 111.930186
 2914          o    112    bbb     O2   2914 -0.52917200  16.000000   ; qtot 111.401014
 2915         hx    112    bbb     H1   2915 0.11563300   1.008000   ; qtot 111.516647
 2916         hx    112    bbb     H2   2916 0.11563300   1.008000   ; qtot 111.632280
 2917         hx    112    bbb     H3   2917 0.11563300   1.008000   ; qtot 111.747913
 2918         hx    112    bbb     H4   2918 0.11563300   1.008000   ; qtot 111.863546
 2919         hc    112    bbb     H5   2919 0.08347900   1.008000   ; qtot 111.947025
 2920         hc    112    bbb     H6   2920 0.08347900   1.008000   ; qtot 112.030504
 2921         hc    112    bbb     H7   2921 0.08347900   1.008000   ; qtot 112.113983
 2922         hc    112    bbb     H8   2922 0.08347900   1.008000   ; qtot 112.197462
 2923         hx    112    bbb     H9   2923 0.07988000   1.008000   ; qtot 112.277342
 2924         hx    112    bbb    H10   2924 0.07988000   1.008000   ; qtot 112.357222
 2925         h1    112    bbb    H11   2925 0.10618100   1.008000   ; qtot 112.463403
 2926         h1    112    bbb    H12   2926 0.10618100   1.008000   ; qtot 112.569584
 2927         hn    112    bbb    H13   2927 0.25916100   1.008000   ; qtot 112.828745
 2928         hn    112    bbb    H25   2928 0.17125500   1.008000   ; qtot 113.000000
; residue  113 bbb rtp bbb q 1.0
 2929         n4    113    bbb     N1   2929 -0.02747900  14.010000   ; qtot 112.972521
 2930         c3    113    bbb     C1   2930 -0.05097600  12.010000   ; qtot 112.921545
 2931         c3    113    bbb     C2   2931 -0.05097600  12.010000   ; qtot 112.870569
 2932         c3    113    bbb     C3   2932 -0.18457900  12.010000   ; qtot 112.685990
 2933          c    113    bbb     C4   2933 0.67254400  12.010000   ; qtot 113.358534
 2934         c3    113    bbb     C5   2934 -0.18457900  12.010000   ; qtot 113.173955
 2935          c    113    bbb     C6   2935 0.67254400  12.010000   ; qtot 113.846499
 2936         c3    113    bbb     C7   2936 -0.02083000  12.010000   ; qtot 113.825669
 2937         c3    113    bbb     C8   2937 -0.03328100  12.010000   ; qtot 113.792388
 2938          n    113    bbb     N2   2938 -0.33303000  14.010000   ; qtot 113.459358
 2939          o    113    bbb     O1   2939 -0.52917200  16.000000   ; qtot 112.930186
 2940          o    113    bbb     O2   2940 -0.52917200  16.000000   ; qtot 112.401014
 2941         hx    113    bbb     H1   2941 0.11563300   1.008000   ; qtot 112.516647
 2942         hx    113    bbb     H2   2942 0.11563300   1.008000   ; qtot 112.632280
 2943         hx    113    bbb     H3   2943 0.11563300   1.008000   ; qtot 112.747913
 2944         hx    113    bbb     H4   2944 0.11563300   1.008000   ; qtot 112.863546
 2945         hc    113    bbb     H5   2945 0.08347900   1.008000   ; qtot 112.947025
 2946         hc    113    bbb     H6   2946 0.08347900   1.008000   ; qtot 113.030504
 2947         hc    113    bbb     H7   2947 0.08347900   1.008000   ; qtot 113.113983
 2948         hc    113    bbb     H8   2948 0.08347900   1.008000   ; qtot 113.197462
 2949         hx    113    bbb     H9   2949 0.07988000   1.008000   ; qtot 113.277342
 2950         hx    113    bbb    H10   2950 0.07988000   1.008000   ; qtot 113.357222
 2951         h1    113    bbb    H11   2951 0.10618100   1.008000   ; qtot 113.463403
 2952         h1    113    bbb    H12   2952 0.10618100   1.008000   ; qtot 113.569584
 2953         hn    113    bbb    H13   2953 0.25916100   1.008000   ; qtot 113.828745
 2954         hn    113    bbb    H25   2954 0.17125500   1.008000   ; qtot 114.000000
; residue  114 bbb rtp bbb q 1.0
 2955         n4    114    bbb     N1   2955 -0.02747900  14.010000   ; qtot 113.972521
 2956         c3    114    bbb     C1   2956 -0.05097600  12.010000   ; qtot 113.921545
 2957         c3    114    bbb     C2   2957 -0.05097600  12.010000   ; qtot 113.870569
 2958         c3    114    bbb     C3   2958 -0.18457900  12.010000   ; qtot 113.685990
 2959          c    114    bbb     C4   2959 0.67254400  12.010000   ; qtot 114.358534
 2960         c3    114    bbb     C5   2960 -0.18457900  12.010000   ; qtot 114.173955
 2961          c    114    bbb     C6   2961 0.67254400  12.010000   ; qtot 114.846499
 2962         c3    114    bbb     C7   2962 -0.02083000  12.010000   ; qtot 114.825669
 2963         c3    114    bbb     C8   2963 -0.03328100  12.010000   ; qtot 114.792388
 2964          n    114    bbb     N2   2964 -0.33303000  14.010000   ; qtot 114.459358
 2965          o    114    bbb     O1   2965 -0.52917200  16.000000   ; qtot 113.930186
 2966          o    114    bbb     O2   2966 -0.52917200  16.000000   ; qtot 113.401014
 2967         hx    114    bbb     H1   2967 0.11563300   1.008000   ; qtot 113.516647
 2968         hx    114    bbb     H2   2968 0.11563300   1.008000   ; qtot 113.632280
 2969         hx    114    bbb     H3   2969 0.11563300   1.008000   ; qtot 113.747913
 2970         hx    114    bbb     H4   2970 0.11563300   1.008000   ; qtot 113.863546
 2971         hc    114    bbb     H5   2971 0.08347900   1.008000   ; qtot 113.947025
 2972         hc    114    bbb     H6   2972 0.08347900   1.008000   ; qtot 114.030504
 2973         hc    114    bbb     H7   2973 0.08347900   1.008000   ; qtot 114.113983
 2974         hc    114    bbb     H8   2974 0.08347900   1.008000   ; qtot 114.197462
 2975         hx    114    bbb     H9   2975 0.07988000   1.008000   ; qtot 114.277342
 2976         hx    114    bbb    H10   2976 0.07988000   1.008000   ; qtot 114.357222
 2977         h1    114    bbb    H11   2977 0.10618100   1.008000   ; qtot 114.463403
 2978         h1    114    bbb    H12   2978 0.10618100   1.008000   ; qtot 114.569584
 2979         hn    114    bbb    H13   2979 0.25916100   1.008000   ; qtot 114.828745
 2980         hn    114    bbb    H25   2980 0.17125500   1.008000   ; qtot 115.000000
; residue  115 bbb rtp bbb q 1.0
 2981         n4    115    bbb     N1   2981 -0.02747900  14.010000   ; qtot 114.972521
 2982         c3    115    bbb     C1   2982 -0.05097600  12.010000   ; qtot 114.921545
 2983         c3    115    bbb     C2   2983 -0.05097600  12.010000   ; qtot 114.870569
 2984         c3    115    bbb     C3   2984 -0.18457900  12.010000   ; qtot 114.685990
 2985          c    115    bbb     C4   2985 0.67254400  12.010000   ; qtot 115.358534
 2986         c3    115    bbb     C5   2986 -0.18457900  12.010000   ; qtot 115.173955
 2987          c    115    bbb     C6   2987 0.67254400  12.010000   ; qtot 115.846499
 2988         c3    115    bbb     C7   2988 -0.02083000  12.010000   ; qtot 115.825669
 2989         c3    115    bbb     C8   2989 -0.03328100  12.010000   ; qtot 115.792388
 2990          n    115    bbb     N2   2990 -0.33303000  14.010000   ; qtot 115.459358
 2991          o    115    bbb     O1   2991 -0.52917200  16.000000   ; qtot 114.930186
 2992          o    115    bbb     O2   2992 -0.52917200  16.000000   ; qtot 114.401014
 2993         hx    115    bbb     H1   2993 0.11563300   1.008000   ; qtot 114.516647
 2994         hx    115    bbb     H2   2994 0.11563300   1.008000   ; qtot 114.632280
 2995         hx    115    bbb     H3   2995 0.11563300   1.008000   ; qtot 114.747913
 2996         hx    115    bbb     H4   2996 0.11563300   1.008000   ; qtot 114.863546
 2997         hc    115    bbb     H5   2997 0.08347900   1.008000   ; qtot 114.947025
 2998         hc    115    bbb     H6   2998 0.08347900   1.008000   ; qtot 115.030504
 2999         hc    115    bbb     H7   2999 0.08347900   1.008000   ; qtot 115.113983
 3000         hc    115    bbb     H8   3000 0.08347900   1.008000   ; qtot 115.197462
 3001         hx    115    bbb     H9   3001 0.07988000   1.008000   ; qtot 115.277342
 3002         hx    115    bbb    H10   3002 0.07988000   1.008000   ; qtot 115.357222
 3003         h1    115    bbb    H11   3003 0.10618100   1.008000   ; qtot 115.463403
 3004         h1    115    bbb    H12   3004 0.10618100   1.008000   ; qtot 115.569584
 3005         hn    115    bbb    H13   3005 0.25916100   1.008000   ; qtot 115.828745
 3006         hn    115    bbb    H25   3006 0.17125500   1.008000   ; qtot 116.000000
; residue  116 bbb rtp bbb q 1.0
 3007         n4    116    bbb     N1   3007 -0.02747900  14.010000   ; qtot 115.972521
 3008         c3    116    bbb     C1   3008 -0.05097600  12.010000   ; qtot 115.921545
 3009         c3    116    bbb     C2   3009 -0.05097600  12.010000   ; qtot 115.870569
 3010         c3    116    bbb     C3   3010 -0.18457900  12.010000   ; qtot 115.685990
 3011          c    116    bbb     C4   3011 0.67254400  12.010000   ; qtot 116.358534
 3012         c3    116    bbb     C5   3012 -0.18457900  12.010000   ; qtot 116.173955
 3013          c    116    bbb     C6   3013 0.67254400  12.010000   ; qtot 116.846499
 3014         c3    116    bbb     C7   3014 -0.02083000  12.010000   ; qtot 116.825669
 3015         c3    116    bbb     C8   3015 -0.03328100  12.010000   ; qtot 116.792388
 3016          n    116    bbb     N2   3016 -0.33303000  14.010000   ; qtot 116.459358
 3017          o    116    bbb     O1   3017 -0.52917200  16.000000   ; qtot 115.930186
 3018          o    116    bbb     O2   3018 -0.52917200  16.000000   ; qtot 115.401014
 3019         hx    116    bbb     H1   3019 0.11563300   1.008000   ; qtot 115.516647
 3020         hx    116    bbb     H2   3020 0.11563300   1.008000   ; qtot 115.632280
 3021         hx    116    bbb     H3   3021 0.11563300   1.008000   ; qtot 115.747913
 3022         hx    116    bbb     H4   3022 0.11563300   1.008000   ; qtot 115.863546
 3023         hc    116    bbb     H5   3023 0.08347900   1.008000   ; qtot 115.947025
 3024         hc    116    bbb     H6   3024 0.08347900   1.008000   ; qtot 116.030504
 3025         hc    116    bbb     H7   3025 0.08347900   1.008000   ; qtot 116.113983
 3026         hc    116    bbb     H8   3026 0.08347900   1.008000   ; qtot 116.197462
 3027         hx    116    bbb     H9   3027 0.07988000   1.008000   ; qtot 116.277342
 3028         hx    116    bbb    H10   3028 0.07988000   1.008000   ; qtot 116.357222
 3029         h1    116    bbb    H11   3029 0.10618100   1.008000   ; qtot 116.463403
 3030         h1    116    bbb    H12   3030 0.10618100   1.008000   ; qtot 116.569584
 3031         hn    116    bbb    H13   3031 0.25916100   1.008000   ; qtot 116.828745
 3032         hn    116    bbb    H25   3032 0.17125500   1.008000   ; qtot 117.000000
; residue  117 bbb rtp bbb q 1.0
 3033         n4    117    bbb     N1   3033 -0.02747900  14.010000   ; qtot 116.972521
 3034         c3    117    bbb     C1   3034 -0.05097600  12.010000   ; qtot 116.921545
 3035         c3    117    bbb     C2   3035 -0.05097600  12.010000   ; qtot 116.870569
 3036         c3    117    bbb     C3   3036 -0.18457900  12.010000   ; qtot 116.685990
 3037          c    117    bbb     C4   3037 0.67254400  12.010000   ; qtot 117.358534
 3038         c3    117    bbb     C5   3038 -0.18457900  12.010000   ; qtot 117.173955
 3039          c    117    bbb     C6   3039 0.67254400  12.010000   ; qtot 117.846499
 3040         c3    117    bbb     C7   3040 -0.02083000  12.010000   ; qtot 117.825669
 3041         c3    117    bbb     C8   3041 -0.03328100  12.010000   ; qtot 117.792388
 3042          n    117    bbb     N2   3042 -0.33303000  14.010000   ; qtot 117.459358
 3043          o    117    bbb     O1   3043 -0.52917200  16.000000   ; qtot 116.930186
 3044          o    117    bbb     O2   3044 -0.52917200  16.000000   ; qtot 116.401014
 3045         hx    117    bbb     H1   3045 0.11563300   1.008000   ; qtot 116.516647
 3046         hx    117    bbb     H2   3046 0.11563300   1.008000   ; qtot 116.632280
 3047         hx    117    bbb     H3   3047 0.11563300   1.008000   ; qtot 116.747913
 3048         hx    117    bbb     H4   3048 0.11563300   1.008000   ; qtot 116.863546
 3049         hc    117    bbb     H5   3049 0.08347900   1.008000   ; qtot 116.947025
 3050         hc    117    bbb     H6   3050 0.08347900   1.008000   ; qtot 117.030504
 3051         hc    117    bbb     H7   3051 0.08347900   1.008000   ; qtot 117.113983
 3052         hc    117    bbb     H8   3052 0.08347900   1.008000   ; qtot 117.197462
 3053         hx    117    bbb     H9   3053 0.07988000   1.008000   ; qtot 117.277342
 3054         hx    117    bbb    H10   3054 0.07988000   1.008000   ; qtot 117.357222
 3055         h1    117    bbb    H11   3055 0.10618100   1.008000   ; qtot 117.463403
 3056         h1    117    bbb    H12   3056 0.10618100   1.008000   ; qtot 117.569584
 3057         hn    117    bbb    H13   3057 0.25916100   1.008000   ; qtot 117.828745
 3058         hn    117    bbb    H25   3058 0.17125500   1.008000   ; qtot 118.000000
; residue  118 bbb rtp bbb q 1.0
 3059         n4    118    bbb     N1   3059 -0.02747900  14.010000   ; qtot 117.972521
 3060         c3    118    bbb     C1   3060 -0.05097600  12.010000   ; qtot 117.921545
 3061         c3    118    bbb     C2   3061 -0.05097600  12.010000   ; qtot 117.870569
 3062         c3    118    bbb     C3   3062 -0.18457900  12.010000   ; qtot 117.685990
 3063          c    118    bbb     C4   3063 0.67254400  12.010000   ; qtot 118.358534
 3064         c3    118    bbb     C5   3064 -0.18457900  12.010000   ; qtot 118.173955
 3065          c    118    bbb     C6   3065 0.67254400  12.010000   ; qtot 118.846499
 3066         c3    118    bbb     C7   3066 -0.02083000  12.010000   ; qtot 118.825669
 3067         c3    118    bbb     C8   3067 -0.03328100  12.010000   ; qtot 118.792388
 3068          n    118    bbb     N2   3068 -0.33303000  14.010000   ; qtot 118.459358
 3069          o    118    bbb     O1   3069 -0.52917200  16.000000   ; qtot 117.930186
 3070          o    118    bbb     O2   3070 -0.52917200  16.000000   ; qtot 117.401014
 3071         hx    118    bbb     H1   3071 0.11563300   1.008000   ; qtot 117.516647
 3072         hx    118    bbb     H2   3072 0.11563300   1.008000   ; qtot 117.632280
 3073         hx    118    bbb     H3   3073 0.11563300   1.008000   ; qtot 117.747913
 3074         hx    118    bbb     H4   3074 0.11563300   1.008000   ; qtot 117.863546
 3075         hc    118    bbb     H5   3075 0.08347900   1.008000   ; qtot 117.947025
 3076         hc    118    bbb     H6   3076 0.08347900   1.008000   ; qtot 118.030504
 3077         hc    118    bbb     H7   3077 0.08347900   1.008000   ; qtot 118.113983
 3078         hc    118    bbb     H8   3078 0.08347900   1.008000   ; qtot 118.197462
 3079         hx    118    bbb     H9   3079 0.07988000   1.008000   ; qtot 118.277342
 3080         hx    118    bbb    H10   3080 0.07988000   1.008000   ; qtot 118.357222
 3081         h1    118    bbb    H11   3081 0.10618100   1.008000   ; qtot 118.463403
 3082         h1    118    bbb    H12   3082 0.10618100   1.008000   ; qtot 118.569584
 3083         hn    118    bbb    H13   3083 0.25916100   1.008000   ; qtot 118.828745
 3084         hn    118    bbb    H25   3084 0.17125500   1.008000   ; qtot 119.000000
; residue  119 bbb rtp bbb q 1.0
 3085         n4    119    bbb     N1   3085 -0.02747900  14.010000   ; qtot 118.972521
 3086         c3    119    bbb     C1   3086 -0.05097600  12.010000   ; qtot 118.921545
 3087         c3    119    bbb     C2   3087 -0.05097600  12.010000   ; qtot 118.870569
 3088         c3    119    bbb     C3   3088 -0.18457900  12.010000   ; qtot 118.685990
 3089          c    119    bbb     C4   3089 0.67254400  12.010000   ; qtot 119.358534
 3090         c3    119    bbb     C5   3090 -0.18457900  12.010000   ; qtot 119.173955
 3091          c    119    bbb     C6   3091 0.67254400  12.010000   ; qtot 119.846499
 3092         c3    119    bbb     C7   3092 -0.02083000  12.010000   ; qtot 119.825669
 3093         c3    119    bbb     C8   3093 -0.03328100  12.010000   ; qtot 119.792388
 3094          n    119    bbb     N2   3094 -0.33303000  14.010000   ; qtot 119.459358
 3095          o    119    bbb     O1   3095 -0.52917200  16.000000   ; qtot 118.930186
 3096          o    119    bbb     O2   3096 -0.52917200  16.000000   ; qtot 118.401014
 3097         hx    119    bbb     H1   3097 0.11563300   1.008000   ; qtot 118.516647
 3098         hx    119    bbb     H2   3098 0.11563300   1.008000   ; qtot 118.632280
 3099         hx    119    bbb     H3   3099 0.11563300   1.008000   ; qtot 118.747913
 3100         hx    119    bbb     H4   3100 0.11563300   1.008000   ; qtot 118.863546
 3101         hc    119    bbb     H5   3101 0.08347900   1.008000   ; qtot 118.947025
 3102         hc    119    bbb     H6   3102 0.08347900   1.008000   ; qtot 119.030504
 3103         hc    119    bbb     H7   3103 0.08347900   1.008000   ; qtot 119.113983
 3104         hc    119    bbb     H8   3104 0.08347900   1.008000   ; qtot 119.197462
 3105         hx    119    bbb     H9   3105 0.07988000   1.008000   ; qtot 119.277342
 3106         hx    119    bbb    H10   3106 0.07988000   1.008000   ; qtot 119.357222
 3107         h1    119    bbb    H11   3107 0.10618100   1.008000   ; qtot 119.463403
 3108         h1    119    bbb    H12   3108 0.10618100   1.008000   ; qtot 119.569584
 3109         hn    119    bbb    H13   3109 0.25916100   1.008000   ; qtot 119.828745
 3110         hn    119    bbb    H25   3110 0.17125500   1.008000   ; qtot 120.000000
; residue  120 bbb rtp bbb q 1.0
 3111         n4    120    bbb     N1   3111 -0.02747900  14.010000   ; qtot 119.972521
 3112         c3    120    bbb     C1   3112 -0.05097600  12.010000   ; qtot 119.921545
 3113         c3    120    bbb     C2   3113 -0.05097600  12.010000   ; qtot 119.870569
 3114         c3    120    bbb     C3   3114 -0.18457900  12.010000   ; qtot 119.685990
 3115          c    120    bbb     C4   3115 0.67254400  12.010000   ; qtot 120.358534
 3116         c3    120    bbb     C5   3116 -0.18457900  12.010000   ; qtot 120.173955
 3117          c    120    bbb     C6   3117 0.67254400  12.010000   ; qtot 120.846499
 3118         c3    120    bbb     C7   3118 -0.02083000  12.010000   ; qtot 120.825669
 3119         c3    120    bbb     C8   3119 -0.03328100  12.010000   ; qtot 120.792388
 3120          n    120    bbb     N2   3120 -0.33303000  14.010000   ; qtot 120.459358
 3121          o    120    bbb     O1   3121 -0.52917200  16.000000   ; qtot 119.930186
 3122          o    120    bbb     O2   3122 -0.52917200  16.000000   ; qtot 119.401014
 3123         hx    120    bbb     H1   3123 0.11563300   1.008000   ; qtot 119.516647
 3124         hx    120    bbb     H2   3124 0.11563300   1.008000   ; qtot 119.632280
 3125         hx    120    bbb     H3   3125 0.11563300   1.008000   ; qtot 119.747913
 3126         hx    120    bbb     H4   3126 0.11563300   1.008000   ; qtot 119.863546
 3127         hc    120    bbb     H5   3127 0.08347900   1.008000   ; qtot 119.947025
 3128         hc    120    bbb     H6   3128 0.08347900   1.008000   ; qtot 120.030504
 3129         hc    120    bbb     H7   3129 0.08347900   1.008000   ; qtot 120.113983
 3130         hc    120    bbb     H8   3130 0.08347900   1.008000   ; qtot 120.197462
 3131         hx    120    bbb     H9   3131 0.07988000   1.008000   ; qtot 120.277342
 3132         hx    120    bbb    H10   3132 0.07988000   1.008000   ; qtot 120.357222
 3133         h1    120    bbb    H11   3133 0.10618100   1.008000   ; qtot 120.463403
 3134         h1    120    bbb    H12   3134 0.10618100   1.008000   ; qtot 120.569584
 3135         hn    120    bbb    H13   3135 0.25916100   1.008000   ; qtot 120.828745
 3136         hn    120    bbb    H25   3136 0.17125500   1.008000   ; qtot 121.000000
; residue  121 bbb rtp bbb q 1.0
 3137         n4    121    bbb     N1   3137 -0.02747900  14.010000   ; qtot 120.972521
 3138         c3    121    bbb     C1   3138 -0.05097600  12.010000   ; qtot 120.921545
 3139         c3    121    bbb     C2   3139 -0.05097600  12.010000   ; qtot 120.870569
 3140         c3    121    bbb     C3   3140 -0.18457900  12.010000   ; qtot 120.685990
 3141          c    121    bbb     C4   3141 0.67254400  12.010000   ; qtot 121.358534
 3142         c3    121    bbb     C5   3142 -0.18457900  12.010000   ; qtot 121.173955
 3143          c    121    bbb     C6   3143 0.67254400  12.010000   ; qtot 121.846499
 3144         c3    121    bbb     C7   3144 -0.02083000  12.010000   ; qtot 121.825669
 3145         c3    121    bbb     C8   3145 -0.03328100  12.010000   ; qtot 121.792388
 3146          n    121    bbb     N2   3146 -0.33303000  14.010000   ; qtot 121.459358
 3147          o    121    bbb     O1   3147 -0.52917200  16.000000   ; qtot 120.930186
 3148          o    121    bbb     O2   3148 -0.52917200  16.000000   ; qtot 120.401014
 3149         hx    121    bbb     H1   3149 0.11563300   1.008000   ; qtot 120.516647
 3150         hx    121    bbb     H2   3150 0.11563300   1.008000   ; qtot 120.632280
 3151         hx    121    bbb     H3   3151 0.11563300   1.008000   ; qtot 120.747913
 3152         hx    121    bbb     H4   3152 0.11563300   1.008000   ; qtot 120.863546
 3153         hc    121    bbb     H5   3153 0.08347900   1.008000   ; qtot 120.947025
 3154         hc    121    bbb     H6   3154 0.08347900   1.008000   ; qtot 121.030504
 3155         hc    121    bbb     H7   3155 0.08347900   1.008000   ; qtot 121.113983
 3156         hc    121    bbb     H8   3156 0.08347900   1.008000   ; qtot 121.197462
 3157         hx    121    bbb     H9   3157 0.07988000   1.008000   ; qtot 121.277342
 3158         hx    121    bbb    H10   3158 0.07988000   1.008000   ; qtot 121.357222
 3159         h1    121    bbb    H11   3159 0.10618100   1.008000   ; qtot 121.463403
 3160         h1    121    bbb    H12   3160 0.10618100   1.008000   ; qtot 121.569584
 3161         hn    121    bbb    H13   3161 0.25916100   1.008000   ; qtot 121.828745
 3162         hn    121    bbb    H25   3162 0.17125500   1.008000   ; qtot 122.000000
; residue  122 bbb rtp bbb q 1.0
 3163         n4    122    bbb     N1   3163 -0.02747900  14.010000   ; qtot 121.972521
 3164         c3    122    bbb     C1   3164 -0.05097600  12.010000   ; qtot 121.921545
 3165         c3    122    bbb     C2   3165 -0.05097600  12.010000   ; qtot 121.870569
 3166         c3    122    bbb     C3   3166 -0.18457900  12.010000   ; qtot 121.685990
 3167          c    122    bbb     C4   3167 0.67254400  12.010000   ; qtot 122.358534
 3168         c3    122    bbb     C5   3168 -0.18457900  12.010000   ; qtot 122.173955
 3169          c    122    bbb     C6   3169 0.67254400  12.010000   ; qtot 122.846499
 3170         c3    122    bbb     C7   3170 -0.02083000  12.010000   ; qtot 122.825669
 3171         c3    122    bbb     C8   3171 -0.03328100  12.010000   ; qtot 122.792388
 3172          n    122    bbb     N2   3172 -0.33303000  14.010000   ; qtot 122.459358
 3173          o    122    bbb     O1   3173 -0.52917200  16.000000   ; qtot 121.930186
 3174          o    122    bbb     O2   3174 -0.52917200  16.000000   ; qtot 121.401014
 3175         hx    122    bbb     H1   3175 0.11563300   1.008000   ; qtot 121.516647
 3176         hx    122    bbb     H2   3176 0.11563300   1.008000   ; qtot 121.632280
 3177         hx    122    bbb     H3   3177 0.11563300   1.008000   ; qtot 121.747913
 3178         hx    122    bbb     H4   3178 0.11563300   1.008000   ; qtot 121.863546
 3179         hc    122    bbb     H5   3179 0.08347900   1.008000   ; qtot 121.947025
 3180         hc    122    bbb     H6   3180 0.08347900   1.008000   ; qtot 122.030504
 3181         hc    122    bbb     H7   3181 0.08347900   1.008000   ; qtot 122.113983
 3182         hc    122    bbb     H8   3182 0.08347900   1.008000   ; qtot 122.197462
 3183         hx    122    bbb     H9   3183 0.07988000   1.008000   ; qtot 122.277342
 3184         hx    122    bbb    H10   3184 0.07988000   1.008000   ; qtot 122.357222
 3185         h1    122    bbb    H11   3185 0.10618100   1.008000   ; qtot 122.463403
 3186         h1    122    bbb    H12   3186 0.10618100   1.008000   ; qtot 122.569584
 3187         hn    122    bbb    H13   3187 0.25916100   1.008000   ; qtot 122.828745
 3188         hn    122    bbb    H25   3188 0.17125500   1.008000   ; qtot 123.000000
; residue  123 bbb rtp bbb q 1.0
 3189         n4    123    bbb     N1   3189 -0.02747900  14.010000   ; qtot 122.972521
 3190         c3    123    bbb     C1   3190 -0.05097600  12.010000   ; qtot 122.921545
 3191         c3    123    bbb     C2   3191 -0.05097600  12.010000   ; qtot 122.870569
 3192         c3    123    bbb     C3   3192 -0.18457900  12.010000   ; qtot 122.685990
 3193          c    123    bbb     C4   3193 0.67254400  12.010000   ; qtot 123.358534
 3194         c3    123    bbb     C5   3194 -0.18457900  12.010000   ; qtot 123.173955
 3195          c    123    bbb     C6   3195 0.67254400  12.010000   ; qtot 123.846499
 3196         c3    123    bbb     C7   3196 -0.02083000  12.010000   ; qtot 123.825669
 3197         c3    123    bbb     C8   3197 -0.03328100  12.010000   ; qtot 123.792388
 3198          n    123    bbb     N2   3198 -0.33303000  14.010000   ; qtot 123.459358
 3199          o    123    bbb     O1   3199 -0.52917200  16.000000   ; qtot 122.930186
 3200          o    123    bbb     O2   3200 -0.52917200  16.000000   ; qtot 122.401014
 3201         hx    123    bbb     H1   3201 0.11563300   1.008000   ; qtot 122.516647
 3202         hx    123    bbb     H2   3202 0.11563300   1.008000   ; qtot 122.632280
 3203         hx    123    bbb     H3   3203 0.11563300   1.008000   ; qtot 122.747913
 3204         hx    123    bbb     H4   3204 0.11563300   1.008000   ; qtot 122.863546
 3205         hc    123    bbb     H5   3205 0.08347900   1.008000   ; qtot 122.947025
 3206         hc    123    bbb     H6   3206 0.08347900   1.008000   ; qtot 123.030504
 3207         hc    123    bbb     H7   3207 0.08347900   1.008000   ; qtot 123.113983
 3208         hc    123    bbb     H8   3208 0.08347900   1.008000   ; qtot 123.197462
 3209         hx    123    bbb     H9   3209 0.07988000   1.008000   ; qtot 123.277342
 3210         hx    123    bbb    H10   3210 0.07988000   1.008000   ; qtot 123.357222
 3211         h1    123    bbb    H11   3211 0.10618100   1.008000   ; qtot 123.463403
 3212         h1    123    bbb    H12   3212 0.10618100   1.008000   ; qtot 123.569584
 3213         hn    123    bbb    H13   3213 0.25916100   1.008000   ; qtot 123.828745
 3214         hn    123    bbb    H25   3214 0.17125500   1.008000   ; qtot 124.000000
; residue  124 bbb rtp bbb q 1.0
 3215         n4    124    bbb     N1   3215 -0.02747900  14.010000   ; qtot 123.972521
 3216         c3    124    bbb     C1   3216 -0.05097600  12.010000   ; qtot 123.921545
 3217         c3    124    bbb     C2   3217 -0.05097600  12.010000   ; qtot 123.870569
 3218         c3    124    bbb     C3   3218 -0.18457900  12.010000   ; qtot 123.685990
 3219          c    124    bbb     C4   3219 0.67254400  12.010000   ; qtot 124.358534
 3220         c3    124    bbb     C5   3220 -0.18457900  12.010000   ; qtot 124.173955
 3221          c    124    bbb     C6   3221 0.67254400  12.010000   ; qtot 124.846499
 3222         c3    124    bbb     C7   3222 -0.02083000  12.010000   ; qtot 124.825669
 3223         c3    124    bbb     C8   3223 -0.03328100  12.010000   ; qtot 124.792388
 3224          n    124    bbb     N2   3224 -0.33303000  14.010000   ; qtot 124.459358
 3225          o    124    bbb     O1   3225 -0.52917200  16.000000   ; qtot 123.930186
 3226          o    124    bbb     O2   3226 -0.52917200  16.000000   ; qtot 123.401014
 3227         hx    124    bbb     H1   3227 0.11563300   1.008000   ; qtot 123.516647
 3228         hx    124    bbb     H2   3228 0.11563300   1.008000   ; qtot 123.632280
 3229         hx    124    bbb     H3   3229 0.11563300   1.008000   ; qtot 123.747913
 3230         hx    124    bbb     H4   3230 0.11563300   1.008000   ; qtot 123.863546
 3231         hc    124    bbb     H5   3231 0.08347900   1.008000   ; qtot 123.947025
 3232         hc    124    bbb     H6   3232 0.08347900   1.008000   ; qtot 124.030504
 3233         hc    124    bbb     H7   3233 0.08347900   1.008000   ; qtot 124.113983
 3234         hc    124    bbb     H8   3234 0.08347900   1.008000   ; qtot 124.197462
 3235         hx    124    bbb     H9   3235 0.07988000   1.008000   ; qtot 124.277342
 3236         hx    124    bbb    H10   3236 0.07988000   1.008000   ; qtot 124.357222
 3237         h1    124    bbb    H11   3237 0.10618100   1.008000   ; qtot 124.463403
 3238         h1    124    bbb    H12   3238 0.10618100   1.008000   ; qtot 124.569584
 3239         hn    124    bbb    H13   3239 0.25916100   1.008000   ; qtot 124.828745
 3240         hn    124    bbb    H25   3240 0.17125500   1.008000   ; qtot 125.000000
; residue  125 bbb rtp bbb q 1.0
 3241         n4    125    bbb     N1   3241 -0.02747900  14.010000   ; qtot 124.972521
 3242         c3    125    bbb     C1   3242 -0.05097600  12.010000   ; qtot 124.921545
 3243         c3    125    bbb     C2   3243 -0.05097600  12.010000   ; qtot 124.870569
 3244         c3    125    bbb     C3   3244 -0.18457900  12.010000   ; qtot 124.685990
 3245          c    125    bbb     C4   3245 0.67254400  12.010000   ; qtot 125.358534
 3246         c3    125    bbb     C5   3246 -0.18457900  12.010000   ; qtot 125.173955
 3247          c    125    bbb     C6   3247 0.67254400  12.010000   ; qtot 125.846499
 3248         c3    125    bbb     C7   3248 -0.02083000  12.010000   ; qtot 125.825669
 3249         c3    125    bbb     C8   3249 -0.03328100  12.010000   ; qtot 125.792388
 3250          n    125    bbb     N2   3250 -0.33303000  14.010000   ; qtot 125.459358
 3251          o    125    bbb     O1   3251 -0.52917200  16.000000   ; qtot 124.930186
 3252          o    125    bbb     O2   3252 -0.52917200  16.000000   ; qtot 124.401014
 3253         hx    125    bbb     H1   3253 0.11563300   1.008000   ; qtot 124.516647
 3254         hx    125    bbb     H2   3254 0.11563300   1.008000   ; qtot 124.632280
 3255         hx    125    bbb     H3   3255 0.11563300   1.008000   ; qtot 124.747913
 3256         hx    125    bbb     H4   3256 0.11563300   1.008000   ; qtot 124.863546
 3257         hc    125    bbb     H5   3257 0.08347900   1.008000   ; qtot 124.947025
 3258         hc    125    bbb     H6   3258 0.08347900   1.008000   ; qtot 125.030504
 3259         hc    125    bbb     H7   3259 0.08347900   1.008000   ; qtot 125.113983
 3260         hc    125    bbb     H8   3260 0.08347900   1.008000   ; qtot 125.197462
 3261         hx    125    bbb     H9   3261 0.07988000   1.008000   ; qtot 125.277342
 3262         hx    125    bbb    H10   3262 0.07988000   1.008000   ; qtot 125.357222
 3263         h1    125    bbb    H11   3263 0.10618100   1.008000   ; qtot 125.463403
 3264         h1    125    bbb    H12   3264 0.10618100   1.008000   ; qtot 125.569584
 3265         hn    125    bbb    H13   3265 0.25916100   1.008000   ; qtot 125.828745
 3266         hn    125    bbb    H25   3266 0.17125500   1.008000   ; qtot 126.000000
; residue  126 ccc rtp ccc q 1.0
 3267          n    126    ccc     N1   3267 -0.33303000  14.010000   ; qtot 125.666970
 3268         hn    126    ccc     H4   3268 0.25916100   1.008000   ; qtot 125.926131
 3269         c3    126    ccc     C3   3269 -0.03328100  12.010000   ; qtot 125.892850
 3270         h1    126    ccc     H5   3270 0.10618100   1.008000   ; qtot 125.999031
 3271         c3    126    ccc     C4   3271 -0.02083000  12.010000   ; qtot 125.978201
 3272         h1    126    ccc     H6   3272 0.10618100   1.008000   ; qtot 126.084382
 3273         h1    126    ccc     H7   3273 0.07988000   1.008000   ; qtot 126.164262
 3274         h1    126    ccc     H8   3274 0.07988000   1.008000   ; qtot 126.244142
 3275         n4    126    ccc     N2   3275 -0.02747900  14.010000   ; qtot 126.216663
 3276         c3    126    ccc     C5   3276 -0.05097600  12.010000   ; qtot 126.165687
 3277         c3    126    ccc     C6   3277 -0.05097600  12.010000   ; qtot 126.114711
 3278         h1    126    ccc     H9   3278 0.11563300   1.008000   ; qtot 126.230344
 3279         c3    126    ccc     C7   3279 -0.18457900  12.010000   ; qtot 126.045765
 3280         h1    126    ccc    H10   3280 0.11563300   1.008000   ; qtot 126.161398
 3281         hc    126    ccc    H11   3281 0.08347900   1.008000   ; qtot 126.244877
 3282         hc    126    ccc    H12   3282 0.08347900   1.008000   ; qtot 126.328356
 3283          c    126    ccc     C8   3283 0.67254400  12.010000   ; qtot 127.000900
 3284          o    126    ccc     O2   3284 -0.52917200  16.000000   ; qtot 126.471728
 3285         h1    126    ccc    H13   3285 0.11563300   1.008000   ; qtot 126.587361
 3286         h1    126    ccc    H14   3286 0.11563300   1.008000   ; qtot 126.702994
 3287         c3    126    ccc     C9   3287 -0.18457900  12.010000   ; qtot 126.518415
 3288         hc    126    ccc    H15   3288 0.08347900   1.008000   ; qtot 126.601894
 3289         hc    126    ccc    H16   3289 0.08347900   1.008000   ; qtot 126.685373
 3290          c    126    ccc    C10   3290 0.67254400  12.010000   ; qtot 127.357917
 3291          o    126    ccc     O4   3291 -0.52917200  16.000000   ; qtot 126.828745
 3292         c3    126    ccc    C11   3292 0.08518000  12.010000   ; qtot 126.913925
 3293         c3    126    ccc    C12   3293 0.07918000  12.010000   ; qtot 126.993105
 3294         h1    126    ccc    H17   3294 0.06978000   1.008000   ; qtot 127.062885
 3295         c3    126    ccc    C13   3295 0.07918000  12.010000   ; qtot 127.142065
 3296         c3    126    ccc    C14   3296 0.03578000  12.010000   ; qtot 127.177845
 3297         c3    126    ccc    C15   3297 0.33498000  12.010000   ; qtot 127.512825
 3298         h1    126    ccc    H18   3298 0.06178000   1.008000   ; qtot 127.574605
 3299         h1    126    ccc    H19   3299 0.11278000   1.008000   ; qtot 127.687385
 3300         h2    126    ccc    H20   3300 0.12178000   1.008000   ; qtot 127.809165
 3301         oh    126    ccc     O1   3301 -0.56972000  16.000000   ; qtot 127.239445
 3302         oh    126    ccc     O6   3302 -0.57772000  16.000000   ; qtot 126.661725
 3303         c3    126    ccc    C16   3303 0.14548000  12.010000   ; qtot 126.807205
 3304         ho    126    ccc    H21   3304 0.40508000   1.008000   ; qtot 127.212285
 3305         hn    126    ccc    H22   3305 0.31758000   1.008000   ; qtot 127.529865
 3306         h1    126    ccc    H23   3306 0.06278000   1.008000   ; qtot 127.592645
 3307         h1    126    ccc    H24   3307 0.06278000   1.008000   ; qtot 127.655425
 3308         oh    126    ccc     O7   3308 -0.59472000  16.000000   ; qtot 127.060705
 3309         ho    126    ccc    H25   3309 0.41908000   1.008000   ; qtot 127.479785
 3310         os    126    ccc     O8   3310 -0.44552000  16.000000   ; qtot 127.034265
 3311         ho    126    ccc    H26   3311 0.41908000   1.008000   ; qtot 127.453345
 3312         h1    126    ccc    H27   3312 0.08578000   1.008000   ; qtot 127.539125
 3313         oh    126    ccc     O9   3313 -0.58672000  16.000000   ; qtot 126.952405
 3314         ho    126    ccc    H28   3314 0.41908000   1.008000   ; qtot 127.371485
 3315         n3    126    ccc     N3   3315 -0.54282000  14.010000   ; qtot 126.828665
 3316         c3    126    ccc    C17   3316 0.08518000  12.010000   ; qtot 126.913845
 3317         c3    126    ccc    C18   3317 0.07918000  12.010000   ; qtot 126.993025
 3318         h1    126    ccc    H29   3318 0.06978000   1.008000   ; qtot 127.062805
 3319         c3    126    ccc    C19   3319 0.07918000  12.010000   ; qtot 127.141985
 3320         c3    126    ccc    C20   3320 0.03578000  12.010000   ; qtot 127.177765
 3321         c3    126    ccc    C21   3321 0.33498000  12.010000   ; qtot 127.512745
 3322         h1    126    ccc    H30   3322 0.06178000   1.008000   ; qtot 127.574525
 3323         h1    126    ccc    H31   3323 0.11278000   1.008000   ; qtot 127.687305
 3324         h2    126    ccc    H32   3324 0.12178000   1.008000   ; qtot 127.809085
 3325         oh    126    ccc    O10   3325 -0.56972000  16.000000   ; qtot 127.239365
 3326         oh    126    ccc    O11   3326 -0.57772000  16.000000   ; qtot 126.661645
 3327         c3    126    ccc    C22   3327 0.14548000  12.010000   ; qtot 126.807125
 3328         ho    126    ccc    H33   3328 0.40508000   1.008000   ; qtot 127.212205
 3329         hn    126    ccc    H34   3329 0.31758000   1.008000   ; qtot 127.529785
 3330         h1    126    ccc    H35   3330 0.06278000   1.008000   ; qtot 127.592565
 3331         h1    126    ccc    H36   3331 0.06278000   1.008000   ; qtot 127.655345
 3332         oh    126    ccc    O12   3332 -0.59472000  16.000000   ; qtot 127.060625
 3333         ho    126    ccc    H37   3333 0.41908000   1.008000   ; qtot 127.479705
 3334         os    126    ccc    O13   3334 -0.44552000  16.000000   ; qtot 127.034185
 3335         ho    126    ccc    H38   3335 0.41908000   1.008000   ; qtot 127.453265
 3336         h1    126    ccc    H39   3336 0.08578000   1.008000   ; qtot 127.539045
 3337         oh    126    ccc     O5   3337 -0.58672000  16.000000   ; qtot 126.952325
 3338         ho    126    ccc    H40   3338 0.41908000   1.008000   ; qtot 127.371405
 3339         n3    126    ccc     N4   3339 -0.54282000  14.010000   ; qtot 126.828585
 3340         hn    126    ccc    H41   3340 0.17125500   1.008000   ; qtot 126.999840
; residue  127 ccc rtp ccc q 1.0
 3341          n    127    ccc     N1   3341 -0.33303000  14.010000   ; qtot 126.666810
 3342         hn    127    ccc     H4   3342 0.25916100   1.008000   ; qtot 126.925971
 3343         c3    127    ccc     C3   3343 -0.03328100  12.010000   ; qtot 126.892690
 3344         h1    127    ccc     H5   3344 0.10618100   1.008000   ; qtot 126.998871
 3345         c3    127    ccc     C4   3345 -0.02083000  12.010000   ; qtot 126.978041
 3346         h1    127    ccc     H6   3346 0.10618100   1.008000   ; qtot 127.084222
 3347         h1    127    ccc     H7   3347 0.07988000   1.008000   ; qtot 127.164102
 3348         h1    127    ccc     H8   3348 0.07988000   1.008000   ; qtot 127.243982
 3349         n4    127    ccc     N2   3349 -0.02747900  14.010000   ; qtot 127.216503
 3350         c3    127    ccc     C5   3350 -0.05097600  12.010000   ; qtot 127.165527
 3351         c3    127    ccc     C6   3351 -0.05097600  12.010000   ; qtot 127.114551
 3352         h1    127    ccc     H9   3352 0.11563300   1.008000   ; qtot 127.230184
 3353         c3    127    ccc     C7   3353 -0.18457900  12.010000   ; qtot 127.045605
 3354         h1    127    ccc    H10   3354 0.11563300   1.008000   ; qtot 127.161238
 3355         hc    127    ccc    H11   3355 0.08347900   1.008000   ; qtot 127.244717
 3356         hc    127    ccc    H12   3356 0.08347900   1.008000   ; qtot 127.328196
 3357          c    127    ccc     C8   3357 0.67254400  12.010000   ; qtot 128.000740
 3358          o    127    ccc     O2   3358 -0.52917200  16.000000   ; qtot 127.471568
 3359         h1    127    ccc    H13   3359 0.11563300   1.008000   ; qtot 127.587201
 3360         h1    127    ccc    H14   3360 0.11563300   1.008000   ; qtot 127.702834
 3361         c3    127    ccc     C9   3361 -0.18457900  12.010000   ; qtot 127.518255
 3362         hc    127    ccc    H15   3362 0.08347900   1.008000   ; qtot 127.601734
 3363         hc    127    ccc    H16   3363 0.08347900   1.008000   ; qtot 127.685213
 3364          c    127    ccc    C10   3364 0.67254400  12.010000   ; qtot 128.357757
 3365          o    127    ccc     O4   3365 -0.52917200  16.000000   ; qtot 127.828585
 3366         c3    127    ccc    C11   3366 0.08518000  12.010000   ; qtot 127.913765
 3367         c3    127    ccc    C12   3367 0.07918000  12.010000   ; qtot 127.992945
 3368         h1    127    ccc    H17   3368 0.06978000   1.008000   ; qtot 128.062725
 3369         c3    127    ccc    C13   3369 0.07918000  12.010000   ; qtot 128.141905
 3370         c3    127    ccc    C14   3370 0.03578000  12.010000   ; qtot 128.177685
 3371         c3    127    ccc    C15   3371 0.33498000  12.010000   ; qtot 128.512665
 3372         h1    127    ccc    H18   3372 0.06178000   1.008000   ; qtot 128.574445
 3373         h1    127    ccc    H19   3373 0.11278000   1.008000   ; qtot 128.687225
 3374         h2    127    ccc    H20   3374 0.12178000   1.008000   ; qtot 128.809005
 3375         oh    127    ccc     O1   3375 -0.56972000  16.000000   ; qtot 128.239285
 3376         oh    127    ccc     O6   3376 -0.57772000  16.000000   ; qtot 127.661565
 3377         c3    127    ccc    C16   3377 0.14548000  12.010000   ; qtot 127.807045
 3378         ho    127    ccc    H21   3378 0.40508000   1.008000   ; qtot 128.212125
 3379         hn    127    ccc    H22   3379 0.31758000   1.008000   ; qtot 128.529705
 3380         h1    127    ccc    H23   3380 0.06278000   1.008000   ; qtot 128.592485
 3381         h1    127    ccc    H24   3381 0.06278000   1.008000   ; qtot 128.655265
 3382         oh    127    ccc     O7   3382 -0.59472000  16.000000   ; qtot 128.060545
 3383         ho    127    ccc    H25   3383 0.41908000   1.008000   ; qtot 128.479625
 3384         os    127    ccc     O8   3384 -0.44552000  16.000000   ; qtot 128.034105
 3385         ho    127    ccc    H26   3385 0.41908000   1.008000   ; qtot 128.453185
 3386         h1    127    ccc    H27   3386 0.08578000   1.008000   ; qtot 128.538965
 3387         oh    127    ccc     O9   3387 -0.58672000  16.000000   ; qtot 127.952245
 3388         ho    127    ccc    H28   3388 0.41908000   1.008000   ; qtot 128.371325
 3389         n3    127    ccc     N3   3389 -0.54282000  14.010000   ; qtot 127.828505
 3390         c3    127    ccc    C17   3390 0.08518000  12.010000   ; qtot 127.913685
 3391         c3    127    ccc    C18   3391 0.07918000  12.010000   ; qtot 127.992865
 3392         h1    127    ccc    H29   3392 0.06978000   1.008000   ; qtot 128.062645
 3393         c3    127    ccc    C19   3393 0.07918000  12.010000   ; qtot 128.141825
 3394         c3    127    ccc    C20   3394 0.03578000  12.010000   ; qtot 128.177605
 3395         c3    127    ccc    C21   3395 0.33498000  12.010000   ; qtot 128.512585
 3396         h1    127    ccc    H30   3396 0.06178000   1.008000   ; qtot 128.574365
 3397         h1    127    ccc    H31   3397 0.11278000   1.008000   ; qtot 128.687145
 3398         h2    127    ccc    H32   3398 0.12178000   1.008000   ; qtot 128.808925
 3399         oh    127    ccc    O10   3399 -0.56972000  16.000000   ; qtot 128.239205
 3400         oh    127    ccc    O11   3400 -0.57772000  16.000000   ; qtot 127.661485
 3401         c3    127    ccc    C22   3401 0.14548000  12.010000   ; qtot 127.806965
 3402         ho    127    ccc    H33   3402 0.40508000   1.008000   ; qtot 128.212045
 3403         hn    127    ccc    H34   3403 0.31758000   1.008000   ; qtot 128.529625
 3404         h1    127    ccc    H35   3404 0.06278000   1.008000   ; qtot 128.592405
 3405         h1    127    ccc    H36   3405 0.06278000   1.008000   ; qtot 128.655185
 3406         oh    127    ccc    O12   3406 -0.59472000  16.000000   ; qtot 128.060465
 3407         ho    127    ccc    H37   3407 0.41908000   1.008000   ; qtot 128.479545
 3408         os    127    ccc    O13   3408 -0.44552000  16.000000   ; qtot 128.034025
 3409         ho    127    ccc    H38   3409 0.41908000   1.008000   ; qtot 128.453105
 3410         h1    127    ccc    H39   3410 0.08578000   1.008000   ; qtot 128.538885
 3411         oh    127    ccc     O5   3411 -0.58672000  16.000000   ; qtot 127.952165
 3412         ho    127    ccc    H40   3412 0.41908000   1.008000   ; qtot 128.371245
 3413         n3    127    ccc     N4   3413 -0.54282000  14.010000   ; qtot 127.828425
 3414         hn    127    ccc    H41   3414 0.17125500   1.008000   ; qtot 127.999680
; residue  128 ccc rtp ccc q 1.0
 3415          n    128    ccc     N1   3415 -0.33303000  14.010000   ; qtot 127.666650
 3416         hn    128    ccc     H4   3416 0.25916100   1.008000   ; qtot 127.925811
 3417         c3    128    ccc     C3   3417 -0.03328100  12.010000   ; qtot 127.892530
 3418         h1    128    ccc     H5   3418 0.10618100   1.008000   ; qtot 127.998711
 3419         c3    128    ccc     C4   3419 -0.02083000  12.010000   ; qtot 127.977881
 3420         h1    128    ccc     H6   3420 0.10618100   1.008000   ; qtot 128.084062
 3421         h1    128    ccc     H7   3421 0.07988000   1.008000   ; qtot 128.163942
 3422         h1    128    ccc     H8   3422 0.07988000   1.008000   ; qtot 128.243822
 3423         n4    128    ccc     N2   3423 -0.02747900  14.010000   ; qtot 128.216343
 3424         c3    128    ccc     C5   3424 -0.05097600  12.010000   ; qtot 128.165367
 3425         c3    128    ccc     C6   3425 -0.05097600  12.010000   ; qtot 128.114391
 3426         h1    128    ccc     H9   3426 0.11563300   1.008000   ; qtot 128.230024
 3427         c3    128    ccc     C7   3427 -0.18457900  12.010000   ; qtot 128.045445
 3428         h1    128    ccc    H10   3428 0.11563300   1.008000   ; qtot 128.161078
 3429         hc    128    ccc    H11   3429 0.08347900   1.008000   ; qtot 128.244557
 3430         hc    128    ccc    H12   3430 0.08347900   1.008000   ; qtot 128.328036
 3431          c    128    ccc     C8   3431 0.67254400  12.010000   ; qtot 129.000580
 3432          o    128    ccc     O2   3432 -0.52917200  16.000000   ; qtot 128.471408
 3433         h1    128    ccc    H13   3433 0.11563300   1.008000   ; qtot 128.587041
 3434         h1    128    ccc    H14   3434 0.11563300   1.008000   ; qtot 128.702674
 3435         c3    128    ccc     C9   3435 -0.18457900  12.010000   ; qtot 128.518095
 3436         hc    128    ccc    H15   3436 0.08347900   1.008000   ; qtot 128.601574
 3437         hc    128    ccc    H16   3437 0.08347900   1.008000   ; qtot 128.685053
 3438          c    128    ccc    C10   3438 0.67254400  12.010000   ; qtot 129.357597
 3439          o    128    ccc     O4   3439 -0.52917200  16.000000   ; qtot 128.828425
 3440         c3    128    ccc    C11   3440 0.08518000  12.010000   ; qtot 128.913605
 3441         c3    128    ccc    C12   3441 0.07918000  12.010000   ; qtot 128.992785
 3442         h1    128    ccc    H17   3442 0.06978000   1.008000   ; qtot 129.062565
 3443         c3    128    ccc    C13   3443 0.07918000  12.010000   ; qtot 129.141745
 3444         c3    128    ccc    C14   3444 0.03578000  12.010000   ; qtot 129.177525
 3445         c3    128    ccc    C15   3445 0.33498000  12.010000   ; qtot 129.512505
 3446         h1    128    ccc    H18   3446 0.06178000   1.008000   ; qtot 129.574285
 3447         h1    128    ccc    H19   3447 0.11278000   1.008000   ; qtot 129.687065
 3448         h2    128    ccc    H20   3448 0.12178000   1.008000   ; qtot 129.808845
 3449         oh    128    ccc     O1   3449 -0.56972000  16.000000   ; qtot 129.239125
 3450         oh    128    ccc     O6   3450 -0.57772000  16.000000   ; qtot 128.661405
 3451         c3    128    ccc    C16   3451 0.14548000  12.010000   ; qtot 128.806885
 3452         ho    128    ccc    H21   3452 0.40508000   1.008000   ; qtot 129.211965
 3453         hn    128    ccc    H22   3453 0.31758000   1.008000   ; qtot 129.529545
 3454         h1    128    ccc    H23   3454 0.06278000   1.008000   ; qtot 129.592325
 3455         h1    128    ccc    H24   3455 0.06278000   1.008000   ; qtot 129.655105
 3456         oh    128    ccc     O7   3456 -0.59472000  16.000000   ; qtot 129.060385
 3457         ho    128    ccc    H25   3457 0.41908000   1.008000   ; qtot 129.479465
 3458         os    128    ccc     O8   3458 -0.44552000  16.000000   ; qtot 129.033945
 3459         ho    128    ccc    H26   3459 0.41908000   1.008000   ; qtot 129.453025
 3460         h1    128    ccc    H27   3460 0.08578000   1.008000   ; qtot 129.538805
 3461         oh    128    ccc     O9   3461 -0.58672000  16.000000   ; qtot 128.952085
 3462         ho    128    ccc    H28   3462 0.41908000   1.008000   ; qtot 129.371165
 3463         n3    128    ccc     N3   3463 -0.54282000  14.010000   ; qtot 128.828345
 3464         c3    128    ccc    C17   3464 0.08518000  12.010000   ; qtot 128.913525
 3465         c3    128    ccc    C18   3465 0.07918000  12.010000   ; qtot 128.992705
 3466         h1    128    ccc    H29   3466 0.06978000   1.008000   ; qtot 129.062485
 3467         c3    128    ccc    C19   3467 0.07918000  12.010000   ; qtot 129.141665
 3468         c3    128    ccc    C20   3468 0.03578000  12.010000   ; qtot 129.177445
 3469         c3    128    ccc    C21   3469 0.33498000  12.010000   ; qtot 129.512425
 3470         h1    128    ccc    H30   3470 0.06178000   1.008000   ; qtot 129.574205
 3471         h1    128    ccc    H31   3471 0.11278000   1.008000   ; qtot 129.686985
 3472         h2    128    ccc    H32   3472 0.12178000   1.008000   ; qtot 129.808765
 3473         oh    128    ccc    O10   3473 -0.56972000  16.000000   ; qtot 129.239045
 3474         oh    128    ccc    O11   3474 -0.57772000  16.000000   ; qtot 128.661325
 3475         c3    128    ccc    C22   3475 0.14548000  12.010000   ; qtot 128.806805
 3476         ho    128    ccc    H33   3476 0.40508000   1.008000   ; qtot 129.211885
 3477         hn    128    ccc    H34   3477 0.31758000   1.008000   ; qtot 129.529465
 3478         h1    128    ccc    H35   3478 0.06278000   1.008000   ; qtot 129.592245
 3479         h1    128    ccc    H36   3479 0.06278000   1.008000   ; qtot 129.655025
 3480         oh    128    ccc    O12   3480 -0.59472000  16.000000   ; qtot 129.060305
 3481         ho    128    ccc    H37   3481 0.41908000   1.008000   ; qtot 129.479385
 3482         os    128    ccc    O13   3482 -0.44552000  16.000000   ; qtot 129.033865
 3483         ho    128    ccc    H38   3483 0.41908000   1.008000   ; qtot 129.452945
 3484         h1    128    ccc    H39   3484 0.08578000   1.008000   ; qtot 129.538725
 3485         oh    128    ccc     O5   3485 -0.58672000  16.000000   ; qtot 128.952005
 3486         ho    128    ccc    H40   3486 0.41908000   1.008000   ; qtot 129.371085
 3487         n3    128    ccc     N4   3487 -0.54282000  14.010000   ; qtot 128.828265
 3488         hn    128    ccc    H41   3488 0.17125500   1.008000   ; qtot 128.999520
; residue  129 ccc rtp ccc q 1.0
 3489          n    129    ccc     N1   3489 -0.33303000  14.010000   ; qtot 128.666490
 3490         hn    129    ccc     H4   3490 0.25916100   1.008000   ; qtot 128.925651
 3491         c3    129    ccc     C3   3491 -0.03328100  12.010000   ; qtot 128.892370
 3492         h1    129    ccc     H5   3492 0.10618100   1.008000   ; qtot 128.998551
 3493         c3    129    ccc     C4   3493 -0.02083000  12.010000   ; qtot 128.977721
 3494         h1    129    ccc     H6   3494 0.10618100   1.008000   ; qtot 129.083902
 3495         h1    129    ccc     H7   3495 0.07988000   1.008000   ; qtot 129.163782
 3496         h1    129    ccc     H8   3496 0.07988000   1.008000   ; qtot 129.243662
 3497         n4    129    ccc     N2   3497 -0.02747900  14.010000   ; qtot 129.216183
 3498         c3    129    ccc     C5   3498 -0.05097600  12.010000   ; qtot 129.165207
 3499         c3    129    ccc     C6   3499 -0.05097600  12.010000   ; qtot 129.114231
 3500         h1    129    ccc     H9   3500 0.11563300   1.008000   ; qtot 129.229864
 3501         c3    129    ccc     C7   3501 -0.18457900  12.010000   ; qtot 129.045285
 3502         h1    129    ccc    H10   3502 0.11563300   1.008000   ; qtot 129.160918
 3503         hc    129    ccc    H11   3503 0.08347900   1.008000   ; qtot 129.244397
 3504         hc    129    ccc    H12   3504 0.08347900   1.008000   ; qtot 129.327876
 3505          c    129    ccc     C8   3505 0.67254400  12.010000   ; qtot 130.000420
 3506          o    129    ccc     O2   3506 -0.52917200  16.000000   ; qtot 129.471248
 3507         h1    129    ccc    H13   3507 0.11563300   1.008000   ; qtot 129.586881
 3508         h1    129    ccc    H14   3508 0.11563300   1.008000   ; qtot 129.702514
 3509         c3    129    ccc     C9   3509 -0.18457900  12.010000   ; qtot 129.517935
 3510         hc    129    ccc    H15   3510 0.08347900   1.008000   ; qtot 129.601414
 3511         hc    129    ccc    H16   3511 0.08347900   1.008000   ; qtot 129.684893
 3512          c    129    ccc    C10   3512 0.67254400  12.010000   ; qtot 130.357437
 3513          o    129    ccc     O4   3513 -0.52917200  16.000000   ; qtot 129.828265
 3514         c3    129    ccc    C11   3514 0.08518000  12.010000   ; qtot 129.913445
 3515         c3    129    ccc    C12   3515 0.07918000  12.010000   ; qtot 129.992625
 3516         h1    129    ccc    H17   3516 0.06978000   1.008000   ; qtot 130.062405
 3517         c3    129    ccc    C13   3517 0.07918000  12.010000   ; qtot 130.141585
 3518         c3    129    ccc    C14   3518 0.03578000  12.010000   ; qtot 130.177365
 3519         c3    129    ccc    C15   3519 0.33498000  12.010000   ; qtot 130.512345
 3520         h1    129    ccc    H18   3520 0.06178000   1.008000   ; qtot 130.574125
 3521         h1    129    ccc    H19   3521 0.11278000   1.008000   ; qtot 130.686905
 3522         h2    129    ccc    H20   3522 0.12178000   1.008000   ; qtot 130.808685
 3523         oh    129    ccc     O1   3523 -0.56972000  16.000000   ; qtot 130.238964
 3524         oh    129    ccc     O6   3524 -0.57772000  16.000000   ; qtot 129.661244
 3525         c3    129    ccc    C16   3525 0.14548000  12.010000   ; qtot 129.806724
 3526         ho    129    ccc    H21   3526 0.40508000   1.008000   ; qtot 130.211804
 3527         hn    129    ccc    H22   3527 0.31758000   1.008000   ; qtot 130.529384
 3528         h1    129    ccc    H23   3528 0.06278000   1.008000   ; qtot 130.592164
 3529         h1    129    ccc    H24   3529 0.06278000   1.008000   ; qtot 130.654944
 3530         oh    129    ccc     O7   3530 -0.59472000  16.000000   ; qtot 130.060224
 3531         ho    129    ccc    H25   3531 0.41908000   1.008000   ; qtot 130.479304
 3532         os    129    ccc     O8   3532 -0.44552000  16.000000   ; qtot 130.033784
 3533         ho    129    ccc    H26   3533 0.41908000   1.008000   ; qtot 130.452864
 3534         h1    129    ccc    H27   3534 0.08578000   1.008000   ; qtot 130.538644
 3535         oh    129    ccc     O9   3535 -0.58672000  16.000000   ; qtot 129.951924
 3536         ho    129    ccc    H28   3536 0.41908000   1.008000   ; qtot 130.371004
 3537         n3    129    ccc     N3   3537 -0.54282000  14.010000   ; qtot 129.828184
 3538         c3    129    ccc    C17   3538 0.08518000  12.010000   ; qtot 129.913364
 3539         c3    129    ccc    C18   3539 0.07918000  12.010000   ; qtot 129.992544
 3540         h1    129    ccc    H29   3540 0.06978000   1.008000   ; qtot 130.062324
 3541         c3    129    ccc    C19   3541 0.07918000  12.010000   ; qtot 130.141504
 3542         c3    129    ccc    C20   3542 0.03578000  12.010000   ; qtot 130.177284
 3543         c3    129    ccc    C21   3543 0.33498000  12.010000   ; qtot 130.512264
 3544         h1    129    ccc    H30   3544 0.06178000   1.008000   ; qtot 130.574044
 3545         h1    129    ccc    H31   3545 0.11278000   1.008000   ; qtot 130.686824
 3546         h2    129    ccc    H32   3546 0.12178000   1.008000   ; qtot 130.808604
 3547         oh    129    ccc    O10   3547 -0.56972000  16.000000   ; qtot 130.238884
 3548         oh    129    ccc    O11   3548 -0.57772000  16.000000   ; qtot 129.661164
 3549         c3    129    ccc    C22   3549 0.14548000  12.010000   ; qtot 129.806644
 3550         ho    129    ccc    H33   3550 0.40508000   1.008000   ; qtot 130.211724
 3551         hn    129    ccc    H34   3551 0.31758000   1.008000   ; qtot 130.529304
 3552         h1    129    ccc    H35   3552 0.06278000   1.008000   ; qtot 130.592084
 3553         h1    129    ccc    H36   3553 0.06278000   1.008000   ; qtot 130.654864
 3554         oh    129    ccc    O12   3554 -0.59472000  16.000000   ; qtot 130.060144
 3555         ho    129    ccc    H37   3555 0.41908000   1.008000   ; qtot 130.479224
 3556         os    129    ccc    O13   3556 -0.44552000  16.000000   ; qtot 130.033704
 3557         ho    129    ccc    H38   3557 0.41908000   1.008000   ; qtot 130.452784
 3558         h1    129    ccc    H39   3558 0.08578000   1.008000   ; qtot 130.538564
 3559         oh    129    ccc     O5   3559 -0.58672000  16.000000   ; qtot 129.951844
 3560         ho    129    ccc    H40   3560 0.41908000   1.008000   ; qtot 130.370924
 3561         n3    129    ccc     N4   3561 -0.54282000  14.010000   ; qtot 129.828104
 3562         hn    129    ccc    H41   3562 0.17125500   1.008000   ; qtot 129.999359
; residue  130 ccc rtp ccc q 1.0
 3563          n    130    ccc     N1   3563 -0.33303000  14.010000   ; qtot 129.666329
 3564         hn    130    ccc     H4   3564 0.25916100   1.008000   ; qtot 129.925490
 3565         c3    130    ccc     C3   3565 -0.03328100  12.010000   ; qtot 129.892209
 3566         h1    130    ccc     H5   3566 0.10618100   1.008000   ; qtot 129.998390
 3567         c3    130    ccc     C4   3567 -0.02083000  12.010000   ; qtot 129.977560
 3568         h1    130    ccc     H6   3568 0.10618100   1.008000   ; qtot 130.083741
 3569         h1    130    ccc     H7   3569 0.07988000   1.008000   ; qtot 130.163621
 3570         h1    130    ccc     H8   3570 0.07988000   1.008000   ; qtot 130.243501
 3571         n4    130    ccc     N2   3571 -0.02747900  14.010000   ; qtot 130.216022
 3572         c3    130    ccc     C5   3572 -0.05097600  12.010000   ; qtot 130.165046
 3573         c3    130    ccc     C6   3573 -0.05097600  12.010000   ; qtot 130.114070
 3574         h1    130    ccc     H9   3574 0.11563300   1.008000   ; qtot 130.229703
 3575         c3    130    ccc     C7   3575 -0.18457900  12.010000   ; qtot 130.045124
 3576         h1    130    ccc    H10   3576 0.11563300   1.008000   ; qtot 130.160757
 3577         hc    130    ccc    H11   3577 0.08347900   1.008000   ; qtot 130.244236
 3578         hc    130    ccc    H12   3578 0.08347900   1.008000   ; qtot 130.327715
 3579          c    130    ccc     C8   3579 0.67254400  12.010000   ; qtot 131.000259
 3580          o    130    ccc     O2   3580 -0.52917200  16.000000   ; qtot 130.471087
 3581         h1    130    ccc    H13   3581 0.11563300   1.008000   ; qtot 130.586720
 3582         h1    130    ccc    H14   3582 0.11563300   1.008000   ; qtot 130.702353
 3583         c3    130    ccc     C9   3583 -0.18457900  12.010000   ; qtot 130.517774
 3584         hc    130    ccc    H15   3584 0.08347900   1.008000   ; qtot 130.601253
 3585         hc    130    ccc    H16   3585 0.08347900   1.008000   ; qtot 130.684732
 3586          c    130    ccc    C10   3586 0.67254400  12.010000   ; qtot 131.357276
 3587          o    130    ccc     O4   3587 -0.52917200  16.000000   ; qtot 130.828104
 3588         c3    130    ccc    C11   3588 0.08518000  12.010000   ; qtot 130.913284
 3589         c3    130    ccc    C12   3589 0.07918000  12.010000   ; qtot 130.992464
 3590         h1    130    ccc    H17   3590 0.06978000   1.008000   ; qtot 131.062244
 3591         c3    130    ccc    C13   3591 0.07918000  12.010000   ; qtot 131.141424
 3592         c3    130    ccc    C14   3592 0.03578000  12.010000   ; qtot 131.177204
 3593         c3    130    ccc    C15   3593 0.33498000  12.010000   ; qtot 131.512184
 3594         h1    130    ccc    H18   3594 0.06178000   1.008000   ; qtot 131.573964
 3595         h1    130    ccc    H19   3595 0.11278000   1.008000   ; qtot 131.686744
 3596         h2    130    ccc    H20   3596 0.12178000   1.008000   ; qtot 131.808524
 3597         oh    130    ccc     O1   3597 -0.56972000  16.000000   ; qtot 131.238804
 3598         oh    130    ccc     O6   3598 -0.57772000  16.000000   ; qtot 130.661084
 3599         c3    130    ccc    C16   3599 0.14548000  12.010000   ; qtot 130.806564
 3600         ho    130    ccc    H21   3600 0.40508000   1.008000   ; qtot 131.211644
 3601         hn    130    ccc    H22   3601 0.31758000   1.008000   ; qtot 131.529224
 3602         h1    130    ccc    H23   3602 0.06278000   1.008000   ; qtot 131.592004
 3603         h1    130    ccc    H24   3603 0.06278000   1.008000   ; qtot 131.654784
 3604         oh    130    ccc     O7   3604 -0.59472000  16.000000   ; qtot 131.060064
 3605         ho    130    ccc    H25   3605 0.41908000   1.008000   ; qtot 131.479144
 3606         os    130    ccc     O8   3606 -0.44552000  16.000000   ; qtot 131.033624
 3607         ho    130    ccc    H26   3607 0.41908000   1.008000   ; qtot 131.452704
 3608         h1    130    ccc    H27   3608 0.08578000   1.008000   ; qtot 131.538484
 3609         oh    130    ccc     O9   3609 -0.58672000  16.000000   ; qtot 130.951764
 3610         ho    130    ccc    H28   3610 0.41908000   1.008000   ; qtot 131.370844
 3611         n3    130    ccc     N3   3611 -0.54282000  14.010000   ; qtot 130.828024
 3612         c3    130    ccc    C17   3612 0.08518000  12.010000   ; qtot 130.913204
 3613         c3    130    ccc    C18   3613 0.07918000  12.010000   ; qtot 130.992384
 3614         h1    130    ccc    H29   3614 0.06978000   1.008000   ; qtot 131.062164
 3615         c3    130    ccc    C19   3615 0.07918000  12.010000   ; qtot 131.141344
 3616         c3    130    ccc    C20   3616 0.03578000  12.010000   ; qtot 131.177124
 3617         c3    130    ccc    C21   3617 0.33498000  12.010000   ; qtot 131.512104
 3618         h1    130    ccc    H30   3618 0.06178000   1.008000   ; qtot 131.573884
 3619         h1    130    ccc    H31   3619 0.11278000   1.008000   ; qtot 131.686664
 3620         h2    130    ccc    H32   3620 0.12178000   1.008000   ; qtot 131.808444
 3621         oh    130    ccc    O10   3621 -0.56972000  16.000000   ; qtot 131.238724
 3622         oh    130    ccc    O11   3622 -0.57772000  16.000000   ; qtot 130.661004
 3623         c3    130    ccc    C22   3623 0.14548000  12.010000   ; qtot 130.806484
 3624         ho    130    ccc    H33   3624 0.40508000   1.008000   ; qtot 131.211564
 3625         hn    130    ccc    H34   3625 0.31758000   1.008000   ; qtot 131.529144
 3626         h1    130    ccc    H35   3626 0.06278000   1.008000   ; qtot 131.591924
 3627         h1    130    ccc    H36   3627 0.06278000   1.008000   ; qtot 131.654704
 3628         oh    130    ccc    O12   3628 -0.59472000  16.000000   ; qtot 131.059984
 3629         ho    130    ccc    H37   3629 0.41908000   1.008000   ; qtot 131.479064
 3630         os    130    ccc    O13   3630 -0.44552000  16.000000   ; qtot 131.033544
 3631         ho    130    ccc    H38   3631 0.41908000   1.008000   ; qtot 131.452624
 3632         h1    130    ccc    H39   3632 0.08578000   1.008000   ; qtot 131.538404
 3633         oh    130    ccc     O5   3633 -0.58672000  16.000000   ; qtot 130.951684
 3634         ho    130    ccc    H40   3634 0.41908000   1.008000   ; qtot 131.370764
 3635         n3    130    ccc     N4   3635 -0.54282000  14.010000   ; qtot 130.827944
 3636         hn    130    ccc    H41   3636 0.17125500   1.008000   ; qtot 130.999199
; residue  131 ccc rtp ccc q 1.0
 3637          n    131    ccc     N1   3637 -0.33303000  14.010000   ; qtot 130.666169
 3638         hn    131    ccc     H4   3638 0.25916100   1.008000   ; qtot 130.925330
 3639         c3    131    ccc     C3   3639 -0.03328100  12.010000   ; qtot 130.892049
 3640         h1    131    ccc     H5   3640 0.10618100   1.008000   ; qtot 130.998230
 3641         c3    131    ccc     C4   3641 -0.02083000  12.010000   ; qtot 130.977400
 3642         h1    131    ccc     H6   3642 0.10618100   1.008000   ; qtot 131.083581
 3643         h1    131    ccc     H7   3643 0.07988000   1.008000   ; qtot 131.163461
 3644         h1    131    ccc     H8   3644 0.07988000   1.008000   ; qtot 131.243341
 3645         n4    131    ccc     N2   3645 -0.02747900  14.010000   ; qtot 131.215862
 3646         c3    131    ccc     C5   3646 -0.05097600  12.010000   ; qtot 131.164886
 3647         c3    131    ccc     C6   3647 -0.05097600  12.010000   ; qtot 131.113910
 3648         h1    131    ccc     H9   3648 0.11563300   1.008000   ; qtot 131.229543
 3649         c3    131    ccc     C7   3649 -0.18457900  12.010000   ; qtot 131.044964
 3650         h1    131    ccc    H10   3650 0.11563300   1.008000   ; qtot 131.160597
 3651         hc    131    ccc    H11   3651 0.08347900   1.008000   ; qtot 131.244076
 3652         hc    131    ccc    H12   3652 0.08347900   1.008000   ; qtot 131.327555
 3653          c    131    ccc     C8   3653 0.67254400  12.010000   ; qtot 132.000099
 3654          o    131    ccc     O2   3654 -0.52917200  16.000000   ; qtot 131.470927
 3655         h1    131    ccc    H13   3655 0.11563300   1.008000   ; qtot 131.586560
 3656         h1    131    ccc    H14   3656 0.11563300   1.008000   ; qtot 131.702193
 3657         c3    131    ccc     C9   3657 -0.18457900  12.010000   ; qtot 131.517614
 3658         hc    131    ccc    H15   3658 0.08347900   1.008000   ; qtot 131.601093
 3659         hc    131    ccc    H16   3659 0.08347900   1.008000   ; qtot 131.684572
 3660          c    131    ccc    C10   3660 0.67254400  12.010000   ; qtot 132.357116
 3661          o    131    ccc     O4   3661 -0.52917200  16.000000   ; qtot 131.827944
 3662         c3    131    ccc    C11   3662 0.08518000  12.010000   ; qtot 131.913124
 3663         c3    131    ccc    C12   3663 0.07918000  12.010000   ; qtot 131.992304
 3664         h1    131    ccc    H17   3664 0.06978000   1.008000   ; qtot 132.062084
 3665         c3    131    ccc    C13   3665 0.07918000  12.010000   ; qtot 132.141264
 3666         c3    131    ccc    C14   3666 0.03578000  12.010000   ; qtot 132.177044
 3667         c3    131    ccc    C15   3667 0.33498000  12.010000   ; qtot 132.512024
 3668         h1    131    ccc    H18   3668 0.06178000   1.008000   ; qtot 132.573804
 3669         h1    131    ccc    H19   3669 0.11278000   1.008000   ; qtot 132.686584
 3670         h2    131    ccc    H20   3670 0.12178000   1.008000   ; qtot 132.808364
 3671         oh    131    ccc     O1   3671 -0.56972000  16.000000   ; qtot 132.238644
 3672         oh    131    ccc     O6   3672 -0.57772000  16.000000   ; qtot 131.660924
 3673         c3    131    ccc    C16   3673 0.14548000  12.010000   ; qtot 131.806404
 3674         ho    131    ccc    H21   3674 0.40508000   1.008000   ; qtot 132.211484
 3675         hn    131    ccc    H22   3675 0.31758000   1.008000   ; qtot 132.529064
 3676         h1    131    ccc    H23   3676 0.06278000   1.008000   ; qtot 132.591844
 3677         h1    131    ccc    H24   3677 0.06278000   1.008000   ; qtot 132.654624
 3678         oh    131    ccc     O7   3678 -0.59472000  16.000000   ; qtot 132.059904
 3679         ho    131    ccc    H25   3679 0.41908000   1.008000   ; qtot 132.478984
 3680         os    131    ccc     O8   3680 -0.44552000  16.000000   ; qtot 132.033464
 3681         ho    131    ccc    H26   3681 0.41908000   1.008000   ; qtot 132.452544
 3682         h1    131    ccc    H27   3682 0.08578000   1.008000   ; qtot 132.538324
 3683         oh    131    ccc     O9   3683 -0.58672000  16.000000   ; qtot 131.951604
 3684         ho    131    ccc    H28   3684 0.41908000   1.008000   ; qtot 132.370684
 3685         n3    131    ccc     N3   3685 -0.54282000  14.010000   ; qtot 131.827864
 3686         c3    131    ccc    C17   3686 0.08518000  12.010000   ; qtot 131.913044
 3687         c3    131    ccc    C18   3687 0.07918000  12.010000   ; qtot 131.992224
 3688         h1    131    ccc    H29   3688 0.06978000   1.008000   ; qtot 132.062004
 3689         c3    131    ccc    C19   3689 0.07918000  12.010000   ; qtot 132.141184
 3690         c3    131    ccc    C20   3690 0.03578000  12.010000   ; qtot 132.176964
 3691         c3    131    ccc    C21   3691 0.33498000  12.010000   ; qtot 132.511944
 3692         h1    131    ccc    H30   3692 0.06178000   1.008000   ; qtot 132.573724
 3693         h1    131    ccc    H31   3693 0.11278000   1.008000   ; qtot 132.686504
 3694         h2    131    ccc    H32   3694 0.12178000   1.008000   ; qtot 132.808284
 3695         oh    131    ccc    O10   3695 -0.56972000  16.000000   ; qtot 132.238564
 3696         oh    131    ccc    O11   3696 -0.57772000  16.000000   ; qtot 131.660844
 3697         c3    131    ccc    C22   3697 0.14548000  12.010000   ; qtot 131.806324
 3698         ho    131    ccc    H33   3698 0.40508000   1.008000   ; qtot 132.211404
 3699         hn    131    ccc    H34   3699 0.31758000   1.008000   ; qtot 132.528984
 3700         h1    131    ccc    H35   3700 0.06278000   1.008000   ; qtot 132.591764
 3701         h1    131    ccc    H36   3701 0.06278000   1.008000   ; qtot 132.654544
 3702         oh    131    ccc    O12   3702 -0.59472000  16.000000   ; qtot 132.059824
 3703         ho    131    ccc    H37   3703 0.41908000   1.008000   ; qtot 132.478904
 3704         os    131    ccc    O13   3704 -0.44552000  16.000000   ; qtot 132.033384
 3705         ho    131    ccc    H38   3705 0.41908000   1.008000   ; qtot 132.452464
 3706         h1    131    ccc    H39   3706 0.08578000   1.008000   ; qtot 132.538244
 3707         oh    131    ccc     O5   3707 -0.58672000  16.000000   ; qtot 131.951524
 3708         ho    131    ccc    H40   3708 0.41908000   1.008000   ; qtot 132.370604
 3709         n3    131    ccc     N4   3709 -0.54282000  14.010000   ; qtot 131.827784
 3710         hn    131    ccc    H41   3710 0.17125500   1.008000   ; qtot 131.999039
; residue  132 ccc rtp ccc q 1.0
 3711          n    132    ccc     N1   3711 -0.33303000  14.010000   ; qtot 131.666009
 3712         hn    132    ccc     H4   3712 0.25916100   1.008000   ; qtot 131.925170
 3713         c3    132    ccc     C3   3713 -0.03328100  12.010000   ; qtot 131.891889
 3714         h1    132    ccc     H5   3714 0.10618100   1.008000   ; qtot 131.998070
 3715         c3    132    ccc     C4   3715 -0.02083000  12.010000   ; qtot 131.977240
 3716         h1    132    ccc     H6   3716 0.10618100   1.008000   ; qtot 132.083421
 3717         h1    132    ccc     H7   3717 0.07988000   1.008000   ; qtot 132.163301
 3718         h1    132    ccc     H8   3718 0.07988000   1.008000   ; qtot 132.243181
 3719         n4    132    ccc     N2   3719 -0.02747900  14.010000   ; qtot 132.215702
 3720         c3    132    ccc     C5   3720 -0.05097600  12.010000   ; qtot 132.164726
 3721         c3    132    ccc     C6   3721 -0.05097600  12.010000   ; qtot 132.113750
 3722         h1    132    ccc     H9   3722 0.11563300   1.008000   ; qtot 132.229383
 3723         c3    132    ccc     C7   3723 -0.18457900  12.010000   ; qtot 132.044804
 3724         h1    132    ccc    H10   3724 0.11563300   1.008000   ; qtot 132.160437
 3725         hc    132    ccc    H11   3725 0.08347900   1.008000   ; qtot 132.243916
 3726         hc    132    ccc    H12   3726 0.08347900   1.008000   ; qtot 132.327395
 3727          c    132    ccc     C8   3727 0.67254400  12.010000   ; qtot 132.999939
 3728          o    132    ccc     O2   3728 -0.52917200  16.000000   ; qtot 132.470767
 3729         h1    132    ccc    H13   3729 0.11563300   1.008000   ; qtot 132.586400
 3730         h1    132    ccc    H14   3730 0.11563300   1.008000   ; qtot 132.702033
 3731         c3    132    ccc     C9   3731 -0.18457900  12.010000   ; qtot 132.517454
 3732         hc    132    ccc    H15   3732 0.08347900   1.008000   ; qtot 132.600933
 3733         hc    132    ccc    H16   3733 0.08347900   1.008000   ; qtot 132.684412
 3734          c    132    ccc    C10   3734 0.67254400  12.010000   ; qtot 133.356956
 3735          o    132    ccc     O4   3735 -0.52917200  16.000000   ; qtot 132.827784
 3736         c3    132    ccc    C11   3736 0.08518000  12.010000   ; qtot 132.912964
 3737         c3    132    ccc    C12   3737 0.07918000  12.010000   ; qtot 132.992144
 3738         h1    132    ccc    H17   3738 0.06978000   1.008000   ; qtot 133.061924
 3739         c3    132    ccc    C13   3739 0.07918000  12.010000   ; qtot 133.141104
 3740         c3    132    ccc    C14   3740 0.03578000  12.010000   ; qtot 133.176884
 3741         c3    132    ccc    C15   3741 0.33498000  12.010000   ; qtot 133.511864
 3742         h1    132    ccc    H18   3742 0.06178000   1.008000   ; qtot 133.573644
 3743         h1    132    ccc    H19   3743 0.11278000   1.008000   ; qtot 133.686424
 3744         h2    132    ccc    H20   3744 0.12178000   1.008000   ; qtot 133.808204
 3745         oh    132    ccc     O1   3745 -0.56972000  16.000000   ; qtot 133.238484
 3746         oh    132    ccc     O6   3746 -0.57772000  16.000000   ; qtot 132.660764
 3747         c3    132    ccc    C16   3747 0.14548000  12.010000   ; qtot 132.806244
 3748         ho    132    ccc    H21   3748 0.40508000   1.008000   ; qtot 133.211324
 3749         hn    132    ccc    H22   3749 0.31758000   1.008000   ; qtot 133.528904
 3750         h1    132    ccc    H23   3750 0.06278000   1.008000   ; qtot 133.591684
 3751         h1    132    ccc    H24   3751 0.06278000   1.008000   ; qtot 133.654464
 3752         oh    132    ccc     O7   3752 -0.59472000  16.000000   ; qtot 133.059744
 3753         ho    132    ccc    H25   3753 0.41908000   1.008000   ; qtot 133.478824
 3754         os    132    ccc     O8   3754 -0.44552000  16.000000   ; qtot 133.033304
 3755         ho    132    ccc    H26   3755 0.41908000   1.008000   ; qtot 133.452384
 3756         h1    132    ccc    H27   3756 0.08578000   1.008000   ; qtot 133.538164
 3757         oh    132    ccc     O9   3757 -0.58672000  16.000000   ; qtot 132.951444
 3758         ho    132    ccc    H28   3758 0.41908000   1.008000   ; qtot 133.370524
 3759         n3    132    ccc     N3   3759 -0.54282000  14.010000   ; qtot 132.827704
 3760         c3    132    ccc    C17   3760 0.08518000  12.010000   ; qtot 132.912884
 3761         c3    132    ccc    C18   3761 0.07918000  12.010000   ; qtot 132.992064
 3762         h1    132    ccc    H29   3762 0.06978000   1.008000   ; qtot 133.061844
 3763         c3    132    ccc    C19   3763 0.07918000  12.010000   ; qtot 133.141024
 3764         c3    132    ccc    C20   3764 0.03578000  12.010000   ; qtot 133.176804
 3765         c3    132    ccc    C21   3765 0.33498000  12.010000   ; qtot 133.511784
 3766         h1    132    ccc    H30   3766 0.06178000   1.008000   ; qtot 133.573564
 3767         h1    132    ccc    H31   3767 0.11278000   1.008000   ; qtot 133.686344
 3768         h2    132    ccc    H32   3768 0.12178000   1.008000   ; qtot 133.808124
 3769         oh    132    ccc    O10   3769 -0.56972000  16.000000   ; qtot 133.238404
 3770         oh    132    ccc    O11   3770 -0.57772000  16.000000   ; qtot 132.660684
 3771         c3    132    ccc    C22   3771 0.14548000  12.010000   ; qtot 132.806164
 3772         ho    132    ccc    H33   3772 0.40508000   1.008000   ; qtot 133.211244
 3773         hn    132    ccc    H34   3773 0.31758000   1.008000   ; qtot 133.528824
 3774         h1    132    ccc    H35   3774 0.06278000   1.008000   ; qtot 133.591604
 3775         h1    132    ccc    H36   3775 0.06278000   1.008000   ; qtot 133.654384
 3776         oh    132    ccc    O12   3776 -0.59472000  16.000000   ; qtot 133.059664
 3777         ho    132    ccc    H37   3777 0.41908000   1.008000   ; qtot 133.478744
 3778         os    132    ccc    O13   3778 -0.44552000  16.000000   ; qtot 133.033224
 3779         ho    132    ccc    H38   3779 0.41908000   1.008000   ; qtot 133.452304
 3780         h1    132    ccc    H39   3780 0.08578000   1.008000   ; qtot 133.538084
 3781         oh    132    ccc     O5   3781 -0.58672000  16.000000   ; qtot 132.951364
 3782         ho    132    ccc    H40   3782 0.41908000   1.008000   ; qtot 133.370444
 3783         n3    132    ccc     N4   3783 -0.54282000  14.010000   ; qtot 132.827624
 3784         hn    132    ccc    H41   3784 0.17125500   1.008000   ; qtot 132.998879
; residue  133 ccc rtp ccc q 1.0
 3785          n    133    ccc     N1   3785 -0.33303000  14.010000   ; qtot 132.665849
 3786         hn    133    ccc     H4   3786 0.25916100   1.008000   ; qtot 132.925010
 3787         c3    133    ccc     C3   3787 -0.03328100  12.010000   ; qtot 132.891729
 3788         h1    133    ccc     H5   3788 0.10618100   1.008000   ; qtot 132.997910
 3789         c3    133    ccc     C4   3789 -0.02083000  12.010000   ; qtot 132.977080
 3790         h1    133    ccc     H6   3790 0.10618100   1.008000   ; qtot 133.083261
 3791         h1    133    ccc     H7   3791 0.07988000   1.008000   ; qtot 133.163141
 3792         h1    133    ccc     H8   3792 0.07988000   1.008000   ; qtot 133.243021
 3793         n4    133    ccc     N2   3793 -0.02747900  14.010000   ; qtot 133.215542
 3794         c3    133    ccc     C5   3794 -0.05097600  12.010000   ; qtot 133.164566
 3795         c3    133    ccc     C6   3795 -0.05097600  12.010000   ; qtot 133.113590
 3796         h1    133    ccc     H9   3796 0.11563300   1.008000   ; qtot 133.229223
 3797         c3    133    ccc     C7   3797 -0.18457900  12.010000   ; qtot 133.044644
 3798         h1    133    ccc    H10   3798 0.11563300   1.008000   ; qtot 133.160277
 3799         hc    133    ccc    H11   3799 0.08347900   1.008000   ; qtot 133.243756
 3800         hc    133    ccc    H12   3800 0.08347900   1.008000   ; qtot 133.327235
 3801          c    133    ccc     C8   3801 0.67254400  12.010000   ; qtot 133.999779
 3802          o    133    ccc     O2   3802 -0.52917200  16.000000   ; qtot 133.470607
 3803         h1    133    ccc    H13   3803 0.11563300   1.008000   ; qtot 133.586240
 3804         h1    133    ccc    H14   3804 0.11563300   1.008000   ; qtot 133.701873
 3805         c3    133    ccc     C9   3805 -0.18457900  12.010000   ; qtot 133.517294
 3806         hc    133    ccc    H15   3806 0.08347900   1.008000   ; qtot 133.600773
 3807         hc    133    ccc    H16   3807 0.08347900   1.008000   ; qtot 133.684252
 3808          c    133    ccc    C10   3808 0.67254400  12.010000   ; qtot 134.356796
 3809          o    133    ccc     O4   3809 -0.52917200  16.000000   ; qtot 133.827624
 3810         c3    133    ccc    C11   3810 0.08518000  12.010000   ; qtot 133.912804
 3811         c3    133    ccc    C12   3811 0.07918000  12.010000   ; qtot 133.991984
 3812         h1    133    ccc    H17   3812 0.06978000   1.008000   ; qtot 134.061764
 3813         c3    133    ccc    C13   3813 0.07918000  12.010000   ; qtot 134.140944
 3814         c3    133    ccc    C14   3814 0.03578000  12.010000   ; qtot 134.176724
 3815         c3    133    ccc    C15   3815 0.33498000  12.010000   ; qtot 134.511704
 3816         h1    133    ccc    H18   3816 0.06178000   1.008000   ; qtot 134.573484
 3817         h1    133    ccc    H19   3817 0.11278000   1.008000   ; qtot 134.686264
 3818         h2    133    ccc    H20   3818 0.12178000   1.008000   ; qtot 134.808044
 3819         oh    133    ccc     O1   3819 -0.56972000  16.000000   ; qtot 134.238324
 3820         oh    133    ccc     O6   3820 -0.57772000  16.000000   ; qtot 133.660604
 3821         c3    133    ccc    C16   3821 0.14548000  12.010000   ; qtot 133.806084
 3822         ho    133    ccc    H21   3822 0.40508000   1.008000   ; qtot 134.211164
 3823         hn    133    ccc    H22   3823 0.31758000   1.008000   ; qtot 134.528744
 3824         h1    133    ccc    H23   3824 0.06278000   1.008000   ; qtot 134.591524
 3825         h1    133    ccc    H24   3825 0.06278000   1.008000   ; qtot 134.654304
 3826         oh    133    ccc     O7   3826 -0.59472000  16.000000   ; qtot 134.059584
 3827         ho    133    ccc    H25   3827 0.41908000   1.008000   ; qtot 134.478664
 3828         os    133    ccc     O8   3828 -0.44552000  16.000000   ; qtot 134.033144
 3829         ho    133    ccc    H26   3829 0.41908000   1.008000   ; qtot 134.452224
 3830         h1    133    ccc    H27   3830 0.08578000   1.008000   ; qtot 134.538004
 3831         oh    133    ccc     O9   3831 -0.58672000  16.000000   ; qtot 133.951284
 3832         ho    133    ccc    H28   3832 0.41908000   1.008000   ; qtot 134.370364
 3833         n3    133    ccc     N3   3833 -0.54282000  14.010000   ; qtot 133.827544
 3834         c3    133    ccc    C17   3834 0.08518000  12.010000   ; qtot 133.912724
 3835         c3    133    ccc    C18   3835 0.07918000  12.010000   ; qtot 133.991904
 3836         h1    133    ccc    H29   3836 0.06978000   1.008000   ; qtot 134.061684
 3837         c3    133    ccc    C19   3837 0.07918000  12.010000   ; qtot 134.140864
 3838         c3    133    ccc    C20   3838 0.03578000  12.010000   ; qtot 134.176644
 3839         c3    133    ccc    C21   3839 0.33498000  12.010000   ; qtot 134.511624
 3840         h1    133    ccc    H30   3840 0.06178000   1.008000   ; qtot 134.573404
 3841         h1    133    ccc    H31   3841 0.11278000   1.008000   ; qtot 134.686184
 3842         h2    133    ccc    H32   3842 0.12178000   1.008000   ; qtot 134.807964
 3843         oh    133    ccc    O10   3843 -0.56972000  16.000000   ; qtot 134.238244
 3844         oh    133    ccc    O11   3844 -0.57772000  16.000000   ; qtot 133.660524
 3845         c3    133    ccc    C22   3845 0.14548000  12.010000   ; qtot 133.806004
 3846         ho    133    ccc    H33   3846 0.40508000   1.008000   ; qtot 134.211084
 3847         hn    133    ccc    H34   3847 0.31758000   1.008000   ; qtot 134.528664
 3848         h1    133    ccc    H35   3848 0.06278000   1.008000   ; qtot 134.591444
 3849         h1    133    ccc    H36   3849 0.06278000   1.008000   ; qtot 134.654224
 3850         oh    133    ccc    O12   3850 -0.59472000  16.000000   ; qtot 134.059504
 3851         ho    133    ccc    H37   3851 0.41908000   1.008000   ; qtot 134.478584
 3852         os    133    ccc    O13   3852 -0.44552000  16.000000   ; qtot 134.033064
 3853         ho    133    ccc    H38   3853 0.41908000   1.008000   ; qtot 134.452144
 3854         h1    133    ccc    H39   3854 0.08578000   1.008000   ; qtot 134.537924
 3855         oh    133    ccc     O5   3855 -0.58672000  16.000000   ; qtot 133.951204
 3856         ho    133    ccc    H40   3856 0.41908000   1.008000   ; qtot 134.370284
 3857         n3    133    ccc     N4   3857 -0.54282000  14.010000   ; qtot 133.827464
 3858         hn    133    ccc    H41   3858 0.17125500   1.008000   ; qtot 133.998719
; residue  134 ccc rtp ccc q 1.0
 3859          n    134    ccc     N1   3859 -0.33303000  14.010000   ; qtot 133.665689
 3860         hn    134    ccc     H4   3860 0.25916100   1.008000   ; qtot 133.924850
 3861         c3    134    ccc     C3   3861 -0.03328100  12.010000   ; qtot 133.891569
 3862         h1    134    ccc     H5   3862 0.10618100   1.008000   ; qtot 133.997750
 3863         c3    134    ccc     C4   3863 -0.02083000  12.010000   ; qtot 133.976920
 3864         h1    134    ccc     H6   3864 0.10618100   1.008000   ; qtot 134.083101
 3865         h1    134    ccc     H7   3865 0.07988000   1.008000   ; qtot 134.162981
 3866         h1    134    ccc     H8   3866 0.07988000   1.008000   ; qtot 134.242861
 3867         n4    134    ccc     N2   3867 -0.02747900  14.010000   ; qtot 134.215382
 3868         c3    134    ccc     C5   3868 -0.05097600  12.010000   ; qtot 134.164406
 3869         c3    134    ccc     C6   3869 -0.05097600  12.010000   ; qtot 134.113430
 3870         h1    134    ccc     H9   3870 0.11563300   1.008000   ; qtot 134.229063
 3871         c3    134    ccc     C7   3871 -0.18457900  12.010000   ; qtot 134.044484
 3872         h1    134    ccc    H10   3872 0.11563300   1.008000   ; qtot 134.160117
 3873         hc    134    ccc    H11   3873 0.08347900   1.008000   ; qtot 134.243596
 3874         hc    134    ccc    H12   3874 0.08347900   1.008000   ; qtot 134.327075
 3875          c    134    ccc     C8   3875 0.67254400  12.010000   ; qtot 134.999619
 3876          o    134    ccc     O2   3876 -0.52917200  16.000000   ; qtot 134.470447
 3877         h1    134    ccc    H13   3877 0.11563300   1.008000   ; qtot 134.586080
 3878         h1    134    ccc    H14   3878 0.11563300   1.008000   ; qtot 134.701713
 3879         c3    134    ccc     C9   3879 -0.18457900  12.010000   ; qtot 134.517134
 3880         hc    134    ccc    H15   3880 0.08347900   1.008000   ; qtot 134.600613
 3881         hc    134    ccc    H16   3881 0.08347900   1.008000   ; qtot 134.684092
 3882          c    134    ccc    C10   3882 0.67254400  12.010000   ; qtot 135.356636
 3883          o    134    ccc     O4   3883 -0.52917200  16.000000   ; qtot 134.827464
 3884         c3    134    ccc    C11   3884 0.08518000  12.010000   ; qtot 134.912644
 3885         c3    134    ccc    C12   3885 0.07918000  12.010000   ; qtot 134.991824
 3886         h1    134    ccc    H17   3886 0.06978000   1.008000   ; qtot 135.061604
 3887         c3    134    ccc    C13   3887 0.07918000  12.010000   ; qtot 135.140784
 3888         c3    134    ccc    C14   3888 0.03578000  12.010000   ; qtot 135.176564
 3889         c3    134    ccc    C15   3889 0.33498000  12.010000   ; qtot 135.511544
 3890         h1    134    ccc    H18   3890 0.06178000   1.008000   ; qtot 135.573324
 3891         h1    134    ccc    H19   3891 0.11278000   1.008000   ; qtot 135.686104
 3892         h2    134    ccc    H20   3892 0.12178000   1.008000   ; qtot 135.807884
 3893         oh    134    ccc     O1   3893 -0.56972000  16.000000   ; qtot 135.238164
 3894         oh    134    ccc     O6   3894 -0.57772000  16.000000   ; qtot 134.660444
 3895         c3    134    ccc    C16   3895 0.14548000  12.010000   ; qtot 134.805924
 3896         ho    134    ccc    H21   3896 0.40508000   1.008000   ; qtot 135.211004
 3897         hn    134    ccc    H22   3897 0.31758000   1.008000   ; qtot 135.528584
 3898         h1    134    ccc    H23   3898 0.06278000   1.008000   ; qtot 135.591364
 3899         h1    134    ccc    H24   3899 0.06278000   1.008000   ; qtot 135.654144
 3900         oh    134    ccc     O7   3900 -0.59472000  16.000000   ; qtot 135.059424
 3901         ho    134    ccc    H25   3901 0.41908000   1.008000   ; qtot 135.478504
 3902         os    134    ccc     O8   3902 -0.44552000  16.000000   ; qtot 135.032984
 3903         ho    134    ccc    H26   3903 0.41908000   1.008000   ; qtot 135.452064
 3904         h1    134    ccc    H27   3904 0.08578000   1.008000   ; qtot 135.537844
 3905         oh    134    ccc     O9   3905 -0.58672000  16.000000   ; qtot 134.951124
 3906         ho    134    ccc    H28   3906 0.41908000   1.008000   ; qtot 135.370204
 3907         n3    134    ccc     N3   3907 -0.54282000  14.010000   ; qtot 134.827384
 3908         c3    134    ccc    C17   3908 0.08518000  12.010000   ; qtot 134.912564
 3909         c3    134    ccc    C18   3909 0.07918000  12.010000   ; qtot 134.991744
 3910         h1    134    ccc    H29   3910 0.06978000   1.008000   ; qtot 135.061524
 3911         c3    134    ccc    C19   3911 0.07918000  12.010000   ; qtot 135.140704
 3912         c3    134    ccc    C20   3912 0.03578000  12.010000   ; qtot 135.176484
 3913         c3    134    ccc    C21   3913 0.33498000  12.010000   ; qtot 135.511464
 3914         h1    134    ccc    H30   3914 0.06178000   1.008000   ; qtot 135.573244
 3915         h1    134    ccc    H31   3915 0.11278000   1.008000   ; qtot 135.686024
 3916         h2    134    ccc    H32   3916 0.12178000   1.008000   ; qtot 135.807804
 3917         oh    134    ccc    O10   3917 -0.56972000  16.000000   ; qtot 135.238084
 3918         oh    134    ccc    O11   3918 -0.57772000  16.000000   ; qtot 134.660364
 3919         c3    134    ccc    C22   3919 0.14548000  12.010000   ; qtot 134.805844
 3920         ho    134    ccc    H33   3920 0.40508000   1.008000   ; qtot 135.210924
 3921         hn    134    ccc    H34   3921 0.31758000   1.008000   ; qtot 135.528504
 3922         h1    134    ccc    H35   3922 0.06278000   1.008000   ; qtot 135.591284
 3923         h1    134    ccc    H36   3923 0.06278000   1.008000   ; qtot 135.654064
 3924         oh    134    ccc    O12   3924 -0.59472000  16.000000   ; qtot 135.059344
 3925         ho    134    ccc    H37   3925 0.41908000   1.008000   ; qtot 135.478424
 3926         os    134    ccc    O13   3926 -0.44552000  16.000000   ; qtot 135.032904
 3927         ho    134    ccc    H38   3927 0.41908000   1.008000   ; qtot 135.451984
 3928         h1    134    ccc    H39   3928 0.08578000   1.008000   ; qtot 135.537764
 3929         oh    134    ccc     O5   3929 -0.58672000  16.000000   ; qtot 134.951044
 3930         ho    134    ccc    H40   3930 0.41908000   1.008000   ; qtot 135.370124
 3931         n3    134    ccc     N4   3931 -0.54282000  14.010000   ; qtot 134.827304
 3932         hn    134    ccc    H41   3932 0.17125500   1.008000   ; qtot 134.998559
; residue  135 ccc rtp ccc q 1.0
 3933          n    135    ccc     N1   3933 -0.33303000  14.010000   ; qtot 134.665529
 3934         hn    135    ccc     H4   3934 0.25916100   1.008000   ; qtot 134.924690
 3935         c3    135    ccc     C3   3935 -0.03328100  12.010000   ; qtot 134.891409
 3936         h1    135    ccc     H5   3936 0.10618100   1.008000   ; qtot 134.997590
 3937         c3    135    ccc     C4   3937 -0.02083000  12.010000   ; qtot 134.976760
 3938         h1    135    ccc     H6   3938 0.10618100   1.008000   ; qtot 135.082941
 3939         h1    135    ccc     H7   3939 0.07988000   1.008000   ; qtot 135.162821
 3940         h1    135    ccc     H8   3940 0.07988000   1.008000   ; qtot 135.242701
 3941         n4    135    ccc     N2   3941 -0.02747900  14.010000   ; qtot 135.215222
 3942         c3    135    ccc     C5   3942 -0.05097600  12.010000   ; qtot 135.164246
 3943         c3    135    ccc     C6   3943 -0.05097600  12.010000   ; qtot 135.113270
 3944         h1    135    ccc     H9   3944 0.11563300   1.008000   ; qtot 135.228903
 3945         c3    135    ccc     C7   3945 -0.18457900  12.010000   ; qtot 135.044324
 3946         h1    135    ccc    H10   3946 0.11563300   1.008000   ; qtot 135.159957
 3947         hc    135    ccc    H11   3947 0.08347900   1.008000   ; qtot 135.243436
 3948         hc    135    ccc    H12   3948 0.08347900   1.008000   ; qtot 135.326915
 3949          c    135    ccc     C8   3949 0.67254400  12.010000   ; qtot 135.999459
 3950          o    135    ccc     O2   3950 -0.52917200  16.000000   ; qtot 135.470287
 3951         h1    135    ccc    H13   3951 0.11563300   1.008000   ; qtot 135.585920
 3952         h1    135    ccc    H14   3952 0.11563300   1.008000   ; qtot 135.701553
 3953         c3    135    ccc     C9   3953 -0.18457900  12.010000   ; qtot 135.516974
 3954         hc    135    ccc    H15   3954 0.08347900   1.008000   ; qtot 135.600453
 3955         hc    135    ccc    H16   3955 0.08347900   1.008000   ; qtot 135.683932
 3956          c    135    ccc    C10   3956 0.67254400  12.010000   ; qtot 136.356476
 3957          o    135    ccc     O4   3957 -0.52917200  16.000000   ; qtot 135.827304
 3958         c3    135    ccc    C11   3958 0.08518000  12.010000   ; qtot 135.912484
 3959         c3    135    ccc    C12   3959 0.07918000  12.010000   ; qtot 135.991664
 3960         h1    135    ccc    H17   3960 0.06978000   1.008000   ; qtot 136.061444
 3961         c3    135    ccc    C13   3961 0.07918000  12.010000   ; qtot 136.140624
 3962         c3    135    ccc    C14   3962 0.03578000  12.010000   ; qtot 136.176404
 3963         c3    135    ccc    C15   3963 0.33498000  12.010000   ; qtot 136.511384
 3964         h1    135    ccc    H18   3964 0.06178000   1.008000   ; qtot 136.573164
 3965         h1    135    ccc    H19   3965 0.11278000   1.008000   ; qtot 136.685944
 3966         h2    135    ccc    H20   3966 0.12178000   1.008000   ; qtot 136.807724
 3967         oh    135    ccc     O1   3967 -0.56972000  16.000000   ; qtot 136.238004
 3968         oh    135    ccc     O6   3968 -0.57772000  16.000000   ; qtot 135.660284
 3969         c3    135    ccc    C16   3969 0.14548000  12.010000   ; qtot 135.805764
 3970         ho    135    ccc    H21   3970 0.40508000   1.008000   ; qtot 136.210844
 3971         hn    135    ccc    H22   3971 0.31758000   1.008000   ; qtot 136.528424
 3972         h1    135    ccc    H23   3972 0.06278000   1.008000   ; qtot 136.591204
 3973         h1    135    ccc    H24   3973 0.06278000   1.008000   ; qtot 136.653984
 3974         oh    135    ccc     O7   3974 -0.59472000  16.000000   ; qtot 136.059264
 3975         ho    135    ccc    H25   3975 0.41908000   1.008000   ; qtot 136.478344
 3976         os    135    ccc     O8   3976 -0.44552000  16.000000   ; qtot 136.032824
 3977         ho    135    ccc    H26   3977 0.41908000   1.008000   ; qtot 136.451904
 3978         h1    135    ccc    H27   3978 0.08578000   1.008000   ; qtot 136.537684
 3979         oh    135    ccc     O9   3979 -0.58672000  16.000000   ; qtot 135.950964
 3980         ho    135    ccc    H28   3980 0.41908000   1.008000   ; qtot 136.370044
 3981         n3    135    ccc     N3   3981 -0.54282000  14.010000   ; qtot 135.827224
 3982         c3    135    ccc    C17   3982 0.08518000  12.010000   ; qtot 135.912404
 3983         c3    135    ccc    C18   3983 0.07918000  12.010000   ; qtot 135.991584
 3984         h1    135    ccc    H29   3984 0.06978000   1.008000   ; qtot 136.061364
 3985         c3    135    ccc    C19   3985 0.07918000  12.010000   ; qtot 136.140544
 3986         c3    135    ccc    C20   3986 0.03578000  12.010000   ; qtot 136.176324
 3987         c3    135    ccc    C21   3987 0.33498000  12.010000   ; qtot 136.511304
 3988         h1    135    ccc    H30   3988 0.06178000   1.008000   ; qtot 136.573084
 3989         h1    135    ccc    H31   3989 0.11278000   1.008000   ; qtot 136.685864
 3990         h2    135    ccc    H32   3990 0.12178000   1.008000   ; qtot 136.807644
 3991         oh    135    ccc    O10   3991 -0.56972000  16.000000   ; qtot 136.237924
 3992         oh    135    ccc    O11   3992 -0.57772000  16.000000   ; qtot 135.660204
 3993         c3    135    ccc    C22   3993 0.14548000  12.010000   ; qtot 135.805684
 3994         ho    135    ccc    H33   3994 0.40508000   1.008000   ; qtot 136.210764
 3995         hn    135    ccc    H34   3995 0.31758000   1.008000   ; qtot 136.528344
 3996         h1    135    ccc    H35   3996 0.06278000   1.008000   ; qtot 136.591124
 3997         h1    135    ccc    H36   3997 0.06278000   1.008000   ; qtot 136.653904
 3998         oh    135    ccc    O12   3998 -0.59472000  16.000000   ; qtot 136.059184
 3999         ho    135    ccc    H37   3999 0.41908000   1.008000   ; qtot 136.478264
 4000         os    135    ccc    O13   4000 -0.44552000  16.000000   ; qtot 136.032744
 4001         ho    135    ccc    H38   4001 0.41908000   1.008000   ; qtot 136.451824
 4002         h1    135    ccc    H39   4002 0.08578000   1.008000   ; qtot 136.537604
 4003         oh    135    ccc     O5   4003 -0.58672000  16.000000   ; qtot 135.950884
 4004         ho    135    ccc    H40   4004 0.41908000   1.008000   ; qtot 136.369964
 4005         n3    135    ccc     N4   4005 -0.54282000  14.010000   ; qtot 135.827144
 4006         hn    135    ccc    H41   4006 0.17125500   1.008000   ; qtot 135.998399
; residue  136 ccc rtp ccc q 1.0
 4007          n    136    ccc     N1   4007 -0.33303000  14.010000   ; qtot 135.665369
 4008         hn    136    ccc     H4   4008 0.25916100   1.008000   ; qtot 135.924530
 4009         c3    136    ccc     C3   4009 -0.03328100  12.010000   ; qtot 135.891249
 4010         h1    136    ccc     H5   4010 0.10618100   1.008000   ; qtot 135.997430
 4011         c3    136    ccc     C4   4011 -0.02083000  12.010000   ; qtot 135.976600
 4012         h1    136    ccc     H6   4012 0.10618100   1.008000   ; qtot 136.082781
 4013         h1    136    ccc     H7   4013 0.07988000   1.008000   ; qtot 136.162661
 4014         h1    136    ccc     H8   4014 0.07988000   1.008000   ; qtot 136.242541
 4015         n4    136    ccc     N2   4015 -0.02747900  14.010000   ; qtot 136.215062
 4016         c3    136    ccc     C5   4016 -0.05097600  12.010000   ; qtot 136.164086
 4017         c3    136    ccc     C6   4017 -0.05097600  12.010000   ; qtot 136.113110
 4018         h1    136    ccc     H9   4018 0.11563300   1.008000   ; qtot 136.228743
 4019         c3    136    ccc     C7   4019 -0.18457900  12.010000   ; qtot 136.044164
 4020         h1    136    ccc    H10   4020 0.11563300   1.008000   ; qtot 136.159797
 4021         hc    136    ccc    H11   4021 0.08347900   1.008000   ; qtot 136.243276
 4022         hc    136    ccc    H12   4022 0.08347900   1.008000   ; qtot 136.326755
 4023          c    136    ccc     C8   4023 0.67254400  12.010000   ; qtot 136.999299
 4024          o    136    ccc     O2   4024 -0.52917200  16.000000   ; qtot 136.470127
 4025         h1    136    ccc    H13   4025 0.11563300   1.008000   ; qtot 136.585760
 4026         h1    136    ccc    H14   4026 0.11563300   1.008000   ; qtot 136.701393
 4027         c3    136    ccc     C9   4027 -0.18457900  12.010000   ; qtot 136.516814
 4028         hc    136    ccc    H15   4028 0.08347900   1.008000   ; qtot 136.600293
 4029         hc    136    ccc    H16   4029 0.08347900   1.008000   ; qtot 136.683772
 4030          c    136    ccc    C10   4030 0.67254400  12.010000   ; qtot 137.356316
 4031          o    136    ccc     O4   4031 -0.52917200  16.000000   ; qtot 136.827144
 4032         c3    136    ccc    C11   4032 0.08518000  12.010000   ; qtot 136.912324
 4033         c3    136    ccc    C12   4033 0.07918000  12.010000   ; qtot 136.991504
 4034         h1    136    ccc    H17   4034 0.06978000   1.008000   ; qtot 137.061284
 4035         c3    136    ccc    C13   4035 0.07918000  12.010000   ; qtot 137.140464
 4036         c3    136    ccc    C14   4036 0.03578000  12.010000   ; qtot 137.176244
 4037         c3    136    ccc    C15   4037 0.33498000  12.010000   ; qtot 137.511224
 4038         h1    136    ccc    H18   4038 0.06178000   1.008000   ; qtot 137.573004
 4039         h1    136    ccc    H19   4039 0.11278000   1.008000   ; qtot 137.685784
 4040         h2    136    ccc    H20   4040 0.12178000   1.008000   ; qtot 137.807564
 4041         oh    136    ccc     O1   4041 -0.56972000  16.000000   ; qtot 137.237844
 4042         oh    136    ccc     O6   4042 -0.57772000  16.000000   ; qtot 136.660124
 4043         c3    136    ccc    C16   4043 0.14548000  12.010000   ; qtot 136.805604
 4044         ho    136    ccc    H21   4044 0.40508000   1.008000   ; qtot 137.210684
 4045         hn    136    ccc    H22   4045 0.31758000   1.008000   ; qtot 137.528264
 4046         h1    136    ccc    H23   4046 0.06278000   1.008000   ; qtot 137.591044
 4047         h1    136    ccc    H24   4047 0.06278000   1.008000   ; qtot 137.653824
 4048         oh    136    ccc     O7   4048 -0.59472000  16.000000   ; qtot 137.059104
 4049         ho    136    ccc    H25   4049 0.41908000   1.008000   ; qtot 137.478184
 4050         os    136    ccc     O8   4050 -0.44552000  16.000000   ; qtot 137.032664
 4051         ho    136    ccc    H26   4051 0.41908000   1.008000   ; qtot 137.451744
 4052         h1    136    ccc    H27   4052 0.08578000   1.008000   ; qtot 137.537524
 4053         oh    136    ccc     O9   4053 -0.58672000  16.000000   ; qtot 136.950804
 4054         ho    136    ccc    H28   4054 0.41908000   1.008000   ; qtot 137.369884
 4055         n3    136    ccc     N3   4055 -0.54282000  14.010000   ; qtot 136.827064
 4056         c3    136    ccc    C17   4056 0.08518000  12.010000   ; qtot 136.912244
 4057         c3    136    ccc    C18   4057 0.07918000  12.010000   ; qtot 136.991424
 4058         h1    136    ccc    H29   4058 0.06978000   1.008000   ; qtot 137.061204
 4059         c3    136    ccc    C19   4059 0.07918000  12.010000   ; qtot 137.140384
 4060         c3    136    ccc    C20   4060 0.03578000  12.010000   ; qtot 137.176164
 4061         c3    136    ccc    C21   4061 0.33498000  12.010000   ; qtot 137.511144
 4062         h1    136    ccc    H30   4062 0.06178000   1.008000   ; qtot 137.572924
 4063         h1    136    ccc    H31   4063 0.11278000   1.008000   ; qtot 137.685704
 4064         h2    136    ccc    H32   4064 0.12178000   1.008000   ; qtot 137.807484
 4065         oh    136    ccc    O10   4065 -0.56972000  16.000000   ; qtot 137.237764
 4066         oh    136    ccc    O11   4066 -0.57772000  16.000000   ; qtot 136.660044
 4067         c3    136    ccc    C22   4067 0.14548000  12.010000   ; qtot 136.805524
 4068         ho    136    ccc    H33   4068 0.40508000   1.008000   ; qtot 137.210604
 4069         hn    136    ccc    H34   4069 0.31758000   1.008000   ; qtot 137.528184
 4070         h1    136    ccc    H35   4070 0.06278000   1.008000   ; qtot 137.590964
 4071         h1    136    ccc    H36   4071 0.06278000   1.008000   ; qtot 137.653744
 4072         oh    136    ccc    O12   4072 -0.59472000  16.000000   ; qtot 137.059024
 4073         ho    136    ccc    H37   4073 0.41908000   1.008000   ; qtot 137.478104
 4074         os    136    ccc    O13   4074 -0.44552000  16.000000   ; qtot 137.032584
 4075         ho    136    ccc    H38   4075 0.41908000   1.008000   ; qtot 137.451664
 4076         h1    136    ccc    H39   4076 0.08578000   1.008000   ; qtot 137.537444
 4077         oh    136    ccc     O5   4077 -0.58672000  16.000000   ; qtot 136.950724
 4078         ho    136    ccc    H40   4078 0.41908000   1.008000   ; qtot 137.369804
 4079         n3    136    ccc     N4   4079 -0.54282000  14.010000   ; qtot 136.826984
 4080         hn    136    ccc    H41   4080 0.17125500   1.008000   ; qtot 136.998239
; residue  137 ccc rtp ccc q 1.0
 4081          n    137    ccc     N1   4081 -0.33303000  14.010000   ; qtot 136.665209
 4082         hn    137    ccc     H4   4082 0.25916100   1.008000   ; qtot 136.924370
 4083         c3    137    ccc     C3   4083 -0.03328100  12.010000   ; qtot 136.891089
 4084         h1    137    ccc     H5   4084 0.10618100   1.008000   ; qtot 136.997270
 4085         c3    137    ccc     C4   4085 -0.02083000  12.010000   ; qtot 136.976440
 4086         h1    137    ccc     H6   4086 0.10618100   1.008000   ; qtot 137.082621
 4087         h1    137    ccc     H7   4087 0.07988000   1.008000   ; qtot 137.162501
 4088         h1    137    ccc     H8   4088 0.07988000   1.008000   ; qtot 137.242381
 4089         n4    137    ccc     N2   4089 -0.02747900  14.010000   ; qtot 137.214902
 4090         c3    137    ccc     C5   4090 -0.05097600  12.010000   ; qtot 137.163926
 4091         c3    137    ccc     C6   4091 -0.05097600  12.010000   ; qtot 137.112950
 4092         h1    137    ccc     H9   4092 0.11563300   1.008000   ; qtot 137.228583
 4093         c3    137    ccc     C7   4093 -0.18457900  12.010000   ; qtot 137.044004
 4094         h1    137    ccc    H10   4094 0.11563300   1.008000   ; qtot 137.159637
 4095         hc    137    ccc    H11   4095 0.08347900   1.008000   ; qtot 137.243116
 4096         hc    137    ccc    H12   4096 0.08347900   1.008000   ; qtot 137.326595
 4097          c    137    ccc     C8   4097 0.67254400  12.010000   ; qtot 137.999139
 4098          o    137    ccc     O2   4098 -0.52917200  16.000000   ; qtot 137.469967
 4099         h1    137    ccc    H13   4099 0.11563300   1.008000   ; qtot 137.585600
 4100         h1    137    ccc    H14   4100 0.11563300   1.008000   ; qtot 137.701233
 4101         c3    137    ccc     C9   4101 -0.18457900  12.010000   ; qtot 137.516654
 4102         hc    137    ccc    H15   4102 0.08347900   1.008000   ; qtot 137.600133
 4103         hc    137    ccc    H16   4103 0.08347900   1.008000   ; qtot 137.683612
 4104          c    137    ccc    C10   4104 0.67254400  12.010000   ; qtot 138.356156
 4105          o    137    ccc     O4   4105 -0.52917200  16.000000   ; qtot 137.826984
 4106         c3    137    ccc    C11   4106 0.08518000  12.010000   ; qtot 137.912164
 4107         c3    137    ccc    C12   4107 0.07918000  12.010000   ; qtot 137.991344
 4108         h1    137    ccc    H17   4108 0.06978000   1.008000   ; qtot 138.061124
 4109         c3    137    ccc    C13   4109 0.07918000  12.010000   ; qtot 138.140304
 4110         c3    137    ccc    C14   4110 0.03578000  12.010000   ; qtot 138.176084
 4111         c3    137    ccc    C15   4111 0.33498000  12.010000   ; qtot 138.511064
 4112         h1    137    ccc    H18   4112 0.06178000   1.008000   ; qtot 138.572844
 4113         h1    137    ccc    H19   4113 0.11278000   1.008000   ; qtot 138.685624
 4114         h2    137    ccc    H20   4114 0.12178000   1.008000   ; qtot 138.807404
 4115         oh    137    ccc     O1   4115 -0.56972000  16.000000   ; qtot 138.237684
 4116         oh    137    ccc     O6   4116 -0.57772000  16.000000   ; qtot 137.659964
 4117         c3    137    ccc    C16   4117 0.14548000  12.010000   ; qtot 137.805444
 4118         ho    137    ccc    H21   4118 0.40508000   1.008000   ; qtot 138.210524
 4119         hn    137    ccc    H22   4119 0.31758000   1.008000   ; qtot 138.528104
 4120         h1    137    ccc    H23   4120 0.06278000   1.008000   ; qtot 138.590884
 4121         h1    137    ccc    H24   4121 0.06278000   1.008000   ; qtot 138.653664
 4122         oh    137    ccc     O7   4122 -0.59472000  16.000000   ; qtot 138.058944
 4123         ho    137    ccc    H25   4123 0.41908000   1.008000   ; qtot 138.478024
 4124         os    137    ccc     O8   4124 -0.44552000  16.000000   ; qtot 138.032504
 4125         ho    137    ccc    H26   4125 0.41908000   1.008000   ; qtot 138.451584
 4126         h1    137    ccc    H27   4126 0.08578000   1.008000   ; qtot 138.537364
 4127         oh    137    ccc     O9   4127 -0.58672000  16.000000   ; qtot 137.950644
 4128         ho    137    ccc    H28   4128 0.41908000   1.008000   ; qtot 138.369724
 4129         n3    137    ccc     N3   4129 -0.54282000  14.010000   ; qtot 137.826904
 4130         c3    137    ccc    C17   4130 0.08518000  12.010000   ; qtot 137.912084
 4131         c3    137    ccc    C18   4131 0.07918000  12.010000   ; qtot 137.991264
 4132         h1    137    ccc    H29   4132 0.06978000   1.008000   ; qtot 138.061044
 4133         c3    137    ccc    C19   4133 0.07918000  12.010000   ; qtot 138.140224
 4134         c3    137    ccc    C20   4134 0.03578000  12.010000   ; qtot 138.176004
 4135         c3    137    ccc    C21   4135 0.33498000  12.010000   ; qtot 138.510984
 4136         h1    137    ccc    H30   4136 0.06178000   1.008000   ; qtot 138.572764
 4137         h1    137    ccc    H31   4137 0.11278000   1.008000   ; qtot 138.685544
 4138         h2    137    ccc    H32   4138 0.12178000   1.008000   ; qtot 138.807324
 4139         oh    137    ccc    O10   4139 -0.56972000  16.000000   ; qtot 138.237604
 4140         oh    137    ccc    O11   4140 -0.57772000  16.000000   ; qtot 137.659884
 4141         c3    137    ccc    C22   4141 0.14548000  12.010000   ; qtot 137.805364
 4142         ho    137    ccc    H33   4142 0.40508000   1.008000   ; qtot 138.210444
 4143         hn    137    ccc    H34   4143 0.31758000   1.008000   ; qtot 138.528024
 4144         h1    137    ccc    H35   4144 0.06278000   1.008000   ; qtot 138.590804
 4145         h1    137    ccc    H36   4145 0.06278000   1.008000   ; qtot 138.653584
 4146         oh    137    ccc    O12   4146 -0.59472000  16.000000   ; qtot 138.058864
 4147         ho    137    ccc    H37   4147 0.41908000   1.008000   ; qtot 138.477944
 4148         os    137    ccc    O13   4148 -0.44552000  16.000000   ; qtot 138.032424
 4149         ho    137    ccc    H38   4149 0.41908000   1.008000   ; qtot 138.451504
 4150         h1    137    ccc    H39   4150 0.08578000   1.008000   ; qtot 138.537284
 4151         oh    137    ccc     O5   4151 -0.58672000  16.000000   ; qtot 137.950564
 4152         ho    137    ccc    H40   4152 0.41908000   1.008000   ; qtot 138.369644
 4153         n3    137    ccc     N4   4153 -0.54282000  14.010000   ; qtot 137.826824
 4154         hn    137    ccc    H41   4154 0.17125500   1.008000   ; qtot 137.998079
; residue  138 ccc rtp ccc q 1.0
 4155          n    138    ccc     N1   4155 -0.33303000  14.010000   ; qtot 137.665049
 4156         hn    138    ccc     H4   4156 0.25916100   1.008000   ; qtot 137.924210
 4157         c3    138    ccc     C3   4157 -0.03328100  12.010000   ; qtot 137.890929
 4158         h1    138    ccc     H5   4158 0.10618100   1.008000   ; qtot 137.997110
 4159         c3    138    ccc     C4   4159 -0.02083000  12.010000   ; qtot 137.976280
 4160         h1    138    ccc     H6   4160 0.10618100   1.008000   ; qtot 138.082461
 4161         h1    138    ccc     H7   4161 0.07988000   1.008000   ; qtot 138.162341
 4162         h1    138    ccc     H8   4162 0.07988000   1.008000   ; qtot 138.242221
 4163         n4    138    ccc     N2   4163 -0.02747900  14.010000   ; qtot 138.214742
 4164         c3    138    ccc     C5   4164 -0.05097600  12.010000   ; qtot 138.163766
 4165         c3    138    ccc     C6   4165 -0.05097600  12.010000   ; qtot 138.112790
 4166         h1    138    ccc     H9   4166 0.11563300   1.008000   ; qtot 138.228423
 4167         c3    138    ccc     C7   4167 -0.18457900  12.010000   ; qtot 138.043844
 4168         h1    138    ccc    H10   4168 0.11563300   1.008000   ; qtot 138.159477
 4169         hc    138    ccc    H11   4169 0.08347900   1.008000   ; qtot 138.242956
 4170         hc    138    ccc    H12   4170 0.08347900   1.008000   ; qtot 138.326435
 4171          c    138    ccc     C8   4171 0.67254400  12.010000   ; qtot 138.998979
 4172          o    138    ccc     O2   4172 -0.52917200  16.000000   ; qtot 138.469807
 4173         h1    138    ccc    H13   4173 0.11563300   1.008000   ; qtot 138.585440
 4174         h1    138    ccc    H14   4174 0.11563300   1.008000   ; qtot 138.701073
 4175         c3    138    ccc     C9   4175 -0.18457900  12.010000   ; qtot 138.516494
 4176         hc    138    ccc    H15   4176 0.08347900   1.008000   ; qtot 138.599973
 4177         hc    138    ccc    H16   4177 0.08347900   1.008000   ; qtot 138.683452
 4178          c    138    ccc    C10   4178 0.67254400  12.010000   ; qtot 139.355996
 4179          o    138    ccc     O4   4179 -0.52917200  16.000000   ; qtot 138.826824
 4180         c3    138    ccc    C11   4180 0.08518000  12.010000   ; qtot 138.912004
 4181         c3    138    ccc    C12   4181 0.07918000  12.010000   ; qtot 138.991184
 4182         h1    138    ccc    H17   4182 0.06978000   1.008000   ; qtot 139.060964
 4183         c3    138    ccc    C13   4183 0.07918000  12.010000   ; qtot 139.140144
 4184         c3    138    ccc    C14   4184 0.03578000  12.010000   ; qtot 139.175924
 4185         c3    138    ccc    C15   4185 0.33498000  12.010000   ; qtot 139.510904
 4186         h1    138    ccc    H18   4186 0.06178000   1.008000   ; qtot 139.572684
 4187         h1    138    ccc    H19   4187 0.11278000   1.008000   ; qtot 139.685464
 4188         h2    138    ccc    H20   4188 0.12178000   1.008000   ; qtot 139.807244
 4189         oh    138    ccc     O1   4189 -0.56972000  16.000000   ; qtot 139.237524
 4190         oh    138    ccc     O6   4190 -0.57772000  16.000000   ; qtot 138.659804
 4191         c3    138    ccc    C16   4191 0.14548000  12.010000   ; qtot 138.805284
 4192         ho    138    ccc    H21   4192 0.40508000   1.008000   ; qtot 139.210364
 4193         hn    138    ccc    H22   4193 0.31758000   1.008000   ; qtot 139.527944
 4194         h1    138    ccc    H23   4194 0.06278000   1.008000   ; qtot 139.590724
 4195         h1    138    ccc    H24   4195 0.06278000   1.008000   ; qtot 139.653504
 4196         oh    138    ccc     O7   4196 -0.59472000  16.000000   ; qtot 139.058784
 4197         ho    138    ccc    H25   4197 0.41908000   1.008000   ; qtot 139.477864
 4198         os    138    ccc     O8   4198 -0.44552000  16.000000   ; qtot 139.032344
 4199         ho    138    ccc    H26   4199 0.41908000   1.008000   ; qtot 139.451424
 4200         h1    138    ccc    H27   4200 0.08578000   1.008000   ; qtot 139.537204
 4201         oh    138    ccc     O9   4201 -0.58672000  16.000000   ; qtot 138.950484
 4202         ho    138    ccc    H28   4202 0.41908000   1.008000   ; qtot 139.369564
 4203         n3    138    ccc     N3   4203 -0.54282000  14.010000   ; qtot 138.826744
 4204         c3    138    ccc    C17   4204 0.08518000  12.010000   ; qtot 138.911924
 4205         c3    138    ccc    C18   4205 0.07918000  12.010000   ; qtot 138.991104
 4206         h1    138    ccc    H29   4206 0.06978000   1.008000   ; qtot 139.060884
 4207         c3    138    ccc    C19   4207 0.07918000  12.010000   ; qtot 139.140064
 4208         c3    138    ccc    C20   4208 0.03578000  12.010000   ; qtot 139.175844
 4209         c3    138    ccc    C21   4209 0.33498000  12.010000   ; qtot 139.510824
 4210         h1    138    ccc    H30   4210 0.06178000   1.008000   ; qtot 139.572604
 4211         h1    138    ccc    H31   4211 0.11278000   1.008000   ; qtot 139.685384
 4212         h2    138    ccc    H32   4212 0.12178000   1.008000   ; qtot 139.807164
 4213         oh    138    ccc    O10   4213 -0.56972000  16.000000   ; qtot 139.237444
 4214         oh    138    ccc    O11   4214 -0.57772000  16.000000   ; qtot 138.659724
 4215         c3    138    ccc    C22   4215 0.14548000  12.010000   ; qtot 138.805204
 4216         ho    138    ccc    H33   4216 0.40508000   1.008000   ; qtot 139.210284
 4217         hn    138    ccc    H34   4217 0.31758000   1.008000   ; qtot 139.527864
 4218         h1    138    ccc    H35   4218 0.06278000   1.008000   ; qtot 139.590644
 4219         h1    138    ccc    H36   4219 0.06278000   1.008000   ; qtot 139.653424
 4220         oh    138    ccc    O12   4220 -0.59472000  16.000000   ; qtot 139.058704
 4221         ho    138    ccc    H37   4221 0.41908000   1.008000   ; qtot 139.477784
 4222         os    138    ccc    O13   4222 -0.44552000  16.000000   ; qtot 139.032264
 4223         ho    138    ccc    H38   4223 0.41908000   1.008000   ; qtot 139.451344
 4224         h1    138    ccc    H39   4224 0.08578000   1.008000   ; qtot 139.537124
 4225         oh    138    ccc     O5   4225 -0.58672000  16.000000   ; qtot 138.950404
 4226         ho    138    ccc    H40   4226 0.41908000   1.008000   ; qtot 139.369484
 4227         n3    138    ccc     N4   4227 -0.54282000  14.010000   ; qtot 138.826664
 4228         hn    138    ccc    H41   4228 0.17125500   1.008000   ; qtot 138.997919
; residue  139 ccc rtp ccc q 1.0
 4229          n    139    ccc     N1   4229 -0.33303000  14.010000   ; qtot 138.664889
 4230         hn    139    ccc     H4   4230 0.25916100   1.008000   ; qtot 138.924050
 4231         c3    139    ccc     C3   4231 -0.03328100  12.010000   ; qtot 138.890769
 4232         h1    139    ccc     H5   4232 0.10618100   1.008000   ; qtot 138.996950
 4233         c3    139    ccc     C4   4233 -0.02083000  12.010000   ; qtot 138.976120
 4234         h1    139    ccc     H6   4234 0.10618100   1.008000   ; qtot 139.082301
 4235         h1    139    ccc     H7   4235 0.07988000   1.008000   ; qtot 139.162181
 4236         h1    139    ccc     H8   4236 0.07988000   1.008000   ; qtot 139.242061
 4237         n4    139    ccc     N2   4237 -0.02747900  14.010000   ; qtot 139.214582
 4238         c3    139    ccc     C5   4238 -0.05097600  12.010000   ; qtot 139.163606
 4239         c3    139    ccc     C6   4239 -0.05097600  12.010000   ; qtot 139.112630
 4240         h1    139    ccc     H9   4240 0.11563300   1.008000   ; qtot 139.228263
 4241         c3    139    ccc     C7   4241 -0.18457900  12.010000   ; qtot 139.043684
 4242         h1    139    ccc    H10   4242 0.11563300   1.008000   ; qtot 139.159317
 4243         hc    139    ccc    H11   4243 0.08347900   1.008000   ; qtot 139.242796
 4244         hc    139    ccc    H12   4244 0.08347900   1.008000   ; qtot 139.326275
 4245          c    139    ccc     C8   4245 0.67254400  12.010000   ; qtot 139.998819
 4246          o    139    ccc     O2   4246 -0.52917200  16.000000   ; qtot 139.469647
 4247         h1    139    ccc    H13   4247 0.11563300   1.008000   ; qtot 139.585280
 4248         h1    139    ccc    H14   4248 0.11563300   1.008000   ; qtot 139.700913
 4249         c3    139    ccc     C9   4249 -0.18457900  12.010000   ; qtot 139.516334
 4250         hc    139    ccc    H15   4250 0.08347900   1.008000   ; qtot 139.599813
 4251         hc    139    ccc    H16   4251 0.08347900   1.008000   ; qtot 139.683292
 4252          c    139    ccc    C10   4252 0.67254400  12.010000   ; qtot 140.355836
 4253          o    139    ccc     O4   4253 -0.52917200  16.000000   ; qtot 139.826664
 4254         c3    139    ccc    C11   4254 0.08518000  12.010000   ; qtot 139.911844
 4255         c3    139    ccc    C12   4255 0.07918000  12.010000   ; qtot 139.991024
 4256         h1    139    ccc    H17   4256 0.06978000   1.008000   ; qtot 140.060804
 4257         c3    139    ccc    C13   4257 0.07918000  12.010000   ; qtot 140.139984
 4258         c3    139    ccc    C14   4258 0.03578000  12.010000   ; qtot 140.175764
 4259         c3    139    ccc    C15   4259 0.33498000  12.010000   ; qtot 140.510744
 4260         h1    139    ccc    H18   4260 0.06178000   1.008000   ; qtot 140.572524
 4261         h1    139    ccc    H19   4261 0.11278000   1.008000   ; qtot 140.685304
 4262         h2    139    ccc    H20   4262 0.12178000   1.008000   ; qtot 140.807084
 4263         oh    139    ccc     O1   4263 -0.56972000  16.000000   ; qtot 140.237364
 4264         oh    139    ccc     O6   4264 -0.57772000  16.000000   ; qtot 139.659644
 4265         c3    139    ccc    C16   4265 0.14548000  12.010000   ; qtot 139.805124
 4266         ho    139    ccc    H21   4266 0.40508000   1.008000   ; qtot 140.210204
 4267         hn    139    ccc    H22   4267 0.31758000   1.008000   ; qtot 140.527784
 4268         h1    139    ccc    H23   4268 0.06278000   1.008000   ; qtot 140.590564
 4269         h1    139    ccc    H24   4269 0.06278000   1.008000   ; qtot 140.653344
 4270         oh    139    ccc     O7   4270 -0.59472000  16.000000   ; qtot 140.058624
 4271         ho    139    ccc    H25   4271 0.41908000   1.008000   ; qtot 140.477704
 4272         os    139    ccc     O8   4272 -0.44552000  16.000000   ; qtot 140.032184
 4273         ho    139    ccc    H26   4273 0.41908000   1.008000   ; qtot 140.451264
 4274         h1    139    ccc    H27   4274 0.08578000   1.008000   ; qtot 140.537044
 4275         oh    139    ccc     O9   4275 -0.58672000  16.000000   ; qtot 139.950324
 4276         ho    139    ccc    H28   4276 0.41908000   1.008000   ; qtot 140.369404
 4277         n3    139    ccc     N3   4277 -0.54282000  14.010000   ; qtot 139.826584
 4278         c3    139    ccc    C17   4278 0.08518000  12.010000   ; qtot 139.911764
 4279         c3    139    ccc    C18   4279 0.07918000  12.010000   ; qtot 139.990944
 4280         h1    139    ccc    H29   4280 0.06978000   1.008000   ; qtot 140.060724
 4281         c3    139    ccc    C19   4281 0.07918000  12.010000   ; qtot 140.139904
 4282         c3    139    ccc    C20   4282 0.03578000  12.010000   ; qtot 140.175684
 4283         c3    139    ccc    C21   4283 0.33498000  12.010000   ; qtot 140.510664
 4284         h1    139    ccc    H30   4284 0.06178000   1.008000   ; qtot 140.572444
 4285         h1    139    ccc    H31   4285 0.11278000   1.008000   ; qtot 140.685224
 4286         h2    139    ccc    H32   4286 0.12178000   1.008000   ; qtot 140.807004
 4287         oh    139    ccc    O10   4287 -0.56972000  16.000000   ; qtot 140.237284
 4288         oh    139    ccc    O11   4288 -0.57772000  16.000000   ; qtot 139.659564
 4289         c3    139    ccc    C22   4289 0.14548000  12.010000   ; qtot 139.805044
 4290         ho    139    ccc    H33   4290 0.40508000   1.008000   ; qtot 140.210124
 4291         hn    139    ccc    H34   4291 0.31758000   1.008000   ; qtot 140.527704
 4292         h1    139    ccc    H35   4292 0.06278000   1.008000   ; qtot 140.590484
 4293         h1    139    ccc    H36   4293 0.06278000   1.008000   ; qtot 140.653264
 4294         oh    139    ccc    O12   4294 -0.59472000  16.000000   ; qtot 140.058544
 4295         ho    139    ccc    H37   4295 0.41908000   1.008000   ; qtot 140.477624
 4296         os    139    ccc    O13   4296 -0.44552000  16.000000   ; qtot 140.032104
 4297         ho    139    ccc    H38   4297 0.41908000   1.008000   ; qtot 140.451184
 4298         h1    139    ccc    H39   4298 0.08578000   1.008000   ; qtot 140.536964
 4299         oh    139    ccc     O5   4299 -0.58672000  16.000000   ; qtot 139.950244
 4300         ho    139    ccc    H40   4300 0.41908000   1.008000   ; qtot 140.369324
 4301         n3    139    ccc     N4   4301 -0.54282000  14.010000   ; qtot 139.826504
 4302         hn    139    ccc    H41   4302 0.17125500   1.008000   ; qtot 139.997759
; residue  140 ccc rtp ccc q 1.0
 4303          n    140    ccc     N1   4303 -0.33303000  14.010000   ; qtot 139.664729
 4304         hn    140    ccc     H4   4304 0.25916100   1.008000   ; qtot 139.923890
 4305         c3    140    ccc     C3   4305 -0.03328100  12.010000   ; qtot 139.890609
 4306         h1    140    ccc     H5   4306 0.10618100   1.008000   ; qtot 139.996790
 4307         c3    140    ccc     C4   4307 -0.02083000  12.010000   ; qtot 139.975960
 4308         h1    140    ccc     H6   4308 0.10618100   1.008000   ; qtot 140.082141
 4309         h1    140    ccc     H7   4309 0.07988000   1.008000   ; qtot 140.162021
 4310         h1    140    ccc     H8   4310 0.07988000   1.008000   ; qtot 140.241901
 4311         n4    140    ccc     N2   4311 -0.02747900  14.010000   ; qtot 140.214422
 4312         c3    140    ccc     C5   4312 -0.05097600  12.010000   ; qtot 140.163446
 4313         c3    140    ccc     C6   4313 -0.05097600  12.010000   ; qtot 140.112470
 4314         h1    140    ccc     H9   4314 0.11563300   1.008000   ; qtot 140.228103
 4315         c3    140    ccc     C7   4315 -0.18457900  12.010000   ; qtot 140.043524
 4316         h1    140    ccc    H10   4316 0.11563300   1.008000   ; qtot 140.159157
 4317         hc    140    ccc    H11   4317 0.08347900   1.008000   ; qtot 140.242636
 4318         hc    140    ccc    H12   4318 0.08347900   1.008000   ; qtot 140.326115
 4319          c    140    ccc     C8   4319 0.67254400  12.010000   ; qtot 140.998659
 4320          o    140    ccc     O2   4320 -0.52917200  16.000000   ; qtot 140.469487
 4321         h1    140    ccc    H13   4321 0.11563300   1.008000   ; qtot 140.585120
 4322         h1    140    ccc    H14   4322 0.11563300   1.008000   ; qtot 140.700753
 4323         c3    140    ccc     C9   4323 -0.18457900  12.010000   ; qtot 140.516174
 4324         hc    140    ccc    H15   4324 0.08347900   1.008000   ; qtot 140.599653
 4325         hc    140    ccc    H16   4325 0.08347900   1.008000   ; qtot 140.683132
 4326          c    140    ccc    C10   4326 0.67254400  12.010000   ; qtot 141.355676
 4327          o    140    ccc     O4   4327 -0.52917200  16.000000   ; qtot 140.826504
 4328         c3    140    ccc    C11   4328 0.08518000  12.010000   ; qtot 140.911684
 4329         c3    140    ccc    C12   4329 0.07918000  12.010000   ; qtot 140.990864
 4330         h1    140    ccc    H17   4330 0.06978000   1.008000   ; qtot 141.060644
 4331         c3    140    ccc    C13   4331 0.07918000  12.010000   ; qtot 141.139824
 4332         c3    140    ccc    C14   4332 0.03578000  12.010000   ; qtot 141.175604
 4333         c3    140    ccc    C15   4333 0.33498000  12.010000   ; qtot 141.510584
 4334         h1    140    ccc    H18   4334 0.06178000   1.008000   ; qtot 141.572364
 4335         h1    140    ccc    H19   4335 0.11278000   1.008000   ; qtot 141.685144
 4336         h2    140    ccc    H20   4336 0.12178000   1.008000   ; qtot 141.806924
 4337         oh    140    ccc     O1   4337 -0.56972000  16.000000   ; qtot 141.237204
 4338         oh    140    ccc     O6   4338 -0.57772000  16.000000   ; qtot 140.659484
 4339         c3    140    ccc    C16   4339 0.14548000  12.010000   ; qtot 140.804964
 4340         ho    140    ccc    H21   4340 0.40508000   1.008000   ; qtot 141.210044
 4341         hn    140    ccc    H22   4341 0.31758000   1.008000   ; qtot 141.527624
 4342         h1    140    ccc    H23   4342 0.06278000   1.008000   ; qtot 141.590404
 4343         h1    140    ccc    H24   4343 0.06278000   1.008000   ; qtot 141.653184
 4344         oh    140    ccc     O7   4344 -0.59472000  16.000000   ; qtot 141.058464
 4345         ho    140    ccc    H25   4345 0.41908000   1.008000   ; qtot 141.477544
 4346         os    140    ccc     O8   4346 -0.44552000  16.000000   ; qtot 141.032024
 4347         ho    140    ccc    H26   4347 0.41908000   1.008000   ; qtot 141.451104
 4348         h1    140    ccc    H27   4348 0.08578000   1.008000   ; qtot 141.536884
 4349         oh    140    ccc     O9   4349 -0.58672000  16.000000   ; qtot 140.950164
 4350         ho    140    ccc    H28   4350 0.41908000   1.008000   ; qtot 141.369244
 4351         n3    140    ccc     N3   4351 -0.54282000  14.010000   ; qtot 140.826424
 4352         c3    140    ccc    C17   4352 0.08518000  12.010000   ; qtot 140.911604
 4353         c3    140    ccc    C18   4353 0.07918000  12.010000   ; qtot 140.990784
 4354         h1    140    ccc    H29   4354 0.06978000   1.008000   ; qtot 141.060564
 4355         c3    140    ccc    C19   4355 0.07918000  12.010000   ; qtot 141.139744
 4356         c3    140    ccc    C20   4356 0.03578000  12.010000   ; qtot 141.175524
 4357         c3    140    ccc    C21   4357 0.33498000  12.010000   ; qtot 141.510504
 4358         h1    140    ccc    H30   4358 0.06178000   1.008000   ; qtot 141.572284
 4359         h1    140    ccc    H31   4359 0.11278000   1.008000   ; qtot 141.685064
 4360         h2    140    ccc    H32   4360 0.12178000   1.008000   ; qtot 141.806844
 4361         oh    140    ccc    O10   4361 -0.56972000  16.000000   ; qtot 141.237124
 4362         oh    140    ccc    O11   4362 -0.57772000  16.000000   ; qtot 140.659404
 4363         c3    140    ccc    C22   4363 0.14548000  12.010000   ; qtot 140.804884
 4364         ho    140    ccc    H33   4364 0.40508000   1.008000   ; qtot 141.209964
 4365         hn    140    ccc    H34   4365 0.31758000   1.008000   ; qtot 141.527544
 4366         h1    140    ccc    H35   4366 0.06278000   1.008000   ; qtot 141.590324
 4367         h1    140    ccc    H36   4367 0.06278000   1.008000   ; qtot 141.653104
 4368         oh    140    ccc    O12   4368 -0.59472000  16.000000   ; qtot 141.058384
 4369         ho    140    ccc    H37   4369 0.41908000   1.008000   ; qtot 141.477464
 4370         os    140    ccc    O13   4370 -0.44552000  16.000000   ; qtot 141.031944
 4371         ho    140    ccc    H38   4371 0.41908000   1.008000   ; qtot 141.451024
 4372         h1    140    ccc    H39   4372 0.08578000   1.008000   ; qtot 141.536804
 4373         oh    140    ccc     O5   4373 -0.58672000  16.000000   ; qtot 140.950084
 4374         ho    140    ccc    H40   4374 0.41908000   1.008000   ; qtot 141.369164
 4375         n3    140    ccc     N4   4375 -0.54282000  14.010000   ; qtot 140.826344
 4376         hn    140    ccc    H41   4376 0.17125500   1.008000   ; qtot 140.997599
; residue  141 ccc rtp ccc q 1.0
 4377          n    141    ccc     N1   4377 -0.33303000  14.010000   ; qtot 140.664569
 4378         hn    141    ccc     H4   4378 0.25916100   1.008000   ; qtot 140.923730
 4379         c3    141    ccc     C3   4379 -0.03328100  12.010000   ; qtot 140.890449
 4380         h1    141    ccc     H5   4380 0.10618100   1.008000   ; qtot 140.996630
 4381         c3    141    ccc     C4   4381 -0.02083000  12.010000   ; qtot 140.975800
 4382         h1    141    ccc     H6   4382 0.10618100   1.008000   ; qtot 141.081981
 4383         h1    141    ccc     H7   4383 0.07988000   1.008000   ; qtot 141.161861
 4384         h1    141    ccc     H8   4384 0.07988000   1.008000   ; qtot 141.241741
 4385         n4    141    ccc     N2   4385 -0.02747900  14.010000   ; qtot 141.214262
 4386         c3    141    ccc     C5   4386 -0.05097600  12.010000   ; qtot 141.163286
 4387         c3    141    ccc     C6   4387 -0.05097600  12.010000   ; qtot 141.112310
 4388         h1    141    ccc     H9   4388 0.11563300   1.008000   ; qtot 141.227943
 4389         c3    141    ccc     C7   4389 -0.18457900  12.010000   ; qtot 141.043364
 4390         h1    141    ccc    H10   4390 0.11563300   1.008000   ; qtot 141.158997
 4391         hc    141    ccc    H11   4391 0.08347900   1.008000   ; qtot 141.242476
 4392         hc    141    ccc    H12   4392 0.08347900   1.008000   ; qtot 141.325955
 4393          c    141    ccc     C8   4393 0.67254400  12.010000   ; qtot 141.998499
 4394          o    141    ccc     O2   4394 -0.52917200  16.000000   ; qtot 141.469327
 4395         h1    141    ccc    H13   4395 0.11563300   1.008000   ; qtot 141.584960
 4396         h1    141    ccc    H14   4396 0.11563300   1.008000   ; qtot 141.700593
 4397         c3    141    ccc     C9   4397 -0.18457900  12.010000   ; qtot 141.516014
 4398         hc    141    ccc    H15   4398 0.08347900   1.008000   ; qtot 141.599493
 4399         hc    141    ccc    H16   4399 0.08347900   1.008000   ; qtot 141.682972
 4400          c    141    ccc    C10   4400 0.67254400  12.010000   ; qtot 142.355516
 4401          o    141    ccc     O4   4401 -0.52917200  16.000000   ; qtot 141.826344
 4402         c3    141    ccc    C11   4402 0.08518000  12.010000   ; qtot 141.911524
 4403         c3    141    ccc    C12   4403 0.07918000  12.010000   ; qtot 141.990704
 4404         h1    141    ccc    H17   4404 0.06978000   1.008000   ; qtot 142.060484
 4405         c3    141    ccc    C13   4405 0.07918000  12.010000   ; qtot 142.139664
 4406         c3    141    ccc    C14   4406 0.03578000  12.010000   ; qtot 142.175444
 4407         c3    141    ccc    C15   4407 0.33498000  12.010000   ; qtot 142.510424
 4408         h1    141    ccc    H18   4408 0.06178000   1.008000   ; qtot 142.572204
 4409         h1    141    ccc    H19   4409 0.11278000   1.008000   ; qtot 142.684984
 4410         h2    141    ccc    H20   4410 0.12178000   1.008000   ; qtot 142.806764
 4411         oh    141    ccc     O1   4411 -0.56972000  16.000000   ; qtot 142.237044
 4412         oh    141    ccc     O6   4412 -0.57772000  16.000000   ; qtot 141.659324
 4413         c3    141    ccc    C16   4413 0.14548000  12.010000   ; qtot 141.804804
 4414         ho    141    ccc    H21   4414 0.40508000   1.008000   ; qtot 142.209884
 4415         hn    141    ccc    H22   4415 0.31758000   1.008000   ; qtot 142.527464
 4416         h1    141    ccc    H23   4416 0.06278000   1.008000   ; qtot 142.590244
 4417         h1    141    ccc    H24   4417 0.06278000   1.008000   ; qtot 142.653024
 4418         oh    141    ccc     O7   4418 -0.59472000  16.000000   ; qtot 142.058304
 4419         ho    141    ccc    H25   4419 0.41908000   1.008000   ; qtot 142.477384
 4420         os    141    ccc     O8   4420 -0.44552000  16.000000   ; qtot 142.031864
 4421         ho    141    ccc    H26   4421 0.41908000   1.008000   ; qtot 142.450944
 4422         h1    141    ccc    H27   4422 0.08578000   1.008000   ; qtot 142.536724
 4423         oh    141    ccc     O9   4423 -0.58672000  16.000000   ; qtot 141.950004
 4424         ho    141    ccc    H28   4424 0.41908000   1.008000   ; qtot 142.369084
 4425         n3    141    ccc     N3   4425 -0.54282000  14.010000   ; qtot 141.826264
 4426         c3    141    ccc    C17   4426 0.08518000  12.010000   ; qtot 141.911444
 4427         c3    141    ccc    C18   4427 0.07918000  12.010000   ; qtot 141.990624
 4428         h1    141    ccc    H29   4428 0.06978000   1.008000   ; qtot 142.060404
 4429         c3    141    ccc    C19   4429 0.07918000  12.010000   ; qtot 142.139584
 4430         c3    141    ccc    C20   4430 0.03578000  12.010000   ; qtot 142.175364
 4431         c3    141    ccc    C21   4431 0.33498000  12.010000   ; qtot 142.510344
 4432         h1    141    ccc    H30   4432 0.06178000   1.008000   ; qtot 142.572124
 4433         h1    141    ccc    H31   4433 0.11278000   1.008000   ; qtot 142.684904
 4434         h2    141    ccc    H32   4434 0.12178000   1.008000   ; qtot 142.806684
 4435         oh    141    ccc    O10   4435 -0.56972000  16.000000   ; qtot 142.236964
 4436         oh    141    ccc    O11   4436 -0.57772000  16.000000   ; qtot 141.659244
 4437         c3    141    ccc    C22   4437 0.14548000  12.010000   ; qtot 141.804724
 4438         ho    141    ccc    H33   4438 0.40508000   1.008000   ; qtot 142.209804
 4439         hn    141    ccc    H34   4439 0.31758000   1.008000   ; qtot 142.527384
 4440         h1    141    ccc    H35   4440 0.06278000   1.008000   ; qtot 142.590164
 4441         h1    141    ccc    H36   4441 0.06278000   1.008000   ; qtot 142.652944
 4442         oh    141    ccc    O12   4442 -0.59472000  16.000000   ; qtot 142.058224
 4443         ho    141    ccc    H37   4443 0.41908000   1.008000   ; qtot 142.477304
 4444         os    141    ccc    O13   4444 -0.44552000  16.000000   ; qtot 142.031784
 4445         ho    141    ccc    H38   4445 0.41908000   1.008000   ; qtot 142.450864
 4446         h1    141    ccc    H39   4446 0.08578000   1.008000   ; qtot 142.536644
 4447         oh    141    ccc     O5   4447 -0.58672000  16.000000   ; qtot 141.949924
 4448         ho    141    ccc    H40   4448 0.41908000   1.008000   ; qtot 142.369004
 4449         n3    141    ccc     N4   4449 -0.54282000  14.010000   ; qtot 141.826184
 4450         hn    141    ccc    H41   4450 0.17125500   1.008000   ; qtot 141.997439
; residue  142 ccc rtp ccc q 1.0
 4451          n    142    ccc     N1   4451 -0.33303000  14.010000   ; qtot 141.664409
 4452         hn    142    ccc     H4   4452 0.25916100   1.008000   ; qtot 141.923570
 4453         c3    142    ccc     C3   4453 -0.03328100  12.010000   ; qtot 141.890289
 4454         h1    142    ccc     H5   4454 0.10618100   1.008000   ; qtot 141.996470
 4455         c3    142    ccc     C4   4455 -0.02083000  12.010000   ; qtot 141.975640
 4456         h1    142    ccc     H6   4456 0.10618100   1.008000   ; qtot 142.081821
 4457         h1    142    ccc     H7   4457 0.07988000   1.008000   ; qtot 142.161701
 4458         h1    142    ccc     H8   4458 0.07988000   1.008000   ; qtot 142.241581
 4459         n4    142    ccc     N2   4459 -0.02747900  14.010000   ; qtot 142.214102
 4460         c3    142    ccc     C5   4460 -0.05097600  12.010000   ; qtot 142.163126
 4461         c3    142    ccc     C6   4461 -0.05097600  12.010000   ; qtot 142.112150
 4462         h1    142    ccc     H9   4462 0.11563300   1.008000   ; qtot 142.227783
 4463         c3    142    ccc     C7   4463 -0.18457900  12.010000   ; qtot 142.043204
 4464         h1    142    ccc    H10   4464 0.11563300   1.008000   ; qtot 142.158837
 4465         hc    142    ccc    H11   4465 0.08347900   1.008000   ; qtot 142.242316
 4466         hc    142    ccc    H12   4466 0.08347900   1.008000   ; qtot 142.325795
 4467          c    142    ccc     C8   4467 0.67254400  12.010000   ; qtot 142.998339
 4468          o    142    ccc     O2   4468 -0.52917200  16.000000   ; qtot 142.469167
 4469         h1    142    ccc    H13   4469 0.11563300   1.008000   ; qtot 142.584800
 4470         h1    142    ccc    H14   4470 0.11563300   1.008000   ; qtot 142.700433
 4471         c3    142    ccc     C9   4471 -0.18457900  12.010000   ; qtot 142.515854
 4472         hc    142    ccc    H15   4472 0.08347900   1.008000   ; qtot 142.599333
 4473         hc    142    ccc    H16   4473 0.08347900   1.008000   ; qtot 142.682812
 4474          c    142    ccc    C10   4474 0.67254400  12.010000   ; qtot 143.355356
 4475          o    142    ccc     O4   4475 -0.52917200  16.000000   ; qtot 142.826184
 4476         c3    142    ccc    C11   4476 0.08518000  12.010000   ; qtot 142.911364
 4477         c3    142    ccc    C12   4477 0.07918000  12.010000   ; qtot 142.990544
 4478         h1    142    ccc    H17   4478 0.06978000   1.008000   ; qtot 143.060324
 4479         c3    142    ccc    C13   4479 0.07918000  12.010000   ; qtot 143.139504
 4480         c3    142    ccc    C14   4480 0.03578000  12.010000   ; qtot 143.175284
 4481         c3    142    ccc    C15   4481 0.33498000  12.010000   ; qtot 143.510264
 4482         h1    142    ccc    H18   4482 0.06178000   1.008000   ; qtot 143.572044
 4483         h1    142    ccc    H19   4483 0.11278000   1.008000   ; qtot 143.684824
 4484         h2    142    ccc    H20   4484 0.12178000   1.008000   ; qtot 143.806604
 4485         oh    142    ccc     O1   4485 -0.56972000  16.000000   ; qtot 143.236884
 4486         oh    142    ccc     O6   4486 -0.57772000  16.000000   ; qtot 142.659164
 4487         c3    142    ccc    C16   4487 0.14548000  12.010000   ; qtot 142.804644
 4488         ho    142    ccc    H21   4488 0.40508000   1.008000   ; qtot 143.209724
 4489         hn    142    ccc    H22   4489 0.31758000   1.008000   ; qtot 143.527304
 4490         h1    142    ccc    H23   4490 0.06278000   1.008000   ; qtot 143.590084
 4491         h1    142    ccc    H24   4491 0.06278000   1.008000   ; qtot 143.652864
 4492         oh    142    ccc     O7   4492 -0.59472000  16.000000   ; qtot 143.058144
 4493         ho    142    ccc    H25   4493 0.41908000   1.008000   ; qtot 143.477224
 4494         os    142    ccc     O8   4494 -0.44552000  16.000000   ; qtot 143.031704
 4495         ho    142    ccc    H26   4495 0.41908000   1.008000   ; qtot 143.450784
 4496         h1    142    ccc    H27   4496 0.08578000   1.008000   ; qtot 143.536564
 4497         oh    142    ccc     O9   4497 -0.58672000  16.000000   ; qtot 142.949844
 4498         ho    142    ccc    H28   4498 0.41908000   1.008000   ; qtot 143.368924
 4499         n3    142    ccc     N3   4499 -0.54282000  14.010000   ; qtot 142.826104
 4500         c3    142    ccc    C17   4500 0.08518000  12.010000   ; qtot 142.911284
 4501         c3    142    ccc    C18   4501 0.07918000  12.010000   ; qtot 142.990464
 4502         h1    142    ccc    H29   4502 0.06978000   1.008000   ; qtot 143.060244
 4503         c3    142    ccc    C19   4503 0.07918000  12.010000   ; qtot 143.139424
 4504         c3    142    ccc    C20   4504 0.03578000  12.010000   ; qtot 143.175204
 4505         c3    142    ccc    C21   4505 0.33498000  12.010000   ; qtot 143.510184
 4506         h1    142    ccc    H30   4506 0.06178000   1.008000   ; qtot 143.571964
 4507         h1    142    ccc    H31   4507 0.11278000   1.008000   ; qtot 143.684744
 4508         h2    142    ccc    H32   4508 0.12178000   1.008000   ; qtot 143.806524
 4509         oh    142    ccc    O10   4509 -0.56972000  16.000000   ; qtot 143.236804
 4510         oh    142    ccc    O11   4510 -0.57772000  16.000000   ; qtot 142.659084
 4511         c3    142    ccc    C22   4511 0.14548000  12.010000   ; qtot 142.804564
 4512         ho    142    ccc    H33   4512 0.40508000   1.008000   ; qtot 143.209644
 4513         hn    142    ccc    H34   4513 0.31758000   1.008000   ; qtot 143.527224
 4514         h1    142    ccc    H35   4514 0.06278000   1.008000   ; qtot 143.590004
 4515         h1    142    ccc    H36   4515 0.06278000   1.008000   ; qtot 143.652784
 4516         oh    142    ccc    O12   4516 -0.59472000  16.000000   ; qtot 143.058064
 4517         ho    142    ccc    H37   4517 0.41908000   1.008000   ; qtot 143.477144
 4518         os    142    ccc    O13   4518 -0.44552000  16.000000   ; qtot 143.031624
 4519         ho    142    ccc    H38   4519 0.41908000   1.008000   ; qtot 143.450704
 4520         h1    142    ccc    H39   4520 0.08578000   1.008000   ; qtot 143.536484
 4521         oh    142    ccc     O5   4521 -0.58672000  16.000000   ; qtot 142.949764
 4522         ho    142    ccc    H40   4522 0.41908000   1.008000   ; qtot 143.368844
 4523         n3    142    ccc     N4   4523 -0.54282000  14.010000   ; qtot 142.826024
 4524         hn    142    ccc    H41   4524 0.17125500   1.008000   ; qtot 142.997279
; residue  143 ccc rtp ccc q 1.0
 4525          n    143    ccc     N1   4525 -0.33303000  14.010000   ; qtot 142.664249
 4526         hn    143    ccc     H4   4526 0.25916100   1.008000   ; qtot 142.923410
 4527         c3    143    ccc     C3   4527 -0.03328100  12.010000   ; qtot 142.890129
 4528         h1    143    ccc     H5   4528 0.10618100   1.008000   ; qtot 142.996310
 4529         c3    143    ccc     C4   4529 -0.02083000  12.010000   ; qtot 142.975480
 4530         h1    143    ccc     H6   4530 0.10618100   1.008000   ; qtot 143.081661
 4531         h1    143    ccc     H7   4531 0.07988000   1.008000   ; qtot 143.161541
 4532         h1    143    ccc     H8   4532 0.07988000   1.008000   ; qtot 143.241421
 4533         n4    143    ccc     N2   4533 -0.02747900  14.010000   ; qtot 143.213942
 4534         c3    143    ccc     C5   4534 -0.05097600  12.010000   ; qtot 143.162966
 4535         c3    143    ccc     C6   4535 -0.05097600  12.010000   ; qtot 143.111990
 4536         h1    143    ccc     H9   4536 0.11563300   1.008000   ; qtot 143.227623
 4537         c3    143    ccc     C7   4537 -0.18457900  12.010000   ; qtot 143.043044
 4538         h1    143    ccc    H10   4538 0.11563300   1.008000   ; qtot 143.158677
 4539         hc    143    ccc    H11   4539 0.08347900   1.008000   ; qtot 143.242156
 4540         hc    143    ccc    H12   4540 0.08347900   1.008000   ; qtot 143.325635
 4541          c    143    ccc     C8   4541 0.67254400  12.010000   ; qtot 143.998179
 4542          o    143    ccc     O2   4542 -0.52917200  16.000000   ; qtot 143.469007
 4543         h1    143    ccc    H13   4543 0.11563300   1.008000   ; qtot 143.584640
 4544         h1    143    ccc    H14   4544 0.11563300   1.008000   ; qtot 143.700273
 4545         c3    143    ccc     C9   4545 -0.18457900  12.010000   ; qtot 143.515694
 4546         hc    143    ccc    H15   4546 0.08347900   1.008000   ; qtot 143.599173
 4547         hc    143    ccc    H16   4547 0.08347900   1.008000   ; qtot 143.682652
 4548          c    143    ccc    C10   4548 0.67254400  12.010000   ; qtot 144.355196
 4549          o    143    ccc     O4   4549 -0.52917200  16.000000   ; qtot 143.826024
 4550         c3    143    ccc    C11   4550 0.08518000  12.010000   ; qtot 143.911204
 4551         c3    143    ccc    C12   4551 0.07918000  12.010000   ; qtot 143.990384
 4552         h1    143    ccc    H17   4552 0.06978000   1.008000   ; qtot 144.060164
 4553         c3    143    ccc    C13   4553 0.07918000  12.010000   ; qtot 144.139344
 4554         c3    143    ccc    C14   4554 0.03578000  12.010000   ; qtot 144.175124
 4555         c3    143    ccc    C15   4555 0.33498000  12.010000   ; qtot 144.510104
 4556         h1    143    ccc    H18   4556 0.06178000   1.008000   ; qtot 144.571884
 4557         h1    143    ccc    H19   4557 0.11278000   1.008000   ; qtot 144.684664
 4558         h2    143    ccc    H20   4558 0.12178000   1.008000   ; qtot 144.806444
 4559         oh    143    ccc     O1   4559 -0.56972000  16.000000   ; qtot 144.236724
 4560         oh    143    ccc     O6   4560 -0.57772000  16.000000   ; qtot 143.659004
 4561         c3    143    ccc    C16   4561 0.14548000  12.010000   ; qtot 143.804484
 4562         ho    143    ccc    H21   4562 0.40508000   1.008000   ; qtot 144.209564
 4563         hn    143    ccc    H22   4563 0.31758000   1.008000   ; qtot 144.527144
 4564         h1    143    ccc    H23   4564 0.06278000   1.008000   ; qtot 144.589924
 4565         h1    143    ccc    H24   4565 0.06278000   1.008000   ; qtot 144.652704
 4566         oh    143    ccc     O7   4566 -0.59472000  16.000000   ; qtot 144.057984
 4567         ho    143    ccc    H25   4567 0.41908000   1.008000   ; qtot 144.477064
 4568         os    143    ccc     O8   4568 -0.44552000  16.000000   ; qtot 144.031544
 4569         ho    143    ccc    H26   4569 0.41908000   1.008000   ; qtot 144.450624
 4570         h1    143    ccc    H27   4570 0.08578000   1.008000   ; qtot 144.536404
 4571         oh    143    ccc     O9   4571 -0.58672000  16.000000   ; qtot 143.949684
 4572         ho    143    ccc    H28   4572 0.41908000   1.008000   ; qtot 144.368764
 4573         n3    143    ccc     N3   4573 -0.54282000  14.010000   ; qtot 143.825944
 4574         c3    143    ccc    C17   4574 0.08518000  12.010000   ; qtot 143.911124
 4575         c3    143    ccc    C18   4575 0.07918000  12.010000   ; qtot 143.990304
 4576         h1    143    ccc    H29   4576 0.06978000   1.008000   ; qtot 144.060084
 4577         c3    143    ccc    C19   4577 0.07918000  12.010000   ; qtot 144.139264
 4578         c3    143    ccc    C20   4578 0.03578000  12.010000   ; qtot 144.175044
 4579         c3    143    ccc    C21   4579 0.33498000  12.010000   ; qtot 144.510024
 4580         h1    143    ccc    H30   4580 0.06178000   1.008000   ; qtot 144.571804
 4581         h1    143    ccc    H31   4581 0.11278000   1.008000   ; qtot 144.684584
 4582         h2    143    ccc    H32   4582 0.12178000   1.008000   ; qtot 144.806364
 4583         oh    143    ccc    O10   4583 -0.56972000  16.000000   ; qtot 144.236644
 4584         oh    143    ccc    O11   4584 -0.57772000  16.000000   ; qtot 143.658924
 4585         c3    143    ccc    C22   4585 0.14548000  12.010000   ; qtot 143.804404
 4586         ho    143    ccc    H33   4586 0.40508000   1.008000   ; qtot 144.209484
 4587         hn    143    ccc    H34   4587 0.31758000   1.008000   ; qtot 144.527064
 4588         h1    143    ccc    H35   4588 0.06278000   1.008000   ; qtot 144.589844
 4589         h1    143    ccc    H36   4589 0.06278000   1.008000   ; qtot 144.652624
 4590         oh    143    ccc    O12   4590 -0.59472000  16.000000   ; qtot 144.057904
 4591         ho    143    ccc    H37   4591 0.41908000   1.008000   ; qtot 144.476984
 4592         os    143    ccc    O13   4592 -0.44552000  16.000000   ; qtot 144.031464
 4593         ho    143    ccc    H38   4593 0.41908000   1.008000   ; qtot 144.450544
 4594         h1    143    ccc    H39   4594 0.08578000   1.008000   ; qtot 144.536324
 4595         oh    143    ccc     O5   4595 -0.58672000  16.000000   ; qtot 143.949604
 4596         ho    143    ccc    H40   4596 0.41908000   1.008000   ; qtot 144.368684
 4597         n3    143    ccc     N4   4597 -0.54282000  14.010000   ; qtot 143.825864
 4598         hn    143    ccc    H41   4598 0.17125500   1.008000   ; qtot 143.997119
; residue  144 ccc rtp ccc q 1.0
 4599          n    144    ccc     N1   4599 -0.33303000  14.010000   ; qtot 143.664089
 4600         hn    144    ccc     H4   4600 0.25916100   1.008000   ; qtot 143.923250
 4601         c3    144    ccc     C3   4601 -0.03328100  12.010000   ; qtot 143.889969
 4602         h1    144    ccc     H5   4602 0.10618100   1.008000   ; qtot 143.996150
 4603         c3    144    ccc     C4   4603 -0.02083000  12.010000   ; qtot 143.975320
 4604         h1    144    ccc     H6   4604 0.10618100   1.008000   ; qtot 144.081501
 4605         h1    144    ccc     H7   4605 0.07988000   1.008000   ; qtot 144.161381
 4606         h1    144    ccc     H8   4606 0.07988000   1.008000   ; qtot 144.241261
 4607         n4    144    ccc     N2   4607 -0.02747900  14.010000   ; qtot 144.213782
 4608         c3    144    ccc     C5   4608 -0.05097600  12.010000   ; qtot 144.162806
 4609         c3    144    ccc     C6   4609 -0.05097600  12.010000   ; qtot 144.111830
 4610         h1    144    ccc     H9   4610 0.11563300   1.008000   ; qtot 144.227463
 4611         c3    144    ccc     C7   4611 -0.18457900  12.010000   ; qtot 144.042884
 4612         h1    144    ccc    H10   4612 0.11563300   1.008000   ; qtot 144.158517
 4613         hc    144    ccc    H11   4613 0.08347900   1.008000   ; qtot 144.241996
 4614         hc    144    ccc    H12   4614 0.08347900   1.008000   ; qtot 144.325475
 4615          c    144    ccc     C8   4615 0.67254400  12.010000   ; qtot 144.998019
 4616          o    144    ccc     O2   4616 -0.52917200  16.000000   ; qtot 144.468847
 4617         h1    144    ccc    H13   4617 0.11563300   1.008000   ; qtot 144.584480
 4618         h1    144    ccc    H14   4618 0.11563300   1.008000   ; qtot 144.700113
 4619         c3    144    ccc     C9   4619 -0.18457900  12.010000   ; qtot 144.515534
 4620         hc    144    ccc    H15   4620 0.08347900   1.008000   ; qtot 144.599013
 4621         hc    144    ccc    H16   4621 0.08347900   1.008000   ; qtot 144.682492
 4622          c    144    ccc    C10   4622 0.67254400  12.010000   ; qtot 145.355036
 4623          o    144    ccc     O4   4623 -0.52917200  16.000000   ; qtot 144.825864
 4624         c3    144    ccc    C11   4624 0.08518000  12.010000   ; qtot 144.911044
 4625         c3    144    ccc    C12   4625 0.07918000  12.010000   ; qtot 144.990224
 4626         h1    144    ccc    H17   4626 0.06978000   1.008000   ; qtot 145.060004
 4627         c3    144    ccc    C13   4627 0.07918000  12.010000   ; qtot 145.139184
 4628         c3    144    ccc    C14   4628 0.03578000  12.010000   ; qtot 145.174964
 4629         c3    144    ccc    C15   4629 0.33498000  12.010000   ; qtot 145.509944
 4630         h1    144    ccc    H18   4630 0.06178000   1.008000   ; qtot 145.571724
 4631         h1    144    ccc    H19   4631 0.11278000   1.008000   ; qtot 145.684504
 4632         h2    144    ccc    H20   4632 0.12178000   1.008000   ; qtot 145.806284
 4633         oh    144    ccc     O1   4633 -0.56972000  16.000000   ; qtot 145.236564
 4634         oh    144    ccc     O6   4634 -0.57772000  16.000000   ; qtot 144.658844
 4635         c3    144    ccc    C16   4635 0.14548000  12.010000   ; qtot 144.804324
 4636         ho    144    ccc    H21   4636 0.40508000   1.008000   ; qtot 145.209404
 4637         hn    144    ccc    H22   4637 0.31758000   1.008000   ; qtot 145.526984
 4638         h1    144    ccc    H23   4638 0.06278000   1.008000   ; qtot 145.589764
 4639         h1    144    ccc    H24   4639 0.06278000   1.008000   ; qtot 145.652544
 4640         oh    144    ccc     O7   4640 -0.59472000  16.000000   ; qtot 145.057824
 4641         ho    144    ccc    H25   4641 0.41908000   1.008000   ; qtot 145.476904
 4642         os    144    ccc     O8   4642 -0.44552000  16.000000   ; qtot 145.031384
 4643         ho    144    ccc    H26   4643 0.41908000   1.008000   ; qtot 145.450464
 4644         h1    144    ccc    H27   4644 0.08578000   1.008000   ; qtot 145.536244
 4645         oh    144    ccc     O9   4645 -0.58672000  16.000000   ; qtot 144.949524
 4646         ho    144    ccc    H28   4646 0.41908000   1.008000   ; qtot 145.368604
 4647         n3    144    ccc     N3   4647 -0.54282000  14.010000   ; qtot 144.825784
 4648         c3    144    ccc    C17   4648 0.08518000  12.010000   ; qtot 144.910964
 4649         c3    144    ccc    C18   4649 0.07918000  12.010000   ; qtot 144.990144
 4650         h1    144    ccc    H29   4650 0.06978000   1.008000   ; qtot 145.059924
 4651         c3    144    ccc    C19   4651 0.07918000  12.010000   ; qtot 145.139104
 4652         c3    144    ccc    C20   4652 0.03578000  12.010000   ; qtot 145.174884
 4653         c3    144    ccc    C21   4653 0.33498000  12.010000   ; qtot 145.509864
 4654         h1    144    ccc    H30   4654 0.06178000   1.008000   ; qtot 145.571644
 4655         h1    144    ccc    H31   4655 0.11278000   1.008000   ; qtot 145.684424
 4656         h2    144    ccc    H32   4656 0.12178000   1.008000   ; qtot 145.806204
 4657         oh    144    ccc    O10   4657 -0.56972000  16.000000   ; qtot 145.236484
 4658         oh    144    ccc    O11   4658 -0.57772000  16.000000   ; qtot 144.658764
 4659         c3    144    ccc    C22   4659 0.14548000  12.010000   ; qtot 144.804244
 4660         ho    144    ccc    H33   4660 0.40508000   1.008000   ; qtot 145.209324
 4661         hn    144    ccc    H34   4661 0.31758000   1.008000   ; qtot 145.526904
 4662         h1    144    ccc    H35   4662 0.06278000   1.008000   ; qtot 145.589684
 4663         h1    144    ccc    H36   4663 0.06278000   1.008000   ; qtot 145.652464
 4664         oh    144    ccc    O12   4664 -0.59472000  16.000000   ; qtot 145.057744
 4665         ho    144    ccc    H37   4665 0.41908000   1.008000   ; qtot 145.476824
 4666         os    144    ccc    O13   4666 -0.44552000  16.000000   ; qtot 145.031304
 4667         ho    144    ccc    H38   4667 0.41908000   1.008000   ; qtot 145.450384
 4668         h1    144    ccc    H39   4668 0.08578000   1.008000   ; qtot 145.536164
 4669         oh    144    ccc     O5   4669 -0.58672000  16.000000   ; qtot 144.949444
 4670         ho    144    ccc    H40   4670 0.41908000   1.008000   ; qtot 145.368524
 4671         n3    144    ccc     N4   4671 -0.54282000  14.010000   ; qtot 144.825704
 4672         hn    144    ccc    H41   4672 0.17125500   1.008000   ; qtot 144.996959
; residue  145 ccc rtp ccc q 1.0
 4673          n    145    ccc     N1   4673 -0.33303000  14.010000   ; qtot 144.663929
 4674         hn    145    ccc     H4   4674 0.25916100   1.008000   ; qtot 144.923090
 4675         c3    145    ccc     C3   4675 -0.03328100  12.010000   ; qtot 144.889809
 4676         h1    145    ccc     H5   4676 0.10618100   1.008000   ; qtot 144.995990
 4677         c3    145    ccc     C4   4677 -0.02083000  12.010000   ; qtot 144.975160
 4678         h1    145    ccc     H6   4678 0.10618100   1.008000   ; qtot 145.081341
 4679         h1    145    ccc     H7   4679 0.07988000   1.008000   ; qtot 145.161221
 4680         h1    145    ccc     H8   4680 0.07988000   1.008000   ; qtot 145.241101
 4681         n4    145    ccc     N2   4681 -0.02747900  14.010000   ; qtot 145.213622
 4682         c3    145    ccc     C5   4682 -0.05097600  12.010000   ; qtot 145.162646
 4683         c3    145    ccc     C6   4683 -0.05097600  12.010000   ; qtot 145.111670
 4684         h1    145    ccc     H9   4684 0.11563300   1.008000   ; qtot 145.227303
 4685         c3    145    ccc     C7   4685 -0.18457900  12.010000   ; qtot 145.042724
 4686         h1    145    ccc    H10   4686 0.11563300   1.008000   ; qtot 145.158357
 4687         hc    145    ccc    H11   4687 0.08347900   1.008000   ; qtot 145.241836
 4688         hc    145    ccc    H12   4688 0.08347900   1.008000   ; qtot 145.325315
 4689          c    145    ccc     C8   4689 0.67254400  12.010000   ; qtot 145.997859
 4690          o    145    ccc     O2   4690 -0.52917200  16.000000   ; qtot 145.468687
 4691         h1    145    ccc    H13   4691 0.11563300   1.008000   ; qtot 145.584320
 4692         h1    145    ccc    H14   4692 0.11563300   1.008000   ; qtot 145.699953
 4693         c3    145    ccc     C9   4693 -0.18457900  12.010000   ; qtot 145.515374
 4694         hc    145    ccc    H15   4694 0.08347900   1.008000   ; qtot 145.598853
 4695         hc    145    ccc    H16   4695 0.08347900   1.008000   ; qtot 145.682332
 4696          c    145    ccc    C10   4696 0.67254400  12.010000   ; qtot 146.354876
 4697          o    145    ccc     O4   4697 -0.52917200  16.000000   ; qtot 145.825704
 4698         c3    145    ccc    C11   4698 0.08518000  12.010000   ; qtot 145.910884
 4699         c3    145    ccc    C12   4699 0.07918000  12.010000   ; qtot 145.990064
 4700         h1    145    ccc    H17   4700 0.06978000   1.008000   ; qtot 146.059844
 4701         c3    145    ccc    C13   4701 0.07918000  12.010000   ; qtot 146.139024
 4702         c3    145    ccc    C14   4702 0.03578000  12.010000   ; qtot 146.174804
 4703         c3    145    ccc    C15   4703 0.33498000  12.010000   ; qtot 146.509784
 4704         h1    145    ccc    H18   4704 0.06178000   1.008000   ; qtot 146.571564
 4705         h1    145    ccc    H19   4705 0.11278000   1.008000   ; qtot 146.684344
 4706         h2    145    ccc    H20   4706 0.12178000   1.008000   ; qtot 146.806124
 4707         oh    145    ccc     O1   4707 -0.56972000  16.000000   ; qtot 146.236404
 4708         oh    145    ccc     O6   4708 -0.57772000  16.000000   ; qtot 145.658684
 4709         c3    145    ccc    C16   4709 0.14548000  12.010000   ; qtot 145.804164
 4710         ho    145    ccc    H21   4710 0.40508000   1.008000   ; qtot 146.209244
 4711         hn    145    ccc    H22   4711 0.31758000   1.008000   ; qtot 146.526824
 4712         h1    145    ccc    H23   4712 0.06278000   1.008000   ; qtot 146.589604
 4713         h1    145    ccc    H24   4713 0.06278000   1.008000   ; qtot 146.652384
 4714         oh    145    ccc     O7   4714 -0.59472000  16.000000   ; qtot 146.057664
 4715         ho    145    ccc    H25   4715 0.41908000   1.008000   ; qtot 146.476744
 4716         os    145    ccc     O8   4716 -0.44552000  16.000000   ; qtot 146.031224
 4717         ho    145    ccc    H26   4717 0.41908000   1.008000   ; qtot 146.450304
 4718         h1    145    ccc    H27   4718 0.08578000   1.008000   ; qtot 146.536084
 4719         oh    145    ccc     O9   4719 -0.58672000  16.000000   ; qtot 145.949364
 4720         ho    145    ccc    H28   4720 0.41908000   1.008000   ; qtot 146.368444
 4721         n3    145    ccc     N3   4721 -0.54282000  14.010000   ; qtot 145.825624
 4722         c3    145    ccc    C17   4722 0.08518000  12.010000   ; qtot 145.910804
 4723         c3    145    ccc    C18   4723 0.07918000  12.010000   ; qtot 145.989984
 4724         h1    145    ccc    H29   4724 0.06978000   1.008000   ; qtot 146.059764
 4725         c3    145    ccc    C19   4725 0.07918000  12.010000   ; qtot 146.138944
 4726         c3    145    ccc    C20   4726 0.03578000  12.010000   ; qtot 146.174724
 4727         c3    145    ccc    C21   4727 0.33498000  12.010000   ; qtot 146.509704
 4728         h1    145    ccc    H30   4728 0.06178000   1.008000   ; qtot 146.571484
 4729         h1    145    ccc    H31   4729 0.11278000   1.008000   ; qtot 146.684264
 4730         h2    145    ccc    H32   4730 0.12178000   1.008000   ; qtot 146.806044
 4731         oh    145    ccc    O10   4731 -0.56972000  16.000000   ; qtot 146.236324
 4732         oh    145    ccc    O11   4732 -0.57772000  16.000000   ; qtot 145.658604
 4733         c3    145    ccc    C22   4733 0.14548000  12.010000   ; qtot 145.804084
 4734         ho    145    ccc    H33   4734 0.40508000   1.008000   ; qtot 146.209164
 4735         hn    145    ccc    H34   4735 0.31758000   1.008000   ; qtot 146.526744
 4736         h1    145    ccc    H35   4736 0.06278000   1.008000   ; qtot 146.589524
 4737         h1    145    ccc    H36   4737 0.06278000   1.008000   ; qtot 146.652304
 4738         oh    145    ccc    O12   4738 -0.59472000  16.000000   ; qtot 146.057584
 4739         ho    145    ccc    H37   4739 0.41908000   1.008000   ; qtot 146.476664
 4740         os    145    ccc    O13   4740 -0.44552000  16.000000   ; qtot 146.031144
 4741         ho    145    ccc    H38   4741 0.41908000   1.008000   ; qtot 146.450224
 4742         h1    145    ccc    H39   4742 0.08578000   1.008000   ; qtot 146.536004
 4743         oh    145    ccc     O5   4743 -0.58672000  16.000000   ; qtot 145.949284
 4744         ho    145    ccc    H40   4744 0.41908000   1.008000   ; qtot 146.368364
 4745         n3    145    ccc     N4   4745 -0.54282000  14.010000   ; qtot 145.825544
 4746         hn    145    ccc    H41   4746 0.17125500   1.008000   ; qtot 145.996799
; residue  146 ccc rtp ccc q 1.0
 4747          n    146    ccc     N1   4747 -0.33303000  14.010000   ; qtot 145.663769
 4748         hn    146    ccc     H4   4748 0.25916100   1.008000   ; qtot 145.922930
 4749         c3    146    ccc     C3   4749 -0.03328100  12.010000   ; qtot 145.889649
 4750         h1    146    ccc     H5   4750 0.10618100   1.008000   ; qtot 145.995830
 4751         c3    146    ccc     C4   4751 -0.02083000  12.010000   ; qtot 145.975000
 4752         h1    146    ccc     H6   4752 0.10618100   1.008000   ; qtot 146.081181
 4753         h1    146    ccc     H7   4753 0.07988000   1.008000   ; qtot 146.161061
 4754         h1    146    ccc     H8   4754 0.07988000   1.008000   ; qtot 146.240941
 4755         n4    146    ccc     N2   4755 -0.02747900  14.010000   ; qtot 146.213462
 4756         c3    146    ccc     C5   4756 -0.05097600  12.010000   ; qtot 146.162486
 4757         c3    146    ccc     C6   4757 -0.05097600  12.010000   ; qtot 146.111510
 4758         h1    146    ccc     H9   4758 0.11563300   1.008000   ; qtot 146.227143
 4759         c3    146    ccc     C7   4759 -0.18457900  12.010000   ; qtot 146.042564
 4760         h1    146    ccc    H10   4760 0.11563300   1.008000   ; qtot 146.158197
 4761         hc    146    ccc    H11   4761 0.08347900   1.008000   ; qtot 146.241676
 4762         hc    146    ccc    H12   4762 0.08347900   1.008000   ; qtot 146.325155
 4763          c    146    ccc     C8   4763 0.67254400  12.010000   ; qtot 146.997699
 4764          o    146    ccc     O2   4764 -0.52917200  16.000000   ; qtot 146.468527
 4765         h1    146    ccc    H13   4765 0.11563300   1.008000   ; qtot 146.584160
 4766         h1    146    ccc    H14   4766 0.11563300   1.008000   ; qtot 146.699793
 4767         c3    146    ccc     C9   4767 -0.18457900  12.010000   ; qtot 146.515214
 4768         hc    146    ccc    H15   4768 0.08347900   1.008000   ; qtot 146.598693
 4769         hc    146    ccc    H16   4769 0.08347900   1.008000   ; qtot 146.682172
 4770          c    146    ccc    C10   4770 0.67254400  12.010000   ; qtot 147.354716
 4771          o    146    ccc     O4   4771 -0.52917200  16.000000   ; qtot 146.825544
 4772         c3    146    ccc    C11   4772 0.08518000  12.010000   ; qtot 146.910724
 4773         c3    146    ccc    C12   4773 0.07918000  12.010000   ; qtot 146.989904
 4774         h1    146    ccc    H17   4774 0.06978000   1.008000   ; qtot 147.059684
 4775         c3    146    ccc    C13   4775 0.07918000  12.010000   ; qtot 147.138864
 4776         c3    146    ccc    C14   4776 0.03578000  12.010000   ; qtot 147.174644
 4777         c3    146    ccc    C15   4777 0.33498000  12.010000   ; qtot 147.509624
 4778         h1    146    ccc    H18   4778 0.06178000   1.008000   ; qtot 147.571404
 4779         h1    146    ccc    H19   4779 0.11278000   1.008000   ; qtot 147.684184
 4780         h2    146    ccc    H20   4780 0.12178000   1.008000   ; qtot 147.805964
 4781         oh    146    ccc     O1   4781 -0.56972000  16.000000   ; qtot 147.236244
 4782         oh    146    ccc     O6   4782 -0.57772000  16.000000   ; qtot 146.658524
 4783         c3    146    ccc    C16   4783 0.14548000  12.010000   ; qtot 146.804004
 4784         ho    146    ccc    H21   4784 0.40508000   1.008000   ; qtot 147.209084
 4785         hn    146    ccc    H22   4785 0.31758000   1.008000   ; qtot 147.526664
 4786         h1    146    ccc    H23   4786 0.06278000   1.008000   ; qtot 147.589444
 4787         h1    146    ccc    H24   4787 0.06278000   1.008000   ; qtot 147.652224
 4788         oh    146    ccc     O7   4788 -0.59472000  16.000000   ; qtot 147.057504
 4789         ho    146    ccc    H25   4789 0.41908000   1.008000   ; qtot 147.476584
 4790         os    146    ccc     O8   4790 -0.44552000  16.000000   ; qtot 147.031064
 4791         ho    146    ccc    H26   4791 0.41908000   1.008000   ; qtot 147.450144
 4792         h1    146    ccc    H27   4792 0.08578000   1.008000   ; qtot 147.535924
 4793         oh    146    ccc     O9   4793 -0.58672000  16.000000   ; qtot 146.949204
 4794         ho    146    ccc    H28   4794 0.41908000   1.008000   ; qtot 147.368284
 4795         n3    146    ccc     N3   4795 -0.54282000  14.010000   ; qtot 146.825464
 4796         c3    146    ccc    C17   4796 0.08518000  12.010000   ; qtot 146.910644
 4797         c3    146    ccc    C18   4797 0.07918000  12.010000   ; qtot 146.989824
 4798         h1    146    ccc    H29   4798 0.06978000   1.008000   ; qtot 147.059604
 4799         c3    146    ccc    C19   4799 0.07918000  12.010000   ; qtot 147.138784
 4800         c3    146    ccc    C20   4800 0.03578000  12.010000   ; qtot 147.174564
 4801         c3    146    ccc    C21   4801 0.33498000  12.010000   ; qtot 147.509544
 4802         h1    146    ccc    H30   4802 0.06178000   1.008000   ; qtot 147.571324
 4803         h1    146    ccc    H31   4803 0.11278000   1.008000   ; qtot 147.684104
 4804         h2    146    ccc    H32   4804 0.12178000   1.008000   ; qtot 147.805884
 4805         oh    146    ccc    O10   4805 -0.56972000  16.000000   ; qtot 147.236164
 4806         oh    146    ccc    O11   4806 -0.57772000  16.000000   ; qtot 146.658444
 4807         c3    146    ccc    C22   4807 0.14548000  12.010000   ; qtot 146.803924
 4808         ho    146    ccc    H33   4808 0.40508000   1.008000   ; qtot 147.209004
 4809         hn    146    ccc    H34   4809 0.31758000   1.008000   ; qtot 147.526584
 4810         h1    146    ccc    H35   4810 0.06278000   1.008000   ; qtot 147.589364
 4811         h1    146    ccc    H36   4811 0.06278000   1.008000   ; qtot 147.652144
 4812         oh    146    ccc    O12   4812 -0.59472000  16.000000   ; qtot 147.057424
 4813         ho    146    ccc    H37   4813 0.41908000   1.008000   ; qtot 147.476504
 4814         os    146    ccc    O13   4814 -0.44552000  16.000000   ; qtot 147.030984
 4815         ho    146    ccc    H38   4815 0.41908000   1.008000   ; qtot 147.450064
 4816         h1    146    ccc    H39   4816 0.08578000   1.008000   ; qtot 147.535844
 4817         oh    146    ccc     O5   4817 -0.58672000  16.000000   ; qtot 146.949124
 4818         ho    146    ccc    H40   4818 0.41908000   1.008000   ; qtot 147.368204
 4819         n3    146    ccc     N4   4819 -0.54282000  14.010000   ; qtot 146.825384
 4820         hn    146    ccc    H41   4820 0.17125500   1.008000   ; qtot 146.996639
; residue  147 ccc rtp ccc q 1.0
 4821          n    147    ccc     N1   4821 -0.33303000  14.010000   ; qtot 146.663609
 4822         hn    147    ccc     H4   4822 0.25916100   1.008000   ; qtot 146.922770
 4823         c3    147    ccc     C3   4823 -0.03328100  12.010000   ; qtot 146.889489
 4824         h1    147    ccc     H5   4824 0.10618100   1.008000   ; qtot 146.995670
 4825         c3    147    ccc     C4   4825 -0.02083000  12.010000   ; qtot 146.974840
 4826         h1    147    ccc     H6   4826 0.10618100   1.008000   ; qtot 147.081021
 4827         h1    147    ccc     H7   4827 0.07988000   1.008000   ; qtot 147.160901
 4828         h1    147    ccc     H8   4828 0.07988000   1.008000   ; qtot 147.240781
 4829         n4    147    ccc     N2   4829 -0.02747900  14.010000   ; qtot 147.213302
 4830         c3    147    ccc     C5   4830 -0.05097600  12.010000   ; qtot 147.162326
 4831         c3    147    ccc     C6   4831 -0.05097600  12.010000   ; qtot 147.111350
 4832         h1    147    ccc     H9   4832 0.11563300   1.008000   ; qtot 147.226983
 4833         c3    147    ccc     C7   4833 -0.18457900  12.010000   ; qtot 147.042404
 4834         h1    147    ccc    H10   4834 0.11563300   1.008000   ; qtot 147.158037
 4835         hc    147    ccc    H11   4835 0.08347900   1.008000   ; qtot 147.241516
 4836         hc    147    ccc    H12   4836 0.08347900   1.008000   ; qtot 147.324995
 4837          c    147    ccc     C8   4837 0.67254400  12.010000   ; qtot 147.997539
 4838          o    147    ccc     O2   4838 -0.52917200  16.000000   ; qtot 147.468367
 4839         h1    147    ccc    H13   4839 0.11563300   1.008000   ; qtot 147.584000
 4840         h1    147    ccc    H14   4840 0.11563300   1.008000   ; qtot 147.699633
 4841         c3    147    ccc     C9   4841 -0.18457900  12.010000   ; qtot 147.515054
 4842         hc    147    ccc    H15   4842 0.08347900   1.008000   ; qtot 147.598533
 4843         hc    147    ccc    H16   4843 0.08347900   1.008000   ; qtot 147.682012
 4844          c    147    ccc    C10   4844 0.67254400  12.010000   ; qtot 148.354556
 4845          o    147    ccc     O4   4845 -0.52917200  16.000000   ; qtot 147.825384
 4846         c3    147    ccc    C11   4846 0.08518000  12.010000   ; qtot 147.910564
 4847         c3    147    ccc    C12   4847 0.07918000  12.010000   ; qtot 147.989744
 4848         h1    147    ccc    H17   4848 0.06978000   1.008000   ; qtot 148.059524
 4849         c3    147    ccc    C13   4849 0.07918000  12.010000   ; qtot 148.138704
 4850         c3    147    ccc    C14   4850 0.03578000  12.010000   ; qtot 148.174484
 4851         c3    147    ccc    C15   4851 0.33498000  12.010000   ; qtot 148.509464
 4852         h1    147    ccc    H18   4852 0.06178000   1.008000   ; qtot 148.571244
 4853         h1    147    ccc    H19   4853 0.11278000   1.008000   ; qtot 148.684024
 4854         h2    147    ccc    H20   4854 0.12178000   1.008000   ; qtot 148.805804
 4855         oh    147    ccc     O1   4855 -0.56972000  16.000000   ; qtot 148.236084
 4856         oh    147    ccc     O6   4856 -0.57772000  16.000000   ; qtot 147.658364
 4857         c3    147    ccc    C16   4857 0.14548000  12.010000   ; qtot 147.803844
 4858         ho    147    ccc    H21   4858 0.40508000   1.008000   ; qtot 148.208924
 4859         hn    147    ccc    H22   4859 0.31758000   1.008000   ; qtot 148.526504
 4860         h1    147    ccc    H23   4860 0.06278000   1.008000   ; qtot 148.589284
 4861         h1    147    ccc    H24   4861 0.06278000   1.008000   ; qtot 148.652064
 4862         oh    147    ccc     O7   4862 -0.59472000  16.000000   ; qtot 148.057344
 4863         ho    147    ccc    H25   4863 0.41908000   1.008000   ; qtot 148.476424
 4864         os    147    ccc     O8   4864 -0.44552000  16.000000   ; qtot 148.030904
 4865         ho    147    ccc    H26   4865 0.41908000   1.008000   ; qtot 148.449984
 4866         h1    147    ccc    H27   4866 0.08578000   1.008000   ; qtot 148.535764
 4867         oh    147    ccc     O9   4867 -0.58672000  16.000000   ; qtot 147.949044
 4868         ho    147    ccc    H28   4868 0.41908000   1.008000   ; qtot 148.368124
 4869         n3    147    ccc     N3   4869 -0.54282000  14.010000   ; qtot 147.825304
 4870         c3    147    ccc    C17   4870 0.08518000  12.010000   ; qtot 147.910484
 4871         c3    147    ccc    C18   4871 0.07918000  12.010000   ; qtot 147.989664
 4872         h1    147    ccc    H29   4872 0.06978000   1.008000   ; qtot 148.059444
 4873         c3    147    ccc    C19   4873 0.07918000  12.010000   ; qtot 148.138624
 4874         c3    147    ccc    C20   4874 0.03578000  12.010000   ; qtot 148.174404
 4875         c3    147    ccc    C21   4875 0.33498000  12.010000   ; qtot 148.509384
 4876         h1    147    ccc    H30   4876 0.06178000   1.008000   ; qtot 148.571164
 4877         h1    147    ccc    H31   4877 0.11278000   1.008000   ; qtot 148.683944
 4878         h2    147    ccc    H32   4878 0.12178000   1.008000   ; qtot 148.805724
 4879         oh    147    ccc    O10   4879 -0.56972000  16.000000   ; qtot 148.236004
 4880         oh    147    ccc    O11   4880 -0.57772000  16.000000   ; qtot 147.658284
 4881         c3    147    ccc    C22   4881 0.14548000  12.010000   ; qtot 147.803764
 4882         ho    147    ccc    H33   4882 0.40508000   1.008000   ; qtot 148.208844
 4883         hn    147    ccc    H34   4883 0.31758000   1.008000   ; qtot 148.526424
 4884         h1    147    ccc    H35   4884 0.06278000   1.008000   ; qtot 148.589204
 4885         h1    147    ccc    H36   4885 0.06278000   1.008000   ; qtot 148.651984
 4886         oh    147    ccc    O12   4886 -0.59472000  16.000000   ; qtot 148.057264
 4887         ho    147    ccc    H37   4887 0.41908000   1.008000   ; qtot 148.476344
 4888         os    147    ccc    O13   4888 -0.44552000  16.000000   ; qtot 148.030824
 4889         ho    147    ccc    H38   4889 0.41908000   1.008000   ; qtot 148.449904
 4890         h1    147    ccc    H39   4890 0.08578000   1.008000   ; qtot 148.535684
 4891         oh    147    ccc     O5   4891 -0.58672000  16.000000   ; qtot 147.948964
 4892         ho    147    ccc    H40   4892 0.41908000   1.008000   ; qtot 148.368044
 4893         n3    147    ccc     N4   4893 -0.54282000  14.010000   ; qtot 147.825224
 4894         hn    147    ccc    H41   4894 0.17125500   1.008000   ; qtot 147.996479
; residue  148 ccc rtp ccc q 1.0
 4895          n    148    ccc     N1   4895 -0.33303000  14.010000   ; qtot 147.663449
 4896         hn    148    ccc     H4   4896 0.25916100   1.008000   ; qtot 147.922610
 4897         c3    148    ccc     C3   4897 -0.03328100  12.010000   ; qtot 147.889329
 4898         h1    148    ccc     H5   4898 0.10618100   1.008000   ; qtot 147.995510
 4899         c3    148    ccc     C4   4899 -0.02083000  12.010000   ; qtot 147.974680
 4900         h1    148    ccc     H6   4900 0.10618100   1.008000   ; qtot 148.080861
 4901         h1    148    ccc     H7   4901 0.07988000   1.008000   ; qtot 148.160741
 4902         h1    148    ccc     H8   4902 0.07988000   1.008000   ; qtot 148.240621
 4903         n4    148    ccc     N2   4903 -0.02747900  14.010000   ; qtot 148.213142
 4904         c3    148    ccc     C5   4904 -0.05097600  12.010000   ; qtot 148.162166
 4905         c3    148    ccc     C6   4905 -0.05097600  12.010000   ; qtot 148.111190
 4906         h1    148    ccc     H9   4906 0.11563300   1.008000   ; qtot 148.226823
 4907         c3    148    ccc     C7   4907 -0.18457900  12.010000   ; qtot 148.042244
 4908         h1    148    ccc    H10   4908 0.11563300   1.008000   ; qtot 148.157877
 4909         hc    148    ccc    H11   4909 0.08347900   1.008000   ; qtot 148.241356
 4910         hc    148    ccc    H12   4910 0.08347900   1.008000   ; qtot 148.324835
 4911          c    148    ccc     C8   4911 0.67254400  12.010000   ; qtot 148.997379
 4912          o    148    ccc     O2   4912 -0.52917200  16.000000   ; qtot 148.468207
 4913         h1    148    ccc    H13   4913 0.11563300   1.008000   ; qtot 148.583840
 4914         h1    148    ccc    H14   4914 0.11563300   1.008000   ; qtot 148.699473
 4915         c3    148    ccc     C9   4915 -0.18457900  12.010000   ; qtot 148.514894
 4916         hc    148    ccc    H15   4916 0.08347900   1.008000   ; qtot 148.598373
 4917         hc    148    ccc    H16   4917 0.08347900   1.008000   ; qtot 148.681852
 4918          c    148    ccc    C10   4918 0.67254400  12.010000   ; qtot 149.354396
 4919          o    148    ccc     O4   4919 -0.52917200  16.000000   ; qtot 148.825224
 4920         c3    148    ccc    C11   4920 0.08518000  12.010000   ; qtot 148.910404
 4921         c3    148    ccc    C12   4921 0.07918000  12.010000   ; qtot 148.989584
 4922         h1    148    ccc    H17   4922 0.06978000   1.008000   ; qtot 149.059364
 4923         c3    148    ccc    C13   4923 0.07918000  12.010000   ; qtot 149.138544
 4924         c3    148    ccc    C14   4924 0.03578000  12.010000   ; qtot 149.174324
 4925         c3    148    ccc    C15   4925 0.33498000  12.010000   ; qtot 149.509304
 4926         h1    148    ccc    H18   4926 0.06178000   1.008000   ; qtot 149.571084
 4927         h1    148    ccc    H19   4927 0.11278000   1.008000   ; qtot 149.683864
 4928         h2    148    ccc    H20   4928 0.12178000   1.008000   ; qtot 149.805644
 4929         oh    148    ccc     O1   4929 -0.56972000  16.000000   ; qtot 149.235924
 4930         oh    148    ccc     O6   4930 -0.57772000  16.000000   ; qtot 148.658204
 4931         c3    148    ccc    C16   4931 0.14548000  12.010000   ; qtot 148.803684
 4932         ho    148    ccc    H21   4932 0.40508000   1.008000   ; qtot 149.208764
 4933         hn    148    ccc    H22   4933 0.31758000   1.008000   ; qtot 149.526344
 4934         h1    148    ccc    H23   4934 0.06278000   1.008000   ; qtot 149.589124
 4935         h1    148    ccc    H24   4935 0.06278000   1.008000   ; qtot 149.651904
 4936         oh    148    ccc     O7   4936 -0.59472000  16.000000   ; qtot 149.057184
 4937         ho    148    ccc    H25   4937 0.41908000   1.008000   ; qtot 149.476264
 4938         os    148    ccc     O8   4938 -0.44552000  16.000000   ; qtot 149.030744
 4939         ho    148    ccc    H26   4939 0.41908000   1.008000   ; qtot 149.449824
 4940         h1    148    ccc    H27   4940 0.08578000   1.008000   ; qtot 149.535604
 4941         oh    148    ccc     O9   4941 -0.58672000  16.000000   ; qtot 148.948884
 4942         ho    148    ccc    H28   4942 0.41908000   1.008000   ; qtot 149.367964
 4943         n3    148    ccc     N3   4943 -0.54282000  14.010000   ; qtot 148.825144
 4944         c3    148    ccc    C17   4944 0.08518000  12.010000   ; qtot 148.910324
 4945         c3    148    ccc    C18   4945 0.07918000  12.010000   ; qtot 148.989504
 4946         h1    148    ccc    H29   4946 0.06978000   1.008000   ; qtot 149.059284
 4947         c3    148    ccc    C19   4947 0.07918000  12.010000   ; qtot 149.138464
 4948         c3    148    ccc    C20   4948 0.03578000  12.010000   ; qtot 149.174244
 4949         c3    148    ccc    C21   4949 0.33498000  12.010000   ; qtot 149.509224
 4950         h1    148    ccc    H30   4950 0.06178000   1.008000   ; qtot 149.571004
 4951         h1    148    ccc    H31   4951 0.11278000   1.008000   ; qtot 149.683784
 4952         h2    148    ccc    H32   4952 0.12178000   1.008000   ; qtot 149.805564
 4953         oh    148    ccc    O10   4953 -0.56972000  16.000000   ; qtot 149.235844
 4954         oh    148    ccc    O11   4954 -0.57772000  16.000000   ; qtot 148.658124
 4955         c3    148    ccc    C22   4955 0.14548000  12.010000   ; qtot 148.803604
 4956         ho    148    ccc    H33   4956 0.40508000   1.008000   ; qtot 149.208684
 4957         hn    148    ccc    H34   4957 0.31758000   1.008000   ; qtot 149.526264
 4958         h1    148    ccc    H35   4958 0.06278000   1.008000   ; qtot 149.589044
 4959         h1    148    ccc    H36   4959 0.06278000   1.008000   ; qtot 149.651824
 4960         oh    148    ccc    O12   4960 -0.59472000  16.000000   ; qtot 149.057104
 4961         ho    148    ccc    H37   4961 0.41908000   1.008000   ; qtot 149.476184
 4962         os    148    ccc    O13   4962 -0.44552000  16.000000   ; qtot 149.030664
 4963         ho    148    ccc    H38   4963 0.41908000   1.008000   ; qtot 149.449744
 4964         h1    148    ccc    H39   4964 0.08578000   1.008000   ; qtot 149.535524
 4965         oh    148    ccc     O5   4965 -0.58672000  16.000000   ; qtot 148.948804
 4966         ho    148    ccc    H40   4966 0.41908000   1.008000   ; qtot 149.367884
 4967         n3    148    ccc     N4   4967 -0.54282000  14.010000   ; qtot 148.825064
 4968         hn    148    ccc    H41   4968 0.17125500   1.008000   ; qtot 148.996319
; residue  149 ccc rtp ccc q 1.0
 4969          n    149    ccc     N1   4969 -0.33303000  14.010000   ; qtot 148.663289
 4970         hn    149    ccc     H4   4970 0.25916100   1.008000   ; qtot 148.922450
 4971         c3    149    ccc     C3   4971 -0.03328100  12.010000   ; qtot 148.889169
 4972         h1    149    ccc     H5   4972 0.10618100   1.008000   ; qtot 148.995350
 4973         c3    149    ccc     C4   4973 -0.02083000  12.010000   ; qtot 148.974520
 4974         h1    149    ccc     H6   4974 0.10618100   1.008000   ; qtot 149.080701
 4975         h1    149    ccc     H7   4975 0.07988000   1.008000   ; qtot 149.160581
 4976         h1    149    ccc     H8   4976 0.07988000   1.008000   ; qtot 149.240461
 4977         n4    149    ccc     N2   4977 -0.02747900  14.010000   ; qtot 149.212982
 4978         c3    149    ccc     C5   4978 -0.05097600  12.010000   ; qtot 149.162006
 4979         c3    149    ccc     C6   4979 -0.05097600  12.010000   ; qtot 149.111030
 4980         h1    149    ccc     H9   4980 0.11563300   1.008000   ; qtot 149.226663
 4981         c3    149    ccc     C7   4981 -0.18457900  12.010000   ; qtot 149.042084
 4982         h1    149    ccc    H10   4982 0.11563300   1.008000   ; qtot 149.157717
 4983         hc    149    ccc    H11   4983 0.08347900   1.008000   ; qtot 149.241196
 4984         hc    149    ccc    H12   4984 0.08347900   1.008000   ; qtot 149.324675
 4985          c    149    ccc     C8   4985 0.67254400  12.010000   ; qtot 149.997219
 4986          o    149    ccc     O2   4986 -0.52917200  16.000000   ; qtot 149.468047
 4987         h1    149    ccc    H13   4987 0.11563300   1.008000   ; qtot 149.583680
 4988         h1    149    ccc    H14   4988 0.11563300   1.008000   ; qtot 149.699313
 4989         c3    149    ccc     C9   4989 -0.18457900  12.010000   ; qtot 149.514734
 4990         hc    149    ccc    H15   4990 0.08347900   1.008000   ; qtot 149.598213
 4991         hc    149    ccc    H16   4991 0.08347900   1.008000   ; qtot 149.681692
 4992          c    149    ccc    C10   4992 0.67254400  12.010000   ; qtot 150.354236
 4993          o    149    ccc     O4   4993 -0.52917200  16.000000   ; qtot 149.825064
 4994         c3    149    ccc    C11   4994 0.08518000  12.010000   ; qtot 149.910244
 4995         c3    149    ccc    C12   4995 0.07918000  12.010000   ; qtot 149.989424
 4996         h1    149    ccc    H17   4996 0.06978000   1.008000   ; qtot 150.059204
 4997         c3    149    ccc    C13   4997 0.07918000  12.010000   ; qtot 150.138384
 4998         c3    149    ccc    C14   4998 0.03578000  12.010000   ; qtot 150.174164
 4999         c3    149    ccc    C15   4999 0.33498000  12.010000   ; qtot 150.509144
 5000         h1    149    ccc    H18   5000 0.06178000   1.008000   ; qtot 150.570924
 5001         h1    149    ccc    H19   5001 0.11278000   1.008000   ; qtot 150.683704
 5002         h2    149    ccc    H20   5002 0.12178000   1.008000   ; qtot 150.805484
 5003         oh    149    ccc     O1   5003 -0.56972000  16.000000   ; qtot 150.235764
 5004         oh    149    ccc     O6   5004 -0.57772000  16.000000   ; qtot 149.658044
 5005         c3    149    ccc    C16   5005 0.14548000  12.010000   ; qtot 149.803524
 5006         ho    149    ccc    H21   5006 0.40508000   1.008000   ; qtot 150.208604
 5007         hn    149    ccc    H22   5007 0.31758000   1.008000   ; qtot 150.526184
 5008         h1    149    ccc    H23   5008 0.06278000   1.008000   ; qtot 150.588964
 5009         h1    149    ccc    H24   5009 0.06278000   1.008000   ; qtot 150.651744
 5010         oh    149    ccc     O7   5010 -0.59472000  16.000000   ; qtot 150.057024
 5011         ho    149    ccc    H25   5011 0.41908000   1.008000   ; qtot 150.476104
 5012         os    149    ccc     O8   5012 -0.44552000  16.000000   ; qtot 150.030584
 5013         ho    149    ccc    H26   5013 0.41908000   1.008000   ; qtot 150.449664
 5014         h1    149    ccc    H27   5014 0.08578000   1.008000   ; qtot 150.535444
 5015         oh    149    ccc     O9   5015 -0.58672000  16.000000   ; qtot 149.948724
 5016         ho    149    ccc    H28   5016 0.41908000   1.008000   ; qtot 150.367804
 5017         n3    149    ccc     N3   5017 -0.54282000  14.010000   ; qtot 149.824984
 5018         c3    149    ccc    C17   5018 0.08518000  12.010000   ; qtot 149.910164
 5019         c3    149    ccc    C18   5019 0.07918000  12.010000   ; qtot 149.989344
 5020         h1    149    ccc    H29   5020 0.06978000   1.008000   ; qtot 150.059124
 5021         c3    149    ccc    C19   5021 0.07918000  12.010000   ; qtot 150.138304
 5022         c3    149    ccc    C20   5022 0.03578000  12.010000   ; qtot 150.174084
 5023         c3    149    ccc    C21   5023 0.33498000  12.010000   ; qtot 150.509064
 5024         h1    149    ccc    H30   5024 0.06178000   1.008000   ; qtot 150.570844
 5025         h1    149    ccc    H31   5025 0.11278000   1.008000   ; qtot 150.683624
 5026         h2    149    ccc    H32   5026 0.12178000   1.008000   ; qtot 150.805404
 5027         oh    149    ccc    O10   5027 -0.56972000  16.000000   ; qtot 150.235684
 5028         oh    149    ccc    O11   5028 -0.57772000  16.000000   ; qtot 149.657964
 5029         c3    149    ccc    C22   5029 0.14548000  12.010000   ; qtot 149.803444
 5030         ho    149    ccc    H33   5030 0.40508000   1.008000   ; qtot 150.208524
 5031         hn    149    ccc    H34   5031 0.31758000   1.008000   ; qtot 150.526104
 5032         h1    149    ccc    H35   5032 0.06278000   1.008000   ; qtot 150.588884
 5033         h1    149    ccc    H36   5033 0.06278000   1.008000   ; qtot 150.651664
 5034         oh    149    ccc    O12   5034 -0.59472000  16.000000   ; qtot 150.056944
 5035         ho    149    ccc    H37   5035 0.41908000   1.008000   ; qtot 150.476024
 5036         os    149    ccc    O13   5036 -0.44552000  16.000000   ; qtot 150.030504
 5037         ho    149    ccc    H38   5037 0.41908000   1.008000   ; qtot 150.449584
 5038         h1    149    ccc    H39   5038 0.08578000   1.008000   ; qtot 150.535364
 5039         oh    149    ccc     O5   5039 -0.58672000  16.000000   ; qtot 149.948644
 5040         ho    149    ccc    H40   5040 0.41908000   1.008000   ; qtot 150.367724
 5041         n3    149    ccc     N4   5041 -0.54282000  14.010000   ; qtot 149.824904
 5042         hn    149    ccc    H41   5042 0.17125500   1.008000   ; qtot 149.996159
; residue  150 ccc rtp ccc q 1.0
 5043          n    150    ccc     N1   5043 -0.33303000  14.010000   ; qtot 149.663129
 5044         hn    150    ccc     H4   5044 0.25916100   1.008000   ; qtot 149.922290
 5045         c3    150    ccc     C3   5045 -0.03328100  12.010000   ; qtot 149.889009
 5046         h1    150    ccc     H5   5046 0.10618100   1.008000   ; qtot 149.995190
 5047         c3    150    ccc     C4   5047 -0.02083000  12.010000   ; qtot 149.974360
 5048         h1    150    ccc     H6   5048 0.10618100   1.008000   ; qtot 150.080541
 5049         h1    150    ccc     H7   5049 0.07988000   1.008000   ; qtot 150.160421
 5050         h1    150    ccc     H8   5050 0.07988000   1.008000   ; qtot 150.240301
 5051         n4    150    ccc     N2   5051 -0.02747900  14.010000   ; qtot 150.212822
 5052         c3    150    ccc     C5   5052 -0.05097600  12.010000   ; qtot 150.161846
 5053         c3    150    ccc     C6   5053 -0.05097600  12.010000   ; qtot 150.110870
 5054         h1    150    ccc     H9   5054 0.11563300   1.008000   ; qtot 150.226503
 5055         c3    150    ccc     C7   5055 -0.18457900  12.010000   ; qtot 150.041924
 5056         h1    150    ccc    H10   5056 0.11563300   1.008000   ; qtot 150.157557
 5057         hc    150    ccc    H11   5057 0.08347900   1.008000   ; qtot 150.241036
 5058         hc    150    ccc    H12   5058 0.08347900   1.008000   ; qtot 150.324515
 5059          c    150    ccc     C8   5059 0.67254400  12.010000   ; qtot 150.997059
 5060          o    150    ccc     O2   5060 -0.52917200  16.000000   ; qtot 150.467887
 5061         h1    150    ccc    H13   5061 0.11563300   1.008000   ; qtot 150.583520
 5062         h1    150    ccc    H14   5062 0.11563300   1.008000   ; qtot 150.699153
 5063         c3    150    ccc     C9   5063 -0.18457900  12.010000   ; qtot 150.514574
 5064         hc    150    ccc    H15   5064 0.08347900   1.008000   ; qtot 150.598053
 5065         hc    150    ccc    H16   5065 0.08347900   1.008000   ; qtot 150.681532
 5066          c    150    ccc    C10   5066 0.67254400  12.010000   ; qtot 151.354076
 5067          o    150    ccc     O4   5067 -0.52917200  16.000000   ; qtot 150.824904
 5068         c3    150    ccc    C11   5068 0.08518000  12.010000   ; qtot 150.910084
 5069         c3    150    ccc    C12   5069 0.07918000  12.010000   ; qtot 150.989264
 5070         h1    150    ccc    H17   5070 0.06978000   1.008000   ; qtot 151.059044
 5071         c3    150    ccc    C13   5071 0.07918000  12.010000   ; qtot 151.138224
 5072         c3    150    ccc    C14   5072 0.03578000  12.010000   ; qtot 151.174004
 5073         c3    150    ccc    C15   5073 0.33498000  12.010000   ; qtot 151.508984
 5074         h1    150    ccc    H18   5074 0.06178000   1.008000   ; qtot 151.570764
 5075         h1    150    ccc    H19   5075 0.11278000   1.008000   ; qtot 151.683544
 5076         h2    150    ccc    H20   5076 0.12178000   1.008000   ; qtot 151.805324
 5077         oh    150    ccc     O1   5077 -0.56972000  16.000000   ; qtot 151.235604
 5078         oh    150    ccc     O6   5078 -0.57772000  16.000000   ; qtot 150.657884
 5079         c3    150    ccc    C16   5079 0.14548000  12.010000   ; qtot 150.803364
 5080         ho    150    ccc    H21   5080 0.40508000   1.008000   ; qtot 151.208444
 5081         hn    150    ccc    H22   5081 0.31758000   1.008000   ; qtot 151.526024
 5082         h1    150    ccc    H23   5082 0.06278000   1.008000   ; qtot 151.588804
 5083         h1    150    ccc    H24   5083 0.06278000   1.008000   ; qtot 151.651584
 5084         oh    150    ccc     O7   5084 -0.59472000  16.000000   ; qtot 151.056864
 5085         ho    150    ccc    H25   5085 0.41908000   1.008000   ; qtot 151.475944
 5086         os    150    ccc     O8   5086 -0.44552000  16.000000   ; qtot 151.030424
 5087         ho    150    ccc    H26   5087 0.41908000   1.008000   ; qtot 151.449504
 5088         h1    150    ccc    H27   5088 0.08578000   1.008000   ; qtot 151.535284
 5089         oh    150    ccc     O9   5089 -0.58672000  16.000000   ; qtot 150.948564
 5090         ho    150    ccc    H28   5090 0.41908000   1.008000   ; qtot 151.367644
 5091         n3    150    ccc     N3   5091 -0.54282000  14.010000   ; qtot 150.824824
 5092         c3    150    ccc    C17   5092 0.08518000  12.010000   ; qtot 150.910004
 5093         c3    150    ccc    C18   5093 0.07918000  12.010000   ; qtot 150.989184
 5094         h1    150    ccc    H29   5094 0.06978000   1.008000   ; qtot 151.058964
 5095         c3    150    ccc    C19   5095 0.07918000  12.010000   ; qtot 151.138144
 5096         c3    150    ccc    C20   5096 0.03578000  12.010000   ; qtot 151.173924
 5097         c3    150    ccc    C21   5097 0.33498000  12.010000   ; qtot 151.508904
 5098         h1    150    ccc    H30   5098 0.06178000   1.008000   ; qtot 151.570684
 5099         h1    150    ccc    H31   5099 0.11278000   1.008000   ; qtot 151.683464
 5100         h2    150    ccc    H32   5100 0.12178000   1.008000   ; qtot 151.805244
 5101         oh    150    ccc    O10   5101 -0.56972000  16.000000   ; qtot 151.235524
 5102         oh    150    ccc    O11   5102 -0.57772000  16.000000   ; qtot 150.657804
 5103         c3    150    ccc    C22   5103 0.14548000  12.010000   ; qtot 150.803284
 5104         ho    150    ccc    H33   5104 0.40508000   1.008000   ; qtot 151.208364
 5105         hn    150    ccc    H34   5105 0.31758000   1.008000   ; qtot 151.525944
 5106         h1    150    ccc    H35   5106 0.06278000   1.008000   ; qtot 151.588724
 5107         h1    150    ccc    H36   5107 0.06278000   1.008000   ; qtot 151.651504
 5108         oh    150    ccc    O12   5108 -0.59472000  16.000000   ; qtot 151.056784
 5109         ho    150    ccc    H37   5109 0.41908000   1.008000   ; qtot 151.475864
 5110         os    150    ccc    O13   5110 -0.44552000  16.000000   ; qtot 151.030344
 5111         ho    150    ccc    H38   5111 0.41908000   1.008000   ; qtot 151.449424
 5112         h1    150    ccc    H39   5112 0.08578000   1.008000   ; qtot 151.535204
 5113         oh    150    ccc     O5   5113 -0.58672000  16.000000   ; qtot 150.948484
 5114         ho    150    ccc    H40   5114 0.41908000   1.008000   ; qtot 151.367564
 5115         n3    150    ccc     N4   5115 -0.54282000  14.010000   ; qtot 150.824744
 5116         hn    150    ccc    H41   5116 0.17125500   1.008000   ; qtot 150.995999
; residue  151 ccc rtp ccc q 1.0
 5117          n    151    ccc     N1   5117 -0.33303000  14.010000   ; qtot 150.662969
 5118         hn    151    ccc     H4   5118 0.25916100   1.008000   ; qtot 150.922130
 5119         c3    151    ccc     C3   5119 -0.03328100  12.010000   ; qtot 150.888849
 5120         h1    151    ccc     H5   5120 0.10618100   1.008000   ; qtot 150.995030
 5121         c3    151    ccc     C4   5121 -0.02083000  12.010000   ; qtot 150.974200
 5122         h1    151    ccc     H6   5122 0.10618100   1.008000   ; qtot 151.080381
 5123         h1    151    ccc     H7   5123 0.07988000   1.008000   ; qtot 151.160261
 5124         h1    151    ccc     H8   5124 0.07988000   1.008000   ; qtot 151.240141
 5125         n4    151    ccc     N2   5125 -0.02747900  14.010000   ; qtot 151.212662
 5126         c3    151    ccc     C5   5126 -0.05097600  12.010000   ; qtot 151.161686
 5127         c3    151    ccc     C6   5127 -0.05097600  12.010000   ; qtot 151.110710
 5128         h1    151    ccc     H9   5128 0.11563300   1.008000   ; qtot 151.226343
 5129         c3    151    ccc     C7   5129 -0.18457900  12.010000   ; qtot 151.041764
 5130         h1    151    ccc    H10   5130 0.11563300   1.008000   ; qtot 151.157397
 5131         hc    151    ccc    H11   5131 0.08347900   1.008000   ; qtot 151.240876
 5132         hc    151    ccc    H12   5132 0.08347900   1.008000   ; qtot 151.324355
 5133          c    151    ccc     C8   5133 0.67254400  12.010000   ; qtot 151.996899
 5134          o    151    ccc     O2   5134 -0.52917200  16.000000   ; qtot 151.467727
 5135         h1    151    ccc    H13   5135 0.11563300   1.008000   ; qtot 151.583360
 5136         h1    151    ccc    H14   5136 0.11563300   1.008000   ; qtot 151.698993
 5137         c3    151    ccc     C9   5137 -0.18457900  12.010000   ; qtot 151.514414
 5138         hc    151    ccc    H15   5138 0.08347900   1.008000   ; qtot 151.597893
 5139         hc    151    ccc    H16   5139 0.08347900   1.008000   ; qtot 151.681372
 5140          c    151    ccc    C10   5140 0.67254400  12.010000   ; qtot 152.353916
 5141          o    151    ccc     O4   5141 -0.52917200  16.000000   ; qtot 151.824744
 5142         c3    151    ccc    C11   5142 0.08518000  12.010000   ; qtot 151.909924
 5143         c3    151    ccc    C12   5143 0.07918000  12.010000   ; qtot 151.989104
 5144         h1    151    ccc    H17   5144 0.06978000   1.008000   ; qtot 152.058884
 5145         c3    151    ccc    C13   5145 0.07918000  12.010000   ; qtot 152.138064
 5146         c3    151    ccc    C14   5146 0.03578000  12.010000   ; qtot 152.173844
 5147         c3    151    ccc    C15   5147 0.33498000  12.010000   ; qtot 152.508824
 5148         h1    151    ccc    H18   5148 0.06178000   1.008000   ; qtot 152.570604
 5149         h1    151    ccc    H19   5149 0.11278000   1.008000   ; qtot 152.683384
 5150         h2    151    ccc    H20   5150 0.12178000   1.008000   ; qtot 152.805164
 5151         oh    151    ccc     O1   5151 -0.56972000  16.000000   ; qtot 152.235444
 5152         oh    151    ccc     O6   5152 -0.57772000  16.000000   ; qtot 151.657724
 5153         c3    151    ccc    C16   5153 0.14548000  12.010000   ; qtot 151.803204
 5154         ho    151    ccc    H21   5154 0.40508000   1.008000   ; qtot 152.208284
 5155         hn    151    ccc    H22   5155 0.31758000   1.008000   ; qtot 152.525864
 5156         h1    151    ccc    H23   5156 0.06278000   1.008000   ; qtot 152.588644
 5157         h1    151    ccc    H24   5157 0.06278000   1.008000   ; qtot 152.651424
 5158         oh    151    ccc     O7   5158 -0.59472000  16.000000   ; qtot 152.056704
 5159         ho    151    ccc    H25   5159 0.41908000   1.008000   ; qtot 152.475784
 5160         os    151    ccc     O8   5160 -0.44552000  16.000000   ; qtot 152.030264
 5161         ho    151    ccc    H26   5161 0.41908000   1.008000   ; qtot 152.449344
 5162         h1    151    ccc    H27   5162 0.08578000   1.008000   ; qtot 152.535124
 5163         oh    151    ccc     O9   5163 -0.58672000  16.000000   ; qtot 151.948404
 5164         ho    151    ccc    H28   5164 0.41908000   1.008000   ; qtot 152.367484
 5165         n3    151    ccc     N3   5165 -0.54282000  14.010000   ; qtot 151.824664
 5166         c3    151    ccc    C17   5166 0.08518000  12.010000   ; qtot 151.909844
 5167         c3    151    ccc    C18   5167 0.07918000  12.010000   ; qtot 151.989024
 5168         h1    151    ccc    H29   5168 0.06978000   1.008000   ; qtot 152.058804
 5169         c3    151    ccc    C19   5169 0.07918000  12.010000   ; qtot 152.137984
 5170         c3    151    ccc    C20   5170 0.03578000  12.010000   ; qtot 152.173764
 5171         c3    151    ccc    C21   5171 0.33498000  12.010000   ; qtot 152.508744
 5172         h1    151    ccc    H30   5172 0.06178000   1.008000   ; qtot 152.570524
 5173         h1    151    ccc    H31   5173 0.11278000   1.008000   ; qtot 152.683304
 5174         h2    151    ccc    H32   5174 0.12178000   1.008000   ; qtot 152.805084
 5175         oh    151    ccc    O10   5175 -0.56972000  16.000000   ; qtot 152.235364
 5176         oh    151    ccc    O11   5176 -0.57772000  16.000000   ; qtot 151.657644
 5177         c3    151    ccc    C22   5177 0.14548000  12.010000   ; qtot 151.803124
 5178         ho    151    ccc    H33   5178 0.40508000   1.008000   ; qtot 152.208204
 5179         hn    151    ccc    H34   5179 0.31758000   1.008000   ; qtot 152.525784
 5180         h1    151    ccc    H35   5180 0.06278000   1.008000   ; qtot 152.588564
 5181         h1    151    ccc    H36   5181 0.06278000   1.008000   ; qtot 152.651344
 5182         oh    151    ccc    O12   5182 -0.59472000  16.000000   ; qtot 152.056624
 5183         ho    151    ccc    H37   5183 0.41908000   1.008000   ; qtot 152.475704
 5184         os    151    ccc    O13   5184 -0.44552000  16.000000   ; qtot 152.030184
 5185         ho    151    ccc    H38   5185 0.41908000   1.008000   ; qtot 152.449264
 5186         h1    151    ccc    H39   5186 0.08578000   1.008000   ; qtot 152.535044
 5187         oh    151    ccc     O5   5187 -0.58672000  16.000000   ; qtot 151.948324
 5188         ho    151    ccc    H40   5188 0.41908000   1.008000   ; qtot 152.367404
 5189         n3    151    ccc     N4   5189 -0.54282000  14.010000   ; qtot 151.824584
 5190         hn    151    ccc    H41   5190 0.17125500   1.008000   ; qtot 151.995839
; residue  152 ccc rtp ccc q 1.0
 5191          n    152    ccc     N1   5191 -0.33303000  14.010000   ; qtot 151.662809
 5192         hn    152    ccc     H4   5192 0.25916100   1.008000   ; qtot 151.921970
 5193         c3    152    ccc     C3   5193 -0.03328100  12.010000   ; qtot 151.888689
 5194         h1    152    ccc     H5   5194 0.10618100   1.008000   ; qtot 151.994870
 5195         c3    152    ccc     C4   5195 -0.02083000  12.010000   ; qtot 151.974040
 5196         h1    152    ccc     H6   5196 0.10618100   1.008000   ; qtot 152.080221
 5197         h1    152    ccc     H7   5197 0.07988000   1.008000   ; qtot 152.160101
 5198         h1    152    ccc     H8   5198 0.07988000   1.008000   ; qtot 152.239981
 5199         n4    152    ccc     N2   5199 -0.02747900  14.010000   ; qtot 152.212502
 5200         c3    152    ccc     C5   5200 -0.05097600  12.010000   ; qtot 152.161526
 5201         c3    152    ccc     C6   5201 -0.05097600  12.010000   ; qtot 152.110550
 5202         h1    152    ccc     H9   5202 0.11563300   1.008000   ; qtot 152.226183
 5203         c3    152    ccc     C7   5203 -0.18457900  12.010000   ; qtot 152.041604
 5204         h1    152    ccc    H10   5204 0.11563300   1.008000   ; qtot 152.157237
 5205         hc    152    ccc    H11   5205 0.08347900   1.008000   ; qtot 152.240716
 5206         hc    152    ccc    H12   5206 0.08347900   1.008000   ; qtot 152.324195
 5207          c    152    ccc     C8   5207 0.67254400  12.010000   ; qtot 152.996739
 5208          o    152    ccc     O2   5208 -0.52917200  16.000000   ; qtot 152.467567
 5209         h1    152    ccc    H13   5209 0.11563300   1.008000   ; qtot 152.583200
 5210         h1    152    ccc    H14   5210 0.11563300   1.008000   ; qtot 152.698833
 5211         c3    152    ccc     C9   5211 -0.18457900  12.010000   ; qtot 152.514254
 5212         hc    152    ccc    H15   5212 0.08347900   1.008000   ; qtot 152.597733
 5213         hc    152    ccc    H16   5213 0.08347900   1.008000   ; qtot 152.681212
 5214          c    152    ccc    C10   5214 0.67254400  12.010000   ; qtot 153.353756
 5215          o    152    ccc     O4   5215 -0.52917200  16.000000   ; qtot 152.824584
 5216         c3    152    ccc    C11   5216 0.08518000  12.010000   ; qtot 152.909764
 5217         c3    152    ccc    C12   5217 0.07918000  12.010000   ; qtot 152.988944
 5218         h1    152    ccc    H17   5218 0.06978000   1.008000   ; qtot 153.058724
 5219         c3    152    ccc    C13   5219 0.07918000  12.010000   ; qtot 153.137904
 5220         c3    152    ccc    C14   5220 0.03578000  12.010000   ; qtot 153.173684
 5221         c3    152    ccc    C15   5221 0.33498000  12.010000   ; qtot 153.508664
 5222         h1    152    ccc    H18   5222 0.06178000   1.008000   ; qtot 153.570444
 5223         h1    152    ccc    H19   5223 0.11278000   1.008000   ; qtot 153.683224
 5224         h2    152    ccc    H20   5224 0.12178000   1.008000   ; qtot 153.805004
 5225         oh    152    ccc     O1   5225 -0.56972000  16.000000   ; qtot 153.235284
 5226         oh    152    ccc     O6   5226 -0.57772000  16.000000   ; qtot 152.657564
 5227         c3    152    ccc    C16   5227 0.14548000  12.010000   ; qtot 152.803044
 5228         ho    152    ccc    H21   5228 0.40508000   1.008000   ; qtot 153.208124
 5229         hn    152    ccc    H22   5229 0.31758000   1.008000   ; qtot 153.525704
 5230         h1    152    ccc    H23   5230 0.06278000   1.008000   ; qtot 153.588484
 5231         h1    152    ccc    H24   5231 0.06278000   1.008000   ; qtot 153.651264
 5232         oh    152    ccc     O7   5232 -0.59472000  16.000000   ; qtot 153.056544
 5233         ho    152    ccc    H25   5233 0.41908000   1.008000   ; qtot 153.475624
 5234         os    152    ccc     O8   5234 -0.44552000  16.000000   ; qtot 153.030104
 5235         ho    152    ccc    H26   5235 0.41908000   1.008000   ; qtot 153.449184
 5236         h1    152    ccc    H27   5236 0.08578000   1.008000   ; qtot 153.534964
 5237         oh    152    ccc     O9   5237 -0.58672000  16.000000   ; qtot 152.948244
 5238         ho    152    ccc    H28   5238 0.41908000   1.008000   ; qtot 153.367324
 5239         n3    152    ccc     N3   5239 -0.54282000  14.010000   ; qtot 152.824504
 5240         c3    152    ccc    C17   5240 0.08518000  12.010000   ; qtot 152.909684
 5241         c3    152    ccc    C18   5241 0.07918000  12.010000   ; qtot 152.988864
 5242         h1    152    ccc    H29   5242 0.06978000   1.008000   ; qtot 153.058644
 5243         c3    152    ccc    C19   5243 0.07918000  12.010000   ; qtot 153.137824
 5244         c3    152    ccc    C20   5244 0.03578000  12.010000   ; qtot 153.173604
 5245         c3    152    ccc    C21   5245 0.33498000  12.010000   ; qtot 153.508584
 5246         h1    152    ccc    H30   5246 0.06178000   1.008000   ; qtot 153.570364
 5247         h1    152    ccc    H31   5247 0.11278000   1.008000   ; qtot 153.683144
 5248         h2    152    ccc    H32   5248 0.12178000   1.008000   ; qtot 153.804924
 5249         oh    152    ccc    O10   5249 -0.56972000  16.000000   ; qtot 153.235204
 5250         oh    152    ccc    O11   5250 -0.57772000  16.000000   ; qtot 152.657484
 5251         c3    152    ccc    C22   5251 0.14548000  12.010000   ; qtot 152.802964
 5252         ho    152    ccc    H33   5252 0.40508000   1.008000   ; qtot 153.208044
 5253         hn    152    ccc    H34   5253 0.31758000   1.008000   ; qtot 153.525624
 5254         h1    152    ccc    H35   5254 0.06278000   1.008000   ; qtot 153.588404
 5255         h1    152    ccc    H36   5255 0.06278000   1.008000   ; qtot 153.651184
 5256         oh    152    ccc    O12   5256 -0.59472000  16.000000   ; qtot 153.056464
 5257         ho    152    ccc    H37   5257 0.41908000   1.008000   ; qtot 153.475544
 5258         os    152    ccc    O13   5258 -0.44552000  16.000000   ; qtot 153.030024
 5259         ho    152    ccc    H38   5259 0.41908000   1.008000   ; qtot 153.449104
 5260         h1    152    ccc    H39   5260 0.08578000   1.008000   ; qtot 153.534884
 5261         oh    152    ccc     O5   5261 -0.58672000  16.000000   ; qtot 152.948164
 5262         ho    152    ccc    H40   5262 0.41908000   1.008000   ; qtot 153.367244
 5263         n3    152    ccc     N4   5263 -0.54282000  14.010000   ; qtot 152.824424
 5264         hn    152    ccc    H41   5264 0.17125500   1.008000   ; qtot 152.995679
; residue  153 ccc rtp ccc q 1.0
 5265          n    153    ccc     N1   5265 -0.33303000  14.010000   ; qtot 152.662649
 5266         hn    153    ccc     H4   5266 0.25916100   1.008000   ; qtot 152.921810
 5267         c3    153    ccc     C3   5267 -0.03328100  12.010000   ; qtot 152.888529
 5268         h1    153    ccc     H5   5268 0.10618100   1.008000   ; qtot 152.994710
 5269         c3    153    ccc     C4   5269 -0.02083000  12.010000   ; qtot 152.973880
 5270         h1    153    ccc     H6   5270 0.10618100   1.008000   ; qtot 153.080061
 5271         h1    153    ccc     H7   5271 0.07988000   1.008000   ; qtot 153.159941
 5272         h1    153    ccc     H8   5272 0.07988000   1.008000   ; qtot 153.239821
 5273         n4    153    ccc     N2   5273 -0.02747900  14.010000   ; qtot 153.212342
 5274         c3    153    ccc     C5   5274 -0.05097600  12.010000   ; qtot 153.161366
 5275         c3    153    ccc     C6   5275 -0.05097600  12.010000   ; qtot 153.110390
 5276         h1    153    ccc     H9   5276 0.11563300   1.008000   ; qtot 153.226023
 5277         c3    153    ccc     C7   5277 -0.18457900  12.010000   ; qtot 153.041444
 5278         h1    153    ccc    H10   5278 0.11563300   1.008000   ; qtot 153.157077
 5279         hc    153    ccc    H11   5279 0.08347900   1.008000   ; qtot 153.240556
 5280         hc    153    ccc    H12   5280 0.08347900   1.008000   ; qtot 153.324035
 5281          c    153    ccc     C8   5281 0.67254400  12.010000   ; qtot 153.996579
 5282          o    153    ccc     O2   5282 -0.52917200  16.000000   ; qtot 153.467407
 5283         h1    153    ccc    H13   5283 0.11563300   1.008000   ; qtot 153.583040
 5284         h1    153    ccc    H14   5284 0.11563300   1.008000   ; qtot 153.698673
 5285         c3    153    ccc     C9   5285 -0.18457900  12.010000   ; qtot 153.514094
 5286         hc    153    ccc    H15   5286 0.08347900   1.008000   ; qtot 153.597573
 5287         hc    153    ccc    H16   5287 0.08347900   1.008000   ; qtot 153.681052
 5288          c    153    ccc    C10   5288 0.67254400  12.010000   ; qtot 154.353596
 5289          o    153    ccc     O4   5289 -0.52917200  16.000000   ; qtot 153.824424
 5290         c3    153    ccc    C11   5290 0.08518000  12.010000   ; qtot 153.909604
 5291         c3    153    ccc    C12   5291 0.07918000  12.010000   ; qtot 153.988784
 5292         h1    153    ccc    H17   5292 0.06978000   1.008000   ; qtot 154.058564
 5293         c3    153    ccc    C13   5293 0.07918000  12.010000   ; qtot 154.137744
 5294         c3    153    ccc    C14   5294 0.03578000  12.010000   ; qtot 154.173524
 5295         c3    153    ccc    C15   5295 0.33498000  12.010000   ; qtot 154.508504
 5296         h1    153    ccc    H18   5296 0.06178000   1.008000   ; qtot 154.570284
 5297         h1    153    ccc    H19   5297 0.11278000   1.008000   ; qtot 154.683064
 5298         h2    153    ccc    H20   5298 0.12178000   1.008000   ; qtot 154.804844
 5299         oh    153    ccc     O1   5299 -0.56972000  16.000000   ; qtot 154.235124
 5300         oh    153    ccc     O6   5300 -0.57772000  16.000000   ; qtot 153.657404
 5301         c3    153    ccc    C16   5301 0.14548000  12.010000   ; qtot 153.802884
 5302         ho    153    ccc    H21   5302 0.40508000   1.008000   ; qtot 154.207964
 5303         hn    153    ccc    H22   5303 0.31758000   1.008000   ; qtot 154.525544
 5304         h1    153    ccc    H23   5304 0.06278000   1.008000   ; qtot 154.588324
 5305         h1    153    ccc    H24   5305 0.06278000   1.008000   ; qtot 154.651104
 5306         oh    153    ccc     O7   5306 -0.59472000  16.000000   ; qtot 154.056384
 5307         ho    153    ccc    H25   5307 0.41908000   1.008000   ; qtot 154.475464
 5308         os    153    ccc     O8   5308 -0.44552000  16.000000   ; qtot 154.029944
 5309         ho    153    ccc    H26   5309 0.41908000   1.008000   ; qtot 154.449024
 5310         h1    153    ccc    H27   5310 0.08578000   1.008000   ; qtot 154.534804
 5311         oh    153    ccc     O9   5311 -0.58672000  16.000000   ; qtot 153.948084
 5312         ho    153    ccc    H28   5312 0.41908000   1.008000   ; qtot 154.367164
 5313         n3    153    ccc     N3   5313 -0.54282000  14.010000   ; qtot 153.824344
 5314         c3    153    ccc    C17   5314 0.08518000  12.010000   ; qtot 153.909524
 5315         c3    153    ccc    C18   5315 0.07918000  12.010000   ; qtot 153.988704
 5316         h1    153    ccc    H29   5316 0.06978000   1.008000   ; qtot 154.058484
 5317         c3    153    ccc    C19   5317 0.07918000  12.010000   ; qtot 154.137664
 5318         c3    153    ccc    C20   5318 0.03578000  12.010000   ; qtot 154.173444
 5319         c3    153    ccc    C21   5319 0.33498000  12.010000   ; qtot 154.508424
 5320         h1    153    ccc    H30   5320 0.06178000   1.008000   ; qtot 154.570204
 5321         h1    153    ccc    H31   5321 0.11278000   1.008000   ; qtot 154.682984
 5322         h2    153    ccc    H32   5322 0.12178000   1.008000   ; qtot 154.804764
 5323         oh    153    ccc    O10   5323 -0.56972000  16.000000   ; qtot 154.235044
 5324         oh    153    ccc    O11   5324 -0.57772000  16.000000   ; qtot 153.657324
 5325         c3    153    ccc    C22   5325 0.14548000  12.010000   ; qtot 153.802804
 5326         ho    153    ccc    H33   5326 0.40508000   1.008000   ; qtot 154.207884
 5327         hn    153    ccc    H34   5327 0.31758000   1.008000   ; qtot 154.525464
 5328         h1    153    ccc    H35   5328 0.06278000   1.008000   ; qtot 154.588244
 5329         h1    153    ccc    H36   5329 0.06278000   1.008000   ; qtot 154.651024
 5330         oh    153    ccc    O12   5330 -0.59472000  16.000000   ; qtot 154.056304
 5331         ho    153    ccc    H37   5331 0.41908000   1.008000   ; qtot 154.475384
 5332         os    153    ccc    O13   5332 -0.44552000  16.000000   ; qtot 154.029864
 5333         ho    153    ccc    H38   5333 0.41908000   1.008000   ; qtot 154.448944
 5334         h1    153    ccc    H39   5334 0.08578000   1.008000   ; qtot 154.534724
 5335         oh    153    ccc     O5   5335 -0.58672000  16.000000   ; qtot 153.948004
 5336         ho    153    ccc    H40   5336 0.41908000   1.008000   ; qtot 154.367084
 5337         n3    153    ccc     N4   5337 -0.54282000  14.010000   ; qtot 153.824264
 5338         hn    153    ccc    H41   5338 0.17125500   1.008000   ; qtot 153.995519
; residue  154 ccc rtp ccc q 1.0
 5339          n    154    ccc     N1   5339 -0.33303000  14.010000   ; qtot 153.662489
 5340         hn    154    ccc     H4   5340 0.25916100   1.008000   ; qtot 153.921650
 5341         c3    154    ccc     C3   5341 -0.03328100  12.010000   ; qtot 153.888369
 5342         h1    154    ccc     H5   5342 0.10618100   1.008000   ; qtot 153.994550
 5343         c3    154    ccc     C4   5343 -0.02083000  12.010000   ; qtot 153.973720
 5344         h1    154    ccc     H6   5344 0.10618100   1.008000   ; qtot 154.079901
 5345         h1    154    ccc     H7   5345 0.07988000   1.008000   ; qtot 154.159781
 5346         h1    154    ccc     H8   5346 0.07988000   1.008000   ; qtot 154.239661
 5347         n4    154    ccc     N2   5347 -0.02747900  14.010000   ; qtot 154.212182
 5348         c3    154    ccc     C5   5348 -0.05097600  12.010000   ; qtot 154.161206
 5349         c3    154    ccc     C6   5349 -0.05097600  12.010000   ; qtot 154.110230
 5350         h1    154    ccc     H9   5350 0.11563300   1.008000   ; qtot 154.225863
 5351         c3    154    ccc     C7   5351 -0.18457900  12.010000   ; qtot 154.041284
 5352         h1    154    ccc    H10   5352 0.11563300   1.008000   ; qtot 154.156917
 5353         hc    154    ccc    H11   5353 0.08347900   1.008000   ; qtot 154.240396
 5354         hc    154    ccc    H12   5354 0.08347900   1.008000   ; qtot 154.323875
 5355          c    154    ccc     C8   5355 0.67254400  12.010000   ; qtot 154.996419
 5356          o    154    ccc     O2   5356 -0.52917200  16.000000   ; qtot 154.467247
 5357         h1    154    ccc    H13   5357 0.11563300   1.008000   ; qtot 154.582880
 5358         h1    154    ccc    H14   5358 0.11563300   1.008000   ; qtot 154.698513
 5359         c3    154    ccc     C9   5359 -0.18457900  12.010000   ; qtot 154.513934
 5360         hc    154    ccc    H15   5360 0.08347900   1.008000   ; qtot 154.597413
 5361         hc    154    ccc    H16   5361 0.08347900   1.008000   ; qtot 154.680892
 5362          c    154    ccc    C10   5362 0.67254400  12.010000   ; qtot 155.353436
 5363          o    154    ccc     O4   5363 -0.52917200  16.000000   ; qtot 154.824264
 5364         c3    154    ccc    C11   5364 0.08518000  12.010000   ; qtot 154.909444
 5365         c3    154    ccc    C12   5365 0.07918000  12.010000   ; qtot 154.988624
 5366         h1    154    ccc    H17   5366 0.06978000   1.008000   ; qtot 155.058404
 5367         c3    154    ccc    C13   5367 0.07918000  12.010000   ; qtot 155.137584
 5368         c3    154    ccc    C14   5368 0.03578000  12.010000   ; qtot 155.173364
 5369         c3    154    ccc    C15   5369 0.33498000  12.010000   ; qtot 155.508344
 5370         h1    154    ccc    H18   5370 0.06178000   1.008000   ; qtot 155.570124
 5371         h1    154    ccc    H19   5371 0.11278000   1.008000   ; qtot 155.682904
 5372         h2    154    ccc    H20   5372 0.12178000   1.008000   ; qtot 155.804684
 5373         oh    154    ccc     O1   5373 -0.56972000  16.000000   ; qtot 155.234964
 5374         oh    154    ccc     O6   5374 -0.57772000  16.000000   ; qtot 154.657244
 5375         c3    154    ccc    C16   5375 0.14548000  12.010000   ; qtot 154.802724
 5376         ho    154    ccc    H21   5376 0.40508000   1.008000   ; qtot 155.207804
 5377         hn    154    ccc    H22   5377 0.31758000   1.008000   ; qtot 155.525384
 5378         h1    154    ccc    H23   5378 0.06278000   1.008000   ; qtot 155.588164
 5379         h1    154    ccc    H24   5379 0.06278000   1.008000   ; qtot 155.650944
 5380         oh    154    ccc     O7   5380 -0.59472000  16.000000   ; qtot 155.056224
 5381         ho    154    ccc    H25   5381 0.41908000   1.008000   ; qtot 155.475304
 5382         os    154    ccc     O8   5382 -0.44552000  16.000000   ; qtot 155.029784
 5383         ho    154    ccc    H26   5383 0.41908000   1.008000   ; qtot 155.448864
 5384         h1    154    ccc    H27   5384 0.08578000   1.008000   ; qtot 155.534644
 5385         oh    154    ccc     O9   5385 -0.58672000  16.000000   ; qtot 154.947924
 5386         ho    154    ccc    H28   5386 0.41908000   1.008000   ; qtot 155.367004
 5387         n3    154    ccc     N3   5387 -0.54282000  14.010000   ; qtot 154.824184
 5388         c3    154    ccc    C17   5388 0.08518000  12.010000   ; qtot 154.909364
 5389         c3    154    ccc    C18   5389 0.07918000  12.010000   ; qtot 154.988544
 5390         h1    154    ccc    H29   5390 0.06978000   1.008000   ; qtot 155.058324
 5391         c3    154    ccc    C19   5391 0.07918000  12.010000   ; qtot 155.137504
 5392         c3    154    ccc    C20   5392 0.03578000  12.010000   ; qtot 155.173284
 5393         c3    154    ccc    C21   5393 0.33498000  12.010000   ; qtot 155.508264
 5394         h1    154    ccc    H30   5394 0.06178000   1.008000   ; qtot 155.570044
 5395         h1    154    ccc    H31   5395 0.11278000   1.008000   ; qtot 155.682824
 5396         h2    154    ccc    H32   5396 0.12178000   1.008000   ; qtot 155.804604
 5397         oh    154    ccc    O10   5397 -0.56972000  16.000000   ; qtot 155.234884
 5398         oh    154    ccc    O11   5398 -0.57772000  16.000000   ; qtot 154.657164
 5399         c3    154    ccc    C22   5399 0.14548000  12.010000   ; qtot 154.802644
 5400         ho    154    ccc    H33   5400 0.40508000   1.008000   ; qtot 155.207724
 5401         hn    154    ccc    H34   5401 0.31758000   1.008000   ; qtot 155.525304
 5402         h1    154    ccc    H35   5402 0.06278000   1.008000   ; qtot 155.588084
 5403         h1    154    ccc    H36   5403 0.06278000   1.008000   ; qtot 155.650864
 5404         oh    154    ccc    O12   5404 -0.59472000  16.000000   ; qtot 155.056144
 5405         ho    154    ccc    H37   5405 0.41908000   1.008000   ; qtot 155.475224
 5406         os    154    ccc    O13   5406 -0.44552000  16.000000   ; qtot 155.029704
 5407         ho    154    ccc    H38   5407 0.41908000   1.008000   ; qtot 155.448784
 5408         h1    154    ccc    H39   5408 0.08578000   1.008000   ; qtot 155.534564
 5409         oh    154    ccc     O5   5409 -0.58672000  16.000000   ; qtot 154.947844
 5410         ho    154    ccc    H40   5410 0.41908000   1.008000   ; qtot 155.366924
 5411         n3    154    ccc     N4   5411 -0.54282000  14.010000   ; qtot 154.824104
 5412         hn    154    ccc    H41   5412 0.17125500   1.008000   ; qtot 154.995359
; residue  155 ccc rtp ccc q 1.0
 5413          n    155    ccc     N1   5413 -0.33303000  14.010000   ; qtot 154.662329
 5414         hn    155    ccc     H4   5414 0.25916100   1.008000   ; qtot 154.921490
 5415         c3    155    ccc     C3   5415 -0.03328100  12.010000   ; qtot 154.888209
 5416         h1    155    ccc     H5   5416 0.10618100   1.008000   ; qtot 154.994390
 5417         c3    155    ccc     C4   5417 -0.02083000  12.010000   ; qtot 154.973560
 5418         h1    155    ccc     H6   5418 0.10618100   1.008000   ; qtot 155.079741
 5419         h1    155    ccc     H7   5419 0.07988000   1.008000   ; qtot 155.159621
 5420         h1    155    ccc     H8   5420 0.07988000   1.008000   ; qtot 155.239501
 5421         n4    155    ccc     N2   5421 -0.02747900  14.010000   ; qtot 155.212022
 5422         c3    155    ccc     C5   5422 -0.05097600  12.010000   ; qtot 155.161046
 5423         c3    155    ccc     C6   5423 -0.05097600  12.010000   ; qtot 155.110070
 5424         h1    155    ccc     H9   5424 0.11563300   1.008000   ; qtot 155.225703
 5425         c3    155    ccc     C7   5425 -0.18457900  12.010000   ; qtot 155.041124
 5426         h1    155    ccc    H10   5426 0.11563300   1.008000   ; qtot 155.156757
 5427         hc    155    ccc    H11   5427 0.08347900   1.008000   ; qtot 155.240236
 5428         hc    155    ccc    H12   5428 0.08347900   1.008000   ; qtot 155.323715
 5429          c    155    ccc     C8   5429 0.67254400  12.010000   ; qtot 155.996259
 5430          o    155    ccc     O2   5430 -0.52917200  16.000000   ; qtot 155.467087
 5431         h1    155    ccc    H13   5431 0.11563300   1.008000   ; qtot 155.582720
 5432         h1    155    ccc    H14   5432 0.11563300   1.008000   ; qtot 155.698353
 5433         c3    155    ccc     C9   5433 -0.18457900  12.010000   ; qtot 155.513774
 5434         hc    155    ccc    H15   5434 0.08347900   1.008000   ; qtot 155.597253
 5435         hc    155    ccc    H16   5435 0.08347900   1.008000   ; qtot 155.680732
 5436          c    155    ccc    C10   5436 0.67254400  12.010000   ; qtot 156.353276
 5437          o    155    ccc     O4   5437 -0.52917200  16.000000   ; qtot 155.824104
 5438         c3    155    ccc    C11   5438 0.08518000  12.010000   ; qtot 155.909284
 5439         c3    155    ccc    C12   5439 0.07918000  12.010000   ; qtot 155.988464
 5440         h1    155    ccc    H17   5440 0.06978000   1.008000   ; qtot 156.058244
 5441         c3    155    ccc    C13   5441 0.07918000  12.010000   ; qtot 156.137424
 5442         c3    155    ccc    C14   5442 0.03578000  12.010000   ; qtot 156.173204
 5443         c3    155    ccc    C15   5443 0.33498000  12.010000   ; qtot 156.508184
 5444         h1    155    ccc    H18   5444 0.06178000   1.008000   ; qtot 156.569964
 5445         h1    155    ccc    H19   5445 0.11278000   1.008000   ; qtot 156.682744
 5446         h2    155    ccc    H20   5446 0.12178000   1.008000   ; qtot 156.804524
 5447         oh    155    ccc     O1   5447 -0.56972000  16.000000   ; qtot 156.234804
 5448         oh    155    ccc     O6   5448 -0.57772000  16.000000   ; qtot 155.657084
 5449         c3    155    ccc    C16   5449 0.14548000  12.010000   ; qtot 155.802564
 5450         ho    155    ccc    H21   5450 0.40508000   1.008000   ; qtot 156.207644
 5451         hn    155    ccc    H22   5451 0.31758000   1.008000   ; qtot 156.525224
 5452         h1    155    ccc    H23   5452 0.06278000   1.008000   ; qtot 156.588004
 5453         h1    155    ccc    H24   5453 0.06278000   1.008000   ; qtot 156.650784
 5454         oh    155    ccc     O7   5454 -0.59472000  16.000000   ; qtot 156.056064
 5455         ho    155    ccc    H25   5455 0.41908000   1.008000   ; qtot 156.475144
 5456         os    155    ccc     O8   5456 -0.44552000  16.000000   ; qtot 156.029624
 5457         ho    155    ccc    H26   5457 0.41908000   1.008000   ; qtot 156.448704
 5458         h1    155    ccc    H27   5458 0.08578000   1.008000   ; qtot 156.534484
 5459         oh    155    ccc     O9   5459 -0.58672000  16.000000   ; qtot 155.947764
 5460         ho    155    ccc    H28   5460 0.41908000   1.008000   ; qtot 156.366844
 5461         n3    155    ccc     N3   5461 -0.54282000  14.010000   ; qtot 155.824024
 5462         c3    155    ccc    C17   5462 0.08518000  12.010000   ; qtot 155.909204
 5463         c3    155    ccc    C18   5463 0.07918000  12.010000   ; qtot 155.988384
 5464         h1    155    ccc    H29   5464 0.06978000   1.008000   ; qtot 156.058164
 5465         c3    155    ccc    C19   5465 0.07918000  12.010000   ; qtot 156.137344
 5466         c3    155    ccc    C20   5466 0.03578000  12.010000   ; qtot 156.173124
 5467         c3    155    ccc    C21   5467 0.33498000  12.010000   ; qtot 156.508104
 5468         h1    155    ccc    H30   5468 0.06178000   1.008000   ; qtot 156.569884
 5469         h1    155    ccc    H31   5469 0.11278000   1.008000   ; qtot 156.682664
 5470         h2    155    ccc    H32   5470 0.12178000   1.008000   ; qtot 156.804444
 5471         oh    155    ccc    O10   5471 -0.56972000  16.000000   ; qtot 156.234724
 5472         oh    155    ccc    O11   5472 -0.57772000  16.000000   ; qtot 155.657004
 5473         c3    155    ccc    C22   5473 0.14548000  12.010000   ; qtot 155.802484
 5474         ho    155    ccc    H33   5474 0.40508000   1.008000   ; qtot 156.207564
 5475         hn    155    ccc    H34   5475 0.31758000   1.008000   ; qtot 156.525144
 5476         h1    155    ccc    H35   5476 0.06278000   1.008000   ; qtot 156.587924
 5477         h1    155    ccc    H36   5477 0.06278000   1.008000   ; qtot 156.650704
 5478         oh    155    ccc    O12   5478 -0.59472000  16.000000   ; qtot 156.055984
 5479         ho    155    ccc    H37   5479 0.41908000   1.008000   ; qtot 156.475064
 5480         os    155    ccc    O13   5480 -0.44552000  16.000000   ; qtot 156.029544
 5481         ho    155    ccc    H38   5481 0.41908000   1.008000   ; qtot 156.448624
 5482         h1    155    ccc    H39   5482 0.08578000   1.008000   ; qtot 156.534404
 5483         oh    155    ccc     O5   5483 -0.58672000  16.000000   ; qtot 155.947684
 5484         ho    155    ccc    H40   5484 0.41908000   1.008000   ; qtot 156.366764
 5485         n3    155    ccc     N4   5485 -0.54282000  14.010000   ; qtot 155.823944
 5486         hn    155    ccc    H41   5486 0.17125500   1.008000   ; qtot 155.995199
; residue  156 ccc rtp ccc q 1.0
 5487          n    156    ccc     N1   5487 -0.33303000  14.010000   ; qtot 155.662169
 5488         hn    156    ccc     H4   5488 0.25916100   1.008000   ; qtot 155.921330
 5489         c3    156    ccc     C3   5489 -0.03328100  12.010000   ; qtot 155.888049
 5490         h1    156    ccc     H5   5490 0.10618100   1.008000   ; qtot 155.994230
 5491         c3    156    ccc     C4   5491 -0.02083000  12.010000   ; qtot 155.973400
 5492         h1    156    ccc     H6   5492 0.10618100   1.008000   ; qtot 156.079581
 5493         h1    156    ccc     H7   5493 0.07988000   1.008000   ; qtot 156.159461
 5494         h1    156    ccc     H8   5494 0.07988000   1.008000   ; qtot 156.239341
 5495         n4    156    ccc     N2   5495 -0.02747900  14.010000   ; qtot 156.211862
 5496         c3    156    ccc     C5   5496 -0.05097600  12.010000   ; qtot 156.160886
 5497         c3    156    ccc     C6   5497 -0.05097600  12.010000   ; qtot 156.109910
 5498         h1    156    ccc     H9   5498 0.11563300   1.008000   ; qtot 156.225543
 5499         c3    156    ccc     C7   5499 -0.18457900  12.010000   ; qtot 156.040964
 5500         h1    156    ccc    H10   5500 0.11563300   1.008000   ; qtot 156.156597
 5501         hc    156    ccc    H11   5501 0.08347900   1.008000   ; qtot 156.240076
 5502         hc    156    ccc    H12   5502 0.08347900   1.008000   ; qtot 156.323555
 5503          c    156    ccc     C8   5503 0.67254400  12.010000   ; qtot 156.996099
 5504          o    156    ccc     O2   5504 -0.52917200  16.000000   ; qtot 156.466927
 5505         h1    156    ccc    H13   5505 0.11563300   1.008000   ; qtot 156.582560
 5506         h1    156    ccc    H14   5506 0.11563300   1.008000   ; qtot 156.698193
 5507         c3    156    ccc     C9   5507 -0.18457900  12.010000   ; qtot 156.513614
 5508         hc    156    ccc    H15   5508 0.08347900   1.008000   ; qtot 156.597093
 5509         hc    156    ccc    H16   5509 0.08347900   1.008000   ; qtot 156.680572
 5510          c    156    ccc    C10   5510 0.67254400  12.010000   ; qtot 157.353116
 5511          o    156    ccc     O4   5511 -0.52917200  16.000000   ; qtot 156.823944
 5512         c3    156    ccc    C11   5512 0.08518000  12.010000   ; qtot 156.909124
 5513         c3    156    ccc    C12   5513 0.07918000  12.010000   ; qtot 156.988304
 5514         h1    156    ccc    H17   5514 0.06978000   1.008000   ; qtot 157.058084
 5515         c3    156    ccc    C13   5515 0.07918000  12.010000   ; qtot 157.137264
 5516         c3    156    ccc    C14   5516 0.03578000  12.010000   ; qtot 157.173044
 5517         c3    156    ccc    C15   5517 0.33498000  12.010000   ; qtot 157.508024
 5518         h1    156    ccc    H18   5518 0.06178000   1.008000   ; qtot 157.569804
 5519         h1    156    ccc    H19   5519 0.11278000   1.008000   ; qtot 157.682584
 5520         h2    156    ccc    H20   5520 0.12178000   1.008000   ; qtot 157.804364
 5521         oh    156    ccc     O1   5521 -0.56972000  16.000000   ; qtot 157.234644
 5522         oh    156    ccc     O6   5522 -0.57772000  16.000000   ; qtot 156.656924
 5523         c3    156    ccc    C16   5523 0.14548000  12.010000   ; qtot 156.802404
 5524         ho    156    ccc    H21   5524 0.40508000   1.008000   ; qtot 157.207484
 5525         hn    156    ccc    H22   5525 0.31758000   1.008000   ; qtot 157.525064
 5526         h1    156    ccc    H23   5526 0.06278000   1.008000   ; qtot 157.587844
 5527         h1    156    ccc    H24   5527 0.06278000   1.008000   ; qtot 157.650624
 5528         oh    156    ccc     O7   5528 -0.59472000  16.000000   ; qtot 157.055904
 5529         ho    156    ccc    H25   5529 0.41908000   1.008000   ; qtot 157.474984
 5530         os    156    ccc     O8   5530 -0.44552000  16.000000   ; qtot 157.029464
 5531         ho    156    ccc    H26   5531 0.41908000   1.008000   ; qtot 157.448544
 5532         h1    156    ccc    H27   5532 0.08578000   1.008000   ; qtot 157.534324
 5533         oh    156    ccc     O9   5533 -0.58672000  16.000000   ; qtot 156.947604
 5534         ho    156    ccc    H28   5534 0.41908000   1.008000   ; qtot 157.366684
 5535         n3    156    ccc     N3   5535 -0.54282000  14.010000   ; qtot 156.823864
 5536         c3    156    ccc    C17   5536 0.08518000  12.010000   ; qtot 156.909044
 5537         c3    156    ccc    C18   5537 0.07918000  12.010000   ; qtot 156.988224
 5538         h1    156    ccc    H29   5538 0.06978000   1.008000   ; qtot 157.058004
 5539         c3    156    ccc    C19   5539 0.07918000  12.010000   ; qtot 157.137184
 5540         c3    156    ccc    C20   5540 0.03578000  12.010000   ; qtot 157.172964
 5541         c3    156    ccc    C21   5541 0.33498000  12.010000   ; qtot 157.507944
 5542         h1    156    ccc    H30   5542 0.06178000   1.008000   ; qtot 157.569724
 5543         h1    156    ccc    H31   5543 0.11278000   1.008000   ; qtot 157.682504
 5544         h2    156    ccc    H32   5544 0.12178000   1.008000   ; qtot 157.804284
 5545         oh    156    ccc    O10   5545 -0.56972000  16.000000   ; qtot 157.234564
 5546         oh    156    ccc    O11   5546 -0.57772000  16.000000   ; qtot 156.656844
 5547         c3    156    ccc    C22   5547 0.14548000  12.010000   ; qtot 156.802324
 5548         ho    156    ccc    H33   5548 0.40508000   1.008000   ; qtot 157.207404
 5549         hn    156    ccc    H34   5549 0.31758000   1.008000   ; qtot 157.524984
 5550         h1    156    ccc    H35   5550 0.06278000   1.008000   ; qtot 157.587764
 5551         h1    156    ccc    H36   5551 0.06278000   1.008000   ; qtot 157.650544
 5552         oh    156    ccc    O12   5552 -0.59472000  16.000000   ; qtot 157.055824
 5553         ho    156    ccc    H37   5553 0.41908000   1.008000   ; qtot 157.474904
 5554         os    156    ccc    O13   5554 -0.44552000  16.000000   ; qtot 157.029384
 5555         ho    156    ccc    H38   5555 0.41908000   1.008000   ; qtot 157.448464
 5556         h1    156    ccc    H39   5556 0.08578000   1.008000   ; qtot 157.534244
 5557         oh    156    ccc     O5   5557 -0.58672000  16.000000   ; qtot 156.947524
 5558         ho    156    ccc    H40   5558 0.41908000   1.008000   ; qtot 157.366604
 5559         n3    156    ccc     N4   5559 -0.54282000  14.010000   ; qtot 156.823784
 5560         hn    156    ccc    H41   5560 0.17125500   1.008000   ; qtot 156.995039
; residue  157 ccc rtp ccc q 1.0
 5561          n    157    ccc     N1   5561 -0.33303000  14.010000   ; qtot 156.662009
 5562         hn    157    ccc     H4   5562 0.25916100   1.008000   ; qtot 156.921170
 5563         c3    157    ccc     C3   5563 -0.03328100  12.010000   ; qtot 156.887889
 5564         h1    157    ccc     H5   5564 0.10618100   1.008000   ; qtot 156.994070
 5565         c3    157    ccc     C4   5565 -0.02083000  12.010000   ; qtot 156.973240
 5566         h1    157    ccc     H6   5566 0.10618100   1.008000   ; qtot 157.079421
 5567         h1    157    ccc     H7   5567 0.07988000   1.008000   ; qtot 157.159301
 5568         h1    157    ccc     H8   5568 0.07988000   1.008000   ; qtot 157.239181
 5569         n4    157    ccc     N2   5569 -0.02747900  14.010000   ; qtot 157.211702
 5570         c3    157    ccc     C5   5570 -0.05097600  12.010000   ; qtot 157.160726
 5571         c3    157    ccc     C6   5571 -0.05097600  12.010000   ; qtot 157.109750
 5572         h1    157    ccc     H9   5572 0.11563300   1.008000   ; qtot 157.225383
 5573         c3    157    ccc     C7   5573 -0.18457900  12.010000   ; qtot 157.040804
 5574         h1    157    ccc    H10   5574 0.11563300   1.008000   ; qtot 157.156437
 5575         hc    157    ccc    H11   5575 0.08347900   1.008000   ; qtot 157.239916
 5576         hc    157    ccc    H12   5576 0.08347900   1.008000   ; qtot 157.323395
 5577          c    157    ccc     C8   5577 0.67254400  12.010000   ; qtot 157.995939
 5578          o    157    ccc     O2   5578 -0.52917200  16.000000   ; qtot 157.466767
 5579         h1    157    ccc    H13   5579 0.11563300   1.008000   ; qtot 157.582400
 5580         h1    157    ccc    H14   5580 0.11563300   1.008000   ; qtot 157.698033
 5581         c3    157    ccc     C9   5581 -0.18457900  12.010000   ; qtot 157.513454
 5582         hc    157    ccc    H15   5582 0.08347900   1.008000   ; qtot 157.596933
 5583         hc    157    ccc    H16   5583 0.08347900   1.008000   ; qtot 157.680412
 5584          c    157    ccc    C10   5584 0.67254400  12.010000   ; qtot 158.352956
 5585          o    157    ccc     O4   5585 -0.52917200  16.000000   ; qtot 157.823784
 5586         c3    157    ccc    C11   5586 0.08518000  12.010000   ; qtot 157.908964
 5587         c3    157    ccc    C12   5587 0.07918000  12.010000   ; qtot 157.988144
 5588         h1    157    ccc    H17   5588 0.06978000   1.008000   ; qtot 158.057924
 5589         c3    157    ccc    C13   5589 0.07918000  12.010000   ; qtot 158.137104
 5590         c3    157    ccc    C14   5590 0.03578000  12.010000   ; qtot 158.172884
 5591         c3    157    ccc    C15   5591 0.33498000  12.010000   ; qtot 158.507864
 5592         h1    157    ccc    H18   5592 0.06178000   1.008000   ; qtot 158.569644
 5593         h1    157    ccc    H19   5593 0.11278000   1.008000   ; qtot 158.682424
 5594         h2    157    ccc    H20   5594 0.12178000   1.008000   ; qtot 158.804204
 5595         oh    157    ccc     O1   5595 -0.56972000  16.000000   ; qtot 158.234484
 5596         oh    157    ccc     O6   5596 -0.57772000  16.000000   ; qtot 157.656764
 5597         c3    157    ccc    C16   5597 0.14548000  12.010000   ; qtot 157.802244
 5598         ho    157    ccc    H21   5598 0.40508000   1.008000   ; qtot 158.207324
 5599         hn    157    ccc    H22   5599 0.31758000   1.008000   ; qtot 158.524904
 5600         h1    157    ccc    H23   5600 0.06278000   1.008000   ; qtot 158.587684
 5601         h1    157    ccc    H24   5601 0.06278000   1.008000   ; qtot 158.650464
 5602         oh    157    ccc     O7   5602 -0.59472000  16.000000   ; qtot 158.055744
 5603         ho    157    ccc    H25   5603 0.41908000   1.008000   ; qtot 158.474824
 5604         os    157    ccc     O8   5604 -0.44552000  16.000000   ; qtot 158.029304
 5605         ho    157    ccc    H26   5605 0.41908000   1.008000   ; qtot 158.448384
 5606         h1    157    ccc    H27   5606 0.08578000   1.008000   ; qtot 158.534164
 5607         oh    157    ccc     O9   5607 -0.58672000  16.000000   ; qtot 157.947444
 5608         ho    157    ccc    H28   5608 0.41908000   1.008000   ; qtot 158.366524
 5609         n3    157    ccc     N3   5609 -0.54282000  14.010000   ; qtot 157.823704
 5610         c3    157    ccc    C17   5610 0.08518000  12.010000   ; qtot 157.908884
 5611         c3    157    ccc    C18   5611 0.07918000  12.010000   ; qtot 157.988064
 5612         h1    157    ccc    H29   5612 0.06978000   1.008000   ; qtot 158.057844
 5613         c3    157    ccc    C19   5613 0.07918000  12.010000   ; qtot 158.137024
 5614         c3    157    ccc    C20   5614 0.03578000  12.010000   ; qtot 158.172804
 5615         c3    157    ccc    C21   5615 0.33498000  12.010000   ; qtot 158.507784
 5616         h1    157    ccc    H30   5616 0.06178000   1.008000   ; qtot 158.569564
 5617         h1    157    ccc    H31   5617 0.11278000   1.008000   ; qtot 158.682344
 5618         h2    157    ccc    H32   5618 0.12178000   1.008000   ; qtot 158.804124
 5619         oh    157    ccc    O10   5619 -0.56972000  16.000000   ; qtot 158.234404
 5620         oh    157    ccc    O11   5620 -0.57772000  16.000000   ; qtot 157.656684
 5621         c3    157    ccc    C22   5621 0.14548000  12.010000   ; qtot 157.802164
 5622         ho    157    ccc    H33   5622 0.40508000   1.008000   ; qtot 158.207244
 5623         hn    157    ccc    H34   5623 0.31758000   1.008000   ; qtot 158.524824
 5624         h1    157    ccc    H35   5624 0.06278000   1.008000   ; qtot 158.587604
 5625         h1    157    ccc    H36   5625 0.06278000   1.008000   ; qtot 158.650384
 5626         oh    157    ccc    O12   5626 -0.59472000  16.000000   ; qtot 158.055664
 5627         ho    157    ccc    H37   5627 0.41908000   1.008000   ; qtot 158.474744
 5628         os    157    ccc    O13   5628 -0.44552000  16.000000   ; qtot 158.029224
 5629         ho    157    ccc    H38   5629 0.41908000   1.008000   ; qtot 158.448304
 5630         h1    157    ccc    H39   5630 0.08578000   1.008000   ; qtot 158.534084
 5631         oh    157    ccc     O5   5631 -0.58672000  16.000000   ; qtot 157.947364
 5632         ho    157    ccc    H40   5632 0.41908000   1.008000   ; qtot 158.366444
 5633         n3    157    ccc     N4   5633 -0.54282000  14.010000   ; qtot 157.823624
 5634         hn    157    ccc    H41   5634 0.17125500   1.008000   ; qtot 157.994879
; residue  158 ccc rtp ccc q 1.0
 5635          n    158    ccc     N1   5635 -0.33303000  14.010000   ; qtot 157.661849
 5636         hn    158    ccc     H4   5636 0.25916100   1.008000   ; qtot 157.921010
 5637         c3    158    ccc     C3   5637 -0.03328100  12.010000   ; qtot 157.887729
 5638         h1    158    ccc     H5   5638 0.10618100   1.008000   ; qtot 157.993910
 5639         c3    158    ccc     C4   5639 -0.02083000  12.010000   ; qtot 157.973080
 5640         h1    158    ccc     H6   5640 0.10618100   1.008000   ; qtot 158.079261
 5641         h1    158    ccc     H7   5641 0.07988000   1.008000   ; qtot 158.159141
 5642         h1    158    ccc     H8   5642 0.07988000   1.008000   ; qtot 158.239021
 5643         n4    158    ccc     N2   5643 -0.02747900  14.010000   ; qtot 158.211542
 5644         c3    158    ccc     C5   5644 -0.05097600  12.010000   ; qtot 158.160566
 5645         c3    158    ccc     C6   5645 -0.05097600  12.010000   ; qtot 158.109590
 5646         h1    158    ccc     H9   5646 0.11563300   1.008000   ; qtot 158.225223
 5647         c3    158    ccc     C7   5647 -0.18457900  12.010000   ; qtot 158.040644
 5648         h1    158    ccc    H10   5648 0.11563300   1.008000   ; qtot 158.156277
 5649         hc    158    ccc    H11   5649 0.08347900   1.008000   ; qtot 158.239756
 5650         hc    158    ccc    H12   5650 0.08347900   1.008000   ; qtot 158.323235
 5651          c    158    ccc     C8   5651 0.67254400  12.010000   ; qtot 158.995779
 5652          o    158    ccc     O2   5652 -0.52917200  16.000000   ; qtot 158.466607
 5653         h1    158    ccc    H13   5653 0.11563300   1.008000   ; qtot 158.582240
 5654         h1    158    ccc    H14   5654 0.11563300   1.008000   ; qtot 158.697873
 5655         c3    158    ccc     C9   5655 -0.18457900  12.010000   ; qtot 158.513294
 5656         hc    158    ccc    H15   5656 0.08347900   1.008000   ; qtot 158.596773
 5657         hc    158    ccc    H16   5657 0.08347900   1.008000   ; qtot 158.680252
 5658          c    158    ccc    C10   5658 0.67254400  12.010000   ; qtot 159.352796
 5659          o    158    ccc     O4   5659 -0.52917200  16.000000   ; qtot 158.823624
 5660         c3    158    ccc    C11   5660 0.08518000  12.010000   ; qtot 158.908804
 5661         c3    158    ccc    C12   5661 0.07918000  12.010000   ; qtot 158.987984
 5662         h1    158    ccc    H17   5662 0.06978000   1.008000   ; qtot 159.057764
 5663         c3    158    ccc    C13   5663 0.07918000  12.010000   ; qtot 159.136944
 5664         c3    158    ccc    C14   5664 0.03578000  12.010000   ; qtot 159.172724
 5665         c3    158    ccc    C15   5665 0.33498000  12.010000   ; qtot 159.507704
 5666         h1    158    ccc    H18   5666 0.06178000   1.008000   ; qtot 159.569484
 5667         h1    158    ccc    H19   5667 0.11278000   1.008000   ; qtot 159.682264
 5668         h2    158    ccc    H20   5668 0.12178000   1.008000   ; qtot 159.804044
 5669         oh    158    ccc     O1   5669 -0.56972000  16.000000   ; qtot 159.234324
 5670         oh    158    ccc     O6   5670 -0.57772000  16.000000   ; qtot 158.656604
 5671         c3    158    ccc    C16   5671 0.14548000  12.010000   ; qtot 158.802084
 5672         ho    158    ccc    H21   5672 0.40508000   1.008000   ; qtot 159.207164
 5673         hn    158    ccc    H22   5673 0.31758000   1.008000   ; qtot 159.524744
 5674         h1    158    ccc    H23   5674 0.06278000   1.008000   ; qtot 159.587524
 5675         h1    158    ccc    H24   5675 0.06278000   1.008000   ; qtot 159.650304
 5676         oh    158    ccc     O7   5676 -0.59472000  16.000000   ; qtot 159.055584
 5677         ho    158    ccc    H25   5677 0.41908000   1.008000   ; qtot 159.474664
 5678         os    158    ccc     O8   5678 -0.44552000  16.000000   ; qtot 159.029144
 5679         ho    158    ccc    H26   5679 0.41908000   1.008000   ; qtot 159.448224
 5680         h1    158    ccc    H27   5680 0.08578000   1.008000   ; qtot 159.534004
 5681         oh    158    ccc     O9   5681 -0.58672000  16.000000   ; qtot 158.947284
 5682         ho    158    ccc    H28   5682 0.41908000   1.008000   ; qtot 159.366364
 5683         n3    158    ccc     N3   5683 -0.54282000  14.010000   ; qtot 158.823544
 5684         c3    158    ccc    C17   5684 0.08518000  12.010000   ; qtot 158.908724
 5685         c3    158    ccc    C18   5685 0.07918000  12.010000   ; qtot 158.987904
 5686         h1    158    ccc    H29   5686 0.06978000   1.008000   ; qtot 159.057684
 5687         c3    158    ccc    C19   5687 0.07918000  12.010000   ; qtot 159.136864
 5688         c3    158    ccc    C20   5688 0.03578000  12.010000   ; qtot 159.172644
 5689         c3    158    ccc    C21   5689 0.33498000  12.010000   ; qtot 159.507624
 5690         h1    158    ccc    H30   5690 0.06178000   1.008000   ; qtot 159.569404
 5691         h1    158    ccc    H31   5691 0.11278000   1.008000   ; qtot 159.682184
 5692         h2    158    ccc    H32   5692 0.12178000   1.008000   ; qtot 159.803964
 5693         oh    158    ccc    O10   5693 -0.56972000  16.000000   ; qtot 159.234244
 5694         oh    158    ccc    O11   5694 -0.57772000  16.000000   ; qtot 158.656524
 5695         c3    158    ccc    C22   5695 0.14548000  12.010000   ; qtot 158.802004
 5696         ho    158    ccc    H33   5696 0.40508000   1.008000   ; qtot 159.207084
 5697         hn    158    ccc    H34   5697 0.31758000   1.008000   ; qtot 159.524664
 5698         h1    158    ccc    H35   5698 0.06278000   1.008000   ; qtot 159.587444
 5699         h1    158    ccc    H36   5699 0.06278000   1.008000   ; qtot 159.650224
 5700         oh    158    ccc    O12   5700 -0.59472000  16.000000   ; qtot 159.055504
 5701         ho    158    ccc    H37   5701 0.41908000   1.008000   ; qtot 159.474584
 5702         os    158    ccc    O13   5702 -0.44552000  16.000000   ; qtot 159.029064
 5703         ho    158    ccc    H38   5703 0.41908000   1.008000   ; qtot 159.448144
 5704         h1    158    ccc    H39   5704 0.08578000   1.008000   ; qtot 159.533924
 5705         oh    158    ccc     O5   5705 -0.58672000  16.000000   ; qtot 158.947204
 5706         ho    158    ccc    H40   5706 0.41908000   1.008000   ; qtot 159.366284
 5707         n3    158    ccc     N4   5707 -0.54282000  14.010000   ; qtot 158.823464
 5708         hn    158    ccc    H41   5708 0.17125500   1.008000   ; qtot 158.994719
; residue  159 ccc rtp ccc q 1.0
 5709          n    159    ccc     N1   5709 -0.33303000  14.010000   ; qtot 158.661689
 5710         hn    159    ccc     H4   5710 0.25916100   1.008000   ; qtot 158.920850
 5711         c3    159    ccc     C3   5711 -0.03328100  12.010000   ; qtot 158.887569
 5712         h1    159    ccc     H5   5712 0.10618100   1.008000   ; qtot 158.993750
 5713         c3    159    ccc     C4   5713 -0.02083000  12.010000   ; qtot 158.972920
 5714         h1    159    ccc     H6   5714 0.10618100   1.008000   ; qtot 159.079101
 5715         h1    159    ccc     H7   5715 0.07988000   1.008000   ; qtot 159.158981
 5716         h1    159    ccc     H8   5716 0.07988000   1.008000   ; qtot 159.238861
 5717         n4    159    ccc     N2   5717 -0.02747900  14.010000   ; qtot 159.211382
 5718         c3    159    ccc     C5   5718 -0.05097600  12.010000   ; qtot 159.160406
 5719         c3    159    ccc     C6   5719 -0.05097600  12.010000   ; qtot 159.109430
 5720         h1    159    ccc     H9   5720 0.11563300   1.008000   ; qtot 159.225063
 5721         c3    159    ccc     C7   5721 -0.18457900  12.010000   ; qtot 159.040484
 5722         h1    159    ccc    H10   5722 0.11563300   1.008000   ; qtot 159.156117
 5723         hc    159    ccc    H11   5723 0.08347900   1.008000   ; qtot 159.239596
 5724         hc    159    ccc    H12   5724 0.08347900   1.008000   ; qtot 159.323075
 5725          c    159    ccc     C8   5725 0.67254400  12.010000   ; qtot 159.995619
 5726          o    159    ccc     O2   5726 -0.52917200  16.000000   ; qtot 159.466447
 5727         h1    159    ccc    H13   5727 0.11563300   1.008000   ; qtot 159.582080
 5728         h1    159    ccc    H14   5728 0.11563300   1.008000   ; qtot 159.697713
 5729         c3    159    ccc     C9   5729 -0.18457900  12.010000   ; qtot 159.513134
 5730         hc    159    ccc    H15   5730 0.08347900   1.008000   ; qtot 159.596613
 5731         hc    159    ccc    H16   5731 0.08347900   1.008000   ; qtot 159.680092
 5732          c    159    ccc    C10   5732 0.67254400  12.010000   ; qtot 160.352636
 5733          o    159    ccc     O4   5733 -0.52917200  16.000000   ; qtot 159.823464
 5734         c3    159    ccc    C11   5734 0.08518000  12.010000   ; qtot 159.908644
 5735         c3    159    ccc    C12   5735 0.07918000  12.010000   ; qtot 159.987824
 5736         h1    159    ccc    H17   5736 0.06978000   1.008000   ; qtot 160.057604
 5737         c3    159    ccc    C13   5737 0.07918000  12.010000   ; qtot 160.136784
 5738         c3    159    ccc    C14   5738 0.03578000  12.010000   ; qtot 160.172564
 5739         c3    159    ccc    C15   5739 0.33498000  12.010000   ; qtot 160.507544
 5740         h1    159    ccc    H18   5740 0.06178000   1.008000   ; qtot 160.569324
 5741         h1    159    ccc    H19   5741 0.11278000   1.008000   ; qtot 160.682104
 5742         h2    159    ccc    H20   5742 0.12178000   1.008000   ; qtot 160.803884
 5743         oh    159    ccc     O1   5743 -0.56972000  16.000000   ; qtot 160.234164
 5744         oh    159    ccc     O6   5744 -0.57772000  16.000000   ; qtot 159.656444
 5745         c3    159    ccc    C16   5745 0.14548000  12.010000   ; qtot 159.801924
 5746         ho    159    ccc    H21   5746 0.40508000   1.008000   ; qtot 160.207004
 5747         hn    159    ccc    H22   5747 0.31758000   1.008000   ; qtot 160.524584
 5748         h1    159    ccc    H23   5748 0.06278000   1.008000   ; qtot 160.587364
 5749         h1    159    ccc    H24   5749 0.06278000   1.008000   ; qtot 160.650144
 5750         oh    159    ccc     O7   5750 -0.59472000  16.000000   ; qtot 160.055424
 5751         ho    159    ccc    H25   5751 0.41908000   1.008000   ; qtot 160.474504
 5752         os    159    ccc     O8   5752 -0.44552000  16.000000   ; qtot 160.028984
 5753         ho    159    ccc    H26   5753 0.41908000   1.008000   ; qtot 160.448064
 5754         h1    159    ccc    H27   5754 0.08578000   1.008000   ; qtot 160.533844
 5755         oh    159    ccc     O9   5755 -0.58672000  16.000000   ; qtot 159.947124
 5756         ho    159    ccc    H28   5756 0.41908000   1.008000   ; qtot 160.366204
 5757         n3    159    ccc     N3   5757 -0.54282000  14.010000   ; qtot 159.823384
 5758         c3    159    ccc    C17   5758 0.08518000  12.010000   ; qtot 159.908564
 5759         c3    159    ccc    C18   5759 0.07918000  12.010000   ; qtot 159.987744
 5760         h1    159    ccc    H29   5760 0.06978000   1.008000   ; qtot 160.057524
 5761         c3    159    ccc    C19   5761 0.07918000  12.010000   ; qtot 160.136704
 5762         c3    159    ccc    C20   5762 0.03578000  12.010000   ; qtot 160.172484
 5763         c3    159    ccc    C21   5763 0.33498000  12.010000   ; qtot 160.507464
 5764         h1    159    ccc    H30   5764 0.06178000   1.008000   ; qtot 160.569244
 5765         h1    159    ccc    H31   5765 0.11278000   1.008000   ; qtot 160.682024
 5766         h2    159    ccc    H32   5766 0.12178000   1.008000   ; qtot 160.803804
 5767         oh    159    ccc    O10   5767 -0.56972000  16.000000   ; qtot 160.234084
 5768         oh    159    ccc    O11   5768 -0.57772000  16.000000   ; qtot 159.656364
 5769         c3    159    ccc    C22   5769 0.14548000  12.010000   ; qtot 159.801844
 5770         ho    159    ccc    H33   5770 0.40508000   1.008000   ; qtot 160.206924
 5771         hn    159    ccc    H34   5771 0.31758000   1.008000   ; qtot 160.524504
 5772         h1    159    ccc    H35   5772 0.06278000   1.008000   ; qtot 160.587284
 5773         h1    159    ccc    H36   5773 0.06278000   1.008000   ; qtot 160.650064
 5774         oh    159    ccc    O12   5774 -0.59472000  16.000000   ; qtot 160.055344
 5775         ho    159    ccc    H37   5775 0.41908000   1.008000   ; qtot 160.474424
 5776         os    159    ccc    O13   5776 -0.44552000  16.000000   ; qtot 160.028904
 5777         ho    159    ccc    H38   5777 0.41908000   1.008000   ; qtot 160.447984
 5778         h1    159    ccc    H39   5778 0.08578000   1.008000   ; qtot 160.533764
 5779         oh    159    ccc     O5   5779 -0.58672000  16.000000   ; qtot 159.947044
 5780         ho    159    ccc    H40   5780 0.41908000   1.008000   ; qtot 160.366124
 5781         n3    159    ccc     N4   5781 -0.54282000  14.010000   ; qtot 159.823304
 5782         hn    159    ccc    H41   5782 0.17125500   1.008000   ; qtot 159.994559
; residue  160 ccc rtp ccc q 1.0
 5783          n    160    ccc     N1   5783 -0.33303000  14.010000   ; qtot 159.661529
 5784         hn    160    ccc     H4   5784 0.25916100   1.008000   ; qtot 159.920690
 5785         c3    160    ccc     C3   5785 -0.03328100  12.010000   ; qtot 159.887409
 5786         h1    160    ccc     H5   5786 0.10618100   1.008000   ; qtot 159.993590
 5787         c3    160    ccc     C4   5787 -0.02083000  12.010000   ; qtot 159.972760
 5788         h1    160    ccc     H6   5788 0.10618100   1.008000   ; qtot 160.078941
 5789         h1    160    ccc     H7   5789 0.07988000   1.008000   ; qtot 160.158821
 5790         h1    160    ccc     H8   5790 0.07988000   1.008000   ; qtot 160.238701
 5791         n4    160    ccc     N2   5791 -0.02747900  14.010000   ; qtot 160.211222
 5792         c3    160    ccc     C5   5792 -0.05097600  12.010000   ; qtot 160.160246
 5793         c3    160    ccc     C6   5793 -0.05097600  12.010000   ; qtot 160.109270
 5794         h1    160    ccc     H9   5794 0.11563300   1.008000   ; qtot 160.224903
 5795         c3    160    ccc     C7   5795 -0.18457900  12.010000   ; qtot 160.040324
 5796         h1    160    ccc    H10   5796 0.11563300   1.008000   ; qtot 160.155957
 5797         hc    160    ccc    H11   5797 0.08347900   1.008000   ; qtot 160.239436
 5798         hc    160    ccc    H12   5798 0.08347900   1.008000   ; qtot 160.322915
 5799          c    160    ccc     C8   5799 0.67254400  12.010000   ; qtot 160.995459
 5800          o    160    ccc     O2   5800 -0.52917200  16.000000   ; qtot 160.466287
 5801         h1    160    ccc    H13   5801 0.11563300   1.008000   ; qtot 160.581920
 5802         h1    160    ccc    H14   5802 0.11563300   1.008000   ; qtot 160.697553
 5803         c3    160    ccc     C9   5803 -0.18457900  12.010000   ; qtot 160.512974
 5804         hc    160    ccc    H15   5804 0.08347900   1.008000   ; qtot 160.596453
 5805         hc    160    ccc    H16   5805 0.08347900   1.008000   ; qtot 160.679932
 5806          c    160    ccc    C10   5806 0.67254400  12.010000   ; qtot 161.352476
 5807          o    160    ccc     O4   5807 -0.52917200  16.000000   ; qtot 160.823304
 5808         c3    160    ccc    C11   5808 0.08518000  12.010000   ; qtot 160.908484
 5809         c3    160    ccc    C12   5809 0.07918000  12.010000   ; qtot 160.987664
 5810         h1    160    ccc    H17   5810 0.06978000   1.008000   ; qtot 161.057444
 5811         c3    160    ccc    C13   5811 0.07918000  12.010000   ; qtot 161.136624
 5812         c3    160    ccc    C14   5812 0.03578000  12.010000   ; qtot 161.172404
 5813         c3    160    ccc    C15   5813 0.33498000  12.010000   ; qtot 161.507384
 5814         h1    160    ccc    H18   5814 0.06178000   1.008000   ; qtot 161.569164
 5815         h1    160    ccc    H19   5815 0.11278000   1.008000   ; qtot 161.681944
 5816         h2    160    ccc    H20   5816 0.12178000   1.008000   ; qtot 161.803724
 5817         oh    160    ccc     O1   5817 -0.56972000  16.000000   ; qtot 161.234004
 5818         oh    160    ccc     O6   5818 -0.57772000  16.000000   ; qtot 160.656284
 5819         c3    160    ccc    C16   5819 0.14548000  12.010000   ; qtot 160.801764
 5820         ho    160    ccc    H21   5820 0.40508000   1.008000   ; qtot 161.206844
 5821         hn    160    ccc    H22   5821 0.31758000   1.008000   ; qtot 161.524424
 5822         h1    160    ccc    H23   5822 0.06278000   1.008000   ; qtot 161.587204
 5823         h1    160    ccc    H24   5823 0.06278000   1.008000   ; qtot 161.649984
 5824         oh    160    ccc     O7   5824 -0.59472000  16.000000   ; qtot 161.055264
 5825         ho    160    ccc    H25   5825 0.41908000   1.008000   ; qtot 161.474344
 5826         os    160    ccc     O8   5826 -0.44552000  16.000000   ; qtot 161.028824
 5827         ho    160    ccc    H26   5827 0.41908000   1.008000   ; qtot 161.447904
 5828         h1    160    ccc    H27   5828 0.08578000   1.008000   ; qtot 161.533684
 5829         oh    160    ccc     O9   5829 -0.58672000  16.000000   ; qtot 160.946964
 5830         ho    160    ccc    H28   5830 0.41908000   1.008000   ; qtot 161.366044
 5831         n3    160    ccc     N3   5831 -0.54282000  14.010000   ; qtot 160.823224
 5832         c3    160    ccc    C17   5832 0.08518000  12.010000   ; qtot 160.908404
 5833         c3    160    ccc    C18   5833 0.07918000  12.010000   ; qtot 160.987584
 5834         h1    160    ccc    H29   5834 0.06978000   1.008000   ; qtot 161.057364
 5835         c3    160    ccc    C19   5835 0.07918000  12.010000   ; qtot 161.136544
 5836         c3    160    ccc    C20   5836 0.03578000  12.010000   ; qtot 161.172324
 5837         c3    160    ccc    C21   5837 0.33498000  12.010000   ; qtot 161.507304
 5838         h1    160    ccc    H30   5838 0.06178000   1.008000   ; qtot 161.569084
 5839         h1    160    ccc    H31   5839 0.11278000   1.008000   ; qtot 161.681864
 5840         h2    160    ccc    H32   5840 0.12178000   1.008000   ; qtot 161.803644
 5841         oh    160    ccc    O10   5841 -0.56972000  16.000000   ; qtot 161.233924
 5842         oh    160    ccc    O11   5842 -0.57772000  16.000000   ; qtot 160.656204
 5843         c3    160    ccc    C22   5843 0.14548000  12.010000   ; qtot 160.801684
 5844         ho    160    ccc    H33   5844 0.40508000   1.008000   ; qtot 161.206764
 5845         hn    160    ccc    H34   5845 0.31758000   1.008000   ; qtot 161.524344
 5846         h1    160    ccc    H35   5846 0.06278000   1.008000   ; qtot 161.587124
 5847         h1    160    ccc    H36   5847 0.06278000   1.008000   ; qtot 161.649904
 5848         oh    160    ccc    O12   5848 -0.59472000  16.000000   ; qtot 161.055184
 5849         ho    160    ccc    H37   5849 0.41908000   1.008000   ; qtot 161.474264
 5850         os    160    ccc    O13   5850 -0.44552000  16.000000   ; qtot 161.028744
 5851         ho    160    ccc    H38   5851 0.41908000   1.008000   ; qtot 161.447824
 5852         h1    160    ccc    H39   5852 0.08578000   1.008000   ; qtot 161.533604
 5853         oh    160    ccc     O5   5853 -0.58672000  16.000000   ; qtot 160.946884
 5854         ho    160    ccc    H40   5854 0.41908000   1.008000   ; qtot 161.365964
 5855         n3    160    ccc     N4   5855 -0.54282000  14.010000   ; qtot 160.823144
 5856         hn    160    ccc    H41   5856 0.17125500   1.008000   ; qtot 160.994399
; residue  161 ccc rtp ccc q 1.0
 5857          n    161    ccc     N1   5857 -0.33303000  14.010000   ; qtot 160.661369
 5858         hn    161    ccc     H4   5858 0.25916100   1.008000   ; qtot 160.920530
 5859         c3    161    ccc     C3   5859 -0.03328100  12.010000   ; qtot 160.887249
 5860         h1    161    ccc     H5   5860 0.10618100   1.008000   ; qtot 160.993430
 5861         c3    161    ccc     C4   5861 -0.02083000  12.010000   ; qtot 160.972600
 5862         h1    161    ccc     H6   5862 0.10618100   1.008000   ; qtot 161.078781
 5863         h1    161    ccc     H7   5863 0.07988000   1.008000   ; qtot 161.158661
 5864         h1    161    ccc     H8   5864 0.07988000   1.008000   ; qtot 161.238541
 5865         n4    161    ccc     N2   5865 -0.02747900  14.010000   ; qtot 161.211062
 5866         c3    161    ccc     C5   5866 -0.05097600  12.010000   ; qtot 161.160086
 5867         c3    161    ccc     C6   5867 -0.05097600  12.010000   ; qtot 161.109110
 5868         h1    161    ccc     H9   5868 0.11563300   1.008000   ; qtot 161.224743
 5869         c3    161    ccc     C7   5869 -0.18457900  12.010000   ; qtot 161.040164
 5870         h1    161    ccc    H10   5870 0.11563300   1.008000   ; qtot 161.155797
 5871         hc    161    ccc    H11   5871 0.08347900   1.008000   ; qtot 161.239276
 5872         hc    161    ccc    H12   5872 0.08347900   1.008000   ; qtot 161.322755
 5873          c    161    ccc     C8   5873 0.67254400  12.010000   ; qtot 161.995299
 5874          o    161    ccc     O2   5874 -0.52917200  16.000000   ; qtot 161.466127
 5875         h1    161    ccc    H13   5875 0.11563300   1.008000   ; qtot 161.581760
 5876         h1    161    ccc    H14   5876 0.11563300   1.008000   ; qtot 161.697393
 5877         c3    161    ccc     C9   5877 -0.18457900  12.010000   ; qtot 161.512814
 5878         hc    161    ccc    H15   5878 0.08347900   1.008000   ; qtot 161.596293
 5879         hc    161    ccc    H16   5879 0.08347900   1.008000   ; qtot 161.679772
 5880          c    161    ccc    C10   5880 0.67254400  12.010000   ; qtot 162.352316
 5881          o    161    ccc     O4   5881 -0.52917200  16.000000   ; qtot 161.823144
 5882         c3    161    ccc    C11   5882 0.08518000  12.010000   ; qtot 161.908324
 5883         c3    161    ccc    C12   5883 0.07918000  12.010000   ; qtot 161.987504
 5884         h1    161    ccc    H17   5884 0.06978000   1.008000   ; qtot 162.057284
 5885         c3    161    ccc    C13   5885 0.07918000  12.010000   ; qtot 162.136464
 5886         c3    161    ccc    C14   5886 0.03578000  12.010000   ; qtot 162.172244
 5887         c3    161    ccc    C15   5887 0.33498000  12.010000   ; qtot 162.507224
 5888         h1    161    ccc    H18   5888 0.06178000   1.008000   ; qtot 162.569004
 5889         h1    161    ccc    H19   5889 0.11278000   1.008000   ; qtot 162.681784
 5890         h2    161    ccc    H20   5890 0.12178000   1.008000   ; qtot 162.803564
 5891         oh    161    ccc     O1   5891 -0.56972000  16.000000   ; qtot 162.233844
 5892         oh    161    ccc     O6   5892 -0.57772000  16.000000   ; qtot 161.656124
 5893         c3    161    ccc    C16   5893 0.14548000  12.010000   ; qtot 161.801604
 5894         ho    161    ccc    H21   5894 0.40508000   1.008000   ; qtot 162.206684
 5895         hn    161    ccc    H22   5895 0.31758000   1.008000   ; qtot 162.524264
 5896         h1    161    ccc    H23   5896 0.06278000   1.008000   ; qtot 162.587044
 5897         h1    161    ccc    H24   5897 0.06278000   1.008000   ; qtot 162.649824
 5898         oh    161    ccc     O7   5898 -0.59472000  16.000000   ; qtot 162.055104
 5899         ho    161    ccc    H25   5899 0.41908000   1.008000   ; qtot 162.474184
 5900         os    161    ccc     O8   5900 -0.44552000  16.000000   ; qtot 162.028664
 5901         ho    161    ccc    H26   5901 0.41908000   1.008000   ; qtot 162.447744
 5902         h1    161    ccc    H27   5902 0.08578000   1.008000   ; qtot 162.533524
 5903         oh    161    ccc     O9   5903 -0.58672000  16.000000   ; qtot 161.946804
 5904         ho    161    ccc    H28   5904 0.41908000   1.008000   ; qtot 162.365884
 5905         n3    161    ccc     N3   5905 -0.54282000  14.010000   ; qtot 161.823064
 5906         c3    161    ccc    C17   5906 0.08518000  12.010000   ; qtot 161.908244
 5907         c3    161    ccc    C18   5907 0.07918000  12.010000   ; qtot 161.987424
 5908         h1    161    ccc    H29   5908 0.06978000   1.008000   ; qtot 162.057204
 5909         c3    161    ccc    C19   5909 0.07918000  12.010000   ; qtot 162.136384
 5910         c3    161    ccc    C20   5910 0.03578000  12.010000   ; qtot 162.172164
 5911         c3    161    ccc    C21   5911 0.33498000  12.010000   ; qtot 162.507144
 5912         h1    161    ccc    H30   5912 0.06178000   1.008000   ; qtot 162.568924
 5913         h1    161    ccc    H31   5913 0.11278000   1.008000   ; qtot 162.681704
 5914         h2    161    ccc    H32   5914 0.12178000   1.008000   ; qtot 162.803484
 5915         oh    161    ccc    O10   5915 -0.56972000  16.000000   ; qtot 162.233763
 5916         oh    161    ccc    O11   5916 -0.57772000  16.000000   ; qtot 161.656043
 5917         c3    161    ccc    C22   5917 0.14548000  12.010000   ; qtot 161.801523
 5918         ho    161    ccc    H33   5918 0.40508000   1.008000   ; qtot 162.206603
 5919         hn    161    ccc    H34   5919 0.31758000   1.008000   ; qtot 162.524183
 5920         h1    161    ccc    H35   5920 0.06278000   1.008000   ; qtot 162.586963
 5921         h1    161    ccc    H36   5921 0.06278000   1.008000   ; qtot 162.649743
 5922         oh    161    ccc    O12   5922 -0.59472000  16.000000   ; qtot 162.055023
 5923         ho    161    ccc    H37   5923 0.41908000   1.008000   ; qtot 162.474103
 5924         os    161    ccc    O13   5924 -0.44552000  16.000000   ; qtot 162.028583
 5925         ho    161    ccc    H38   5925 0.41908000   1.008000   ; qtot 162.447663
 5926         h1    161    ccc    H39   5926 0.08578000   1.008000   ; qtot 162.533443
 5927         oh    161    ccc     O5   5927 -0.58672000  16.000000   ; qtot 161.946723
 5928         ho    161    ccc    H40   5928 0.41908000   1.008000   ; qtot 162.365803
 5929         n3    161    ccc     N4   5929 -0.54282000  14.010000   ; qtot 161.822983
 5930         hn    161    ccc    H41   5930 0.17125500   1.008000   ; qtot 161.994238
; residue  162 ccc rtp ccc q 1.0
 5931          n    162    ccc     N1   5931 -0.33303000  14.010000   ; qtot 161.661208
 5932         hn    162    ccc     H4   5932 0.25916100   1.008000   ; qtot 161.920369
 5933         c3    162    ccc     C3   5933 -0.03328100  12.010000   ; qtot 161.887088
 5934         h1    162    ccc     H5   5934 0.10618100   1.008000   ; qtot 161.993269
 5935         c3    162    ccc     C4   5935 -0.02083000  12.010000   ; qtot 161.972439
 5936         h1    162    ccc     H6   5936 0.10618100   1.008000   ; qtot 162.078620
 5937         h1    162    ccc     H7   5937 0.07988000   1.008000   ; qtot 162.158500
 5938         h1    162    ccc     H8   5938 0.07988000   1.008000   ; qtot 162.238380
 5939         n4    162    ccc     N2   5939 -0.02747900  14.010000   ; qtot 162.210901
 5940         c3    162    ccc     C5   5940 -0.05097600  12.010000   ; qtot 162.159925
 5941         c3    162    ccc     C6   5941 -0.05097600  12.010000   ; qtot 162.108949
 5942         h1    162    ccc     H9   5942 0.11563300   1.008000   ; qtot 162.224582
 5943         c3    162    ccc     C7   5943 -0.18457900  12.010000   ; qtot 162.040003
 5944         h1    162    ccc    H10   5944 0.11563300   1.008000   ; qtot 162.155636
 5945         hc    162    ccc    H11   5945 0.08347900   1.008000   ; qtot 162.239115
 5946         hc    162    ccc    H12   5946 0.08347900   1.008000   ; qtot 162.322594
 5947          c    162    ccc     C8   5947 0.67254400  12.010000   ; qtot 162.995138
 5948          o    162    ccc     O2   5948 -0.52917200  16.000000   ; qtot 162.465966
 5949         h1    162    ccc    H13   5949 0.11563300   1.008000   ; qtot 162.581599
 5950         h1    162    ccc    H14   5950 0.11563300   1.008000   ; qtot 162.697232
 5951         c3    162    ccc     C9   5951 -0.18457900  12.010000   ; qtot 162.512653
 5952         hc    162    ccc    H15   5952 0.08347900   1.008000   ; qtot 162.596132
 5953         hc    162    ccc    H16   5953 0.08347900   1.008000   ; qtot 162.679611
 5954          c    162    ccc    C10   5954 0.67254400  12.010000   ; qtot 163.352155
 5955          o    162    ccc     O4   5955 -0.52917200  16.000000   ; qtot 162.822983
 5956         c3    162    ccc    C11   5956 0.08518000  12.010000   ; qtot 162.908163
 5957         c3    162    ccc    C12   5957 0.07918000  12.010000   ; qtot 162.987343
 5958         h1    162    ccc    H17   5958 0.06978000   1.008000   ; qtot 163.057123
 5959         c3    162    ccc    C13   5959 0.07918000  12.010000   ; qtot 163.136303
 5960         c3    162    ccc    C14   5960 0.03578000  12.010000   ; qtot 163.172083
 5961         c3    162    ccc    C15   5961 0.33498000  12.010000   ; qtot 163.507063
 5962         h1    162    ccc    H18   5962 0.06178000   1.008000   ; qtot 163.568843
 5963         h1    162    ccc    H19   5963 0.11278000   1.008000   ; qtot 163.681623
 5964         h2    162    ccc    H20   5964 0.12178000   1.008000   ; qtot 163.803403
 5965         oh    162    ccc     O1   5965 -0.56972000  16.000000   ; qtot 163.233683
 5966         oh    162    ccc     O6   5966 -0.57772000  16.000000   ; qtot 162.655963
 5967         c3    162    ccc    C16   5967 0.14548000  12.010000   ; qtot 162.801443
 5968         ho    162    ccc    H21   5968 0.40508000   1.008000   ; qtot 163.206523
 5969         hn    162    ccc    H22   5969 0.31758000   1.008000   ; qtot 163.524103
 5970         h1    162    ccc    H23   5970 0.06278000   1.008000   ; qtot 163.586883
 5971         h1    162    ccc    H24   5971 0.06278000   1.008000   ; qtot 163.649663
 5972         oh    162    ccc     O7   5972 -0.59472000  16.000000   ; qtot 163.054943
 5973         ho    162    ccc    H25   5973 0.41908000   1.008000   ; qtot 163.474023
 5974         os    162    ccc     O8   5974 -0.44552000  16.000000   ; qtot 163.028503
 5975         ho    162    ccc    H26   5975 0.41908000   1.008000   ; qtot 163.447583
 5976         h1    162    ccc    H27   5976 0.08578000   1.008000   ; qtot 163.533363
 5977         oh    162    ccc     O9   5977 -0.58672000  16.000000   ; qtot 162.946643
 5978         ho    162    ccc    H28   5978 0.41908000   1.008000   ; qtot 163.365723
 5979         n3    162    ccc     N3   5979 -0.54282000  14.010000   ; qtot 162.822903
 5980         c3    162    ccc    C17   5980 0.08518000  12.010000   ; qtot 162.908083
 5981         c3    162    ccc    C18   5981 0.07918000  12.010000   ; qtot 162.987263
 5982         h1    162    ccc    H29   5982 0.06978000   1.008000   ; qtot 163.057043
 5983         c3    162    ccc    C19   5983 0.07918000  12.010000   ; qtot 163.136223
 5984         c3    162    ccc    C20   5984 0.03578000  12.010000   ; qtot 163.172003
 5985         c3    162    ccc    C21   5985 0.33498000  12.010000   ; qtot 163.506983
 5986         h1    162    ccc    H30   5986 0.06178000   1.008000   ; qtot 163.568763
 5987         h1    162    ccc    H31   5987 0.11278000   1.008000   ; qtot 163.681543
 5988         h2    162    ccc    H32   5988 0.12178000   1.008000   ; qtot 163.803323
 5989         oh    162    ccc    O10   5989 -0.56972000  16.000000   ; qtot 163.233603
 5990         oh    162    ccc    O11   5990 -0.57772000  16.000000   ; qtot 162.655883
 5991         c3    162    ccc    C22   5991 0.14548000  12.010000   ; qtot 162.801363
 5992         ho    162    ccc    H33   5992 0.40508000   1.008000   ; qtot 163.206443
 5993         hn    162    ccc    H34   5993 0.31758000   1.008000   ; qtot 163.524023
 5994         h1    162    ccc    H35   5994 0.06278000   1.008000   ; qtot 163.586803
 5995         h1    162    ccc    H36   5995 0.06278000   1.008000   ; qtot 163.649583
 5996         oh    162    ccc    O12   5996 -0.59472000  16.000000   ; qtot 163.054863
 5997         ho    162    ccc    H37   5997 0.41908000   1.008000   ; qtot 163.473943
 5998         os    162    ccc    O13   5998 -0.44552000  16.000000   ; qtot 163.028423
 5999         ho    162    ccc    H38   5999 0.41908000   1.008000   ; qtot 163.447503
 6000         h1    162    ccc    H39   6000 0.08578000   1.008000   ; qtot 163.533283
 6001         oh    162    ccc     O5   6001 -0.58672000  16.000000   ; qtot 162.946563
 6002         ho    162    ccc    H40   6002 0.41908000   1.008000   ; qtot 163.365643
 6003         n3    162    ccc     N4   6003 -0.54282000  14.010000   ; qtot 162.822823
 6004         hn    162    ccc    H41   6004 0.17125500   1.008000   ; qtot 162.994078
; residue  163 ccc rtp ccc q 1.0
 6005          n    163    ccc     N1   6005 -0.33303000  14.010000   ; qtot 162.661048
 6006         hn    163    ccc     H4   6006 0.25916100   1.008000   ; qtot 162.920209
 6007         c3    163    ccc     C3   6007 -0.03328100  12.010000   ; qtot 162.886928
 6008         h1    163    ccc     H5   6008 0.10618100   1.008000   ; qtot 162.993109
 6009         c3    163    ccc     C4   6009 -0.02083000  12.010000   ; qtot 162.972279
 6010         h1    163    ccc     H6   6010 0.10618100   1.008000   ; qtot 163.078460
 6011         h1    163    ccc     H7   6011 0.07988000   1.008000   ; qtot 163.158340
 6012         h1    163    ccc     H8   6012 0.07988000   1.008000   ; qtot 163.238220
 6013         n4    163    ccc     N2   6013 -0.02747900  14.010000   ; qtot 163.210741
 6014         c3    163    ccc     C5   6014 -0.05097600  12.010000   ; qtot 163.159765
 6015         c3    163    ccc     C6   6015 -0.05097600  12.010000   ; qtot 163.108789
 6016         h1    163    ccc     H9   6016 0.11563300   1.008000   ; qtot 163.224422
 6017         c3    163    ccc     C7   6017 -0.18457900  12.010000   ; qtot 163.039843
 6018         h1    163    ccc    H10   6018 0.11563300   1.008000   ; qtot 163.155476
 6019         hc    163    ccc    H11   6019 0.08347900   1.008000   ; qtot 163.238955
 6020         hc    163    ccc    H12   6020 0.08347900   1.008000   ; qtot 163.322434
 6021          c    163    ccc     C8   6021 0.67254400  12.010000   ; qtot 163.994978
 6022          o    163    ccc     O2   6022 -0.52917200  16.000000   ; qtot 163.465806
 6023         h1    163    ccc    H13   6023 0.11563300   1.008000   ; qtot 163.581439
 6024         h1    163    ccc    H14   6024 0.11563300   1.008000   ; qtot 163.697072
 6025         c3    163    ccc     C9   6025 -0.18457900  12.010000   ; qtot 163.512493
 6026         hc    163    ccc    H15   6026 0.08347900   1.008000   ; qtot 163.595972
 6027         hc    163    ccc    H16   6027 0.08347900   1.008000   ; qtot 163.679451
 6028          c    163    ccc    C10   6028 0.67254400  12.010000   ; qtot 164.351995
 6029          o    163    ccc     O4   6029 -0.52917200  16.000000   ; qtot 163.822823
 6030         c3    163    ccc    C11   6030 0.08518000  12.010000   ; qtot 163.908003
 6031         c3    163    ccc    C12   6031 0.07918000  12.010000   ; qtot 163.987183
 6032         h1    163    ccc    H17   6032 0.06978000   1.008000   ; qtot 164.056963
 6033         c3    163    ccc    C13   6033 0.07918000  12.010000   ; qtot 164.136143
 6034         c3    163    ccc    C14   6034 0.03578000  12.010000   ; qtot 164.171923
 6035         c3    163    ccc    C15   6035 0.33498000  12.010000   ; qtot 164.506903
 6036         h1    163    ccc    H18   6036 0.06178000   1.008000   ; qtot 164.568683
 6037         h1    163    ccc    H19   6037 0.11278000   1.008000   ; qtot 164.681463
 6038         h2    163    ccc    H20   6038 0.12178000   1.008000   ; qtot 164.803243
 6039         oh    163    ccc     O1   6039 -0.56972000  16.000000   ; qtot 164.233523
 6040         oh    163    ccc     O6   6040 -0.57772000  16.000000   ; qtot 163.655803
 6041         c3    163    ccc    C16   6041 0.14548000  12.010000   ; qtot 163.801283
 6042         ho    163    ccc    H21   6042 0.40508000   1.008000   ; qtot 164.206363
 6043         hn    163    ccc    H22   6043 0.31758000   1.008000   ; qtot 164.523943
 6044         h1    163    ccc    H23   6044 0.06278000   1.008000   ; qtot 164.586723
 6045         h1    163    ccc    H24   6045 0.06278000   1.008000   ; qtot 164.649503
 6046         oh    163    ccc     O7   6046 -0.59472000  16.000000   ; qtot 164.054783
 6047         ho    163    ccc    H25   6047 0.41908000   1.008000   ; qtot 164.473863
 6048         os    163    ccc     O8   6048 -0.44552000  16.000000   ; qtot 164.028343
 6049         ho    163    ccc    H26   6049 0.41908000   1.008000   ; qtot 164.447423
 6050         h1    163    ccc    H27   6050 0.08578000   1.008000   ; qtot 164.533203
 6051         oh    163    ccc     O9   6051 -0.58672000  16.000000   ; qtot 163.946483
 6052         ho    163    ccc    H28   6052 0.41908000   1.008000   ; qtot 164.365563
 6053         n3    163    ccc     N3   6053 -0.54282000  14.010000   ; qtot 163.822743
 6054         c3    163    ccc    C17   6054 0.08518000  12.010000   ; qtot 163.907923
 6055         c3    163    ccc    C18   6055 0.07918000  12.010000   ; qtot 163.987103
 6056         h1    163    ccc    H29   6056 0.06978000   1.008000   ; qtot 164.056883
 6057         c3    163    ccc    C19   6057 0.07918000  12.010000   ; qtot 164.136063
 6058         c3    163    ccc    C20   6058 0.03578000  12.010000   ; qtot 164.171843
 6059         c3    163    ccc    C21   6059 0.33498000  12.010000   ; qtot 164.506823
 6060         h1    163    ccc    H30   6060 0.06178000   1.008000   ; qtot 164.568603
 6061         h1    163    ccc    H31   6061 0.11278000   1.008000   ; qtot 164.681383
 6062         h2    163    ccc    H32   6062 0.12178000   1.008000   ; qtot 164.803163
 6063         oh    163    ccc    O10   6063 -0.56972000  16.000000   ; qtot 164.233443
 6064         oh    163    ccc    O11   6064 -0.57772000  16.000000   ; qtot 163.655723
 6065         c3    163    ccc    C22   6065 0.14548000  12.010000   ; qtot 163.801203
 6066         ho    163    ccc    H33   6066 0.40508000   1.008000   ; qtot 164.206283
 6067         hn    163    ccc    H34   6067 0.31758000   1.008000   ; qtot 164.523863
 6068         h1    163    ccc    H35   6068 0.06278000   1.008000   ; qtot 164.586643
 6069         h1    163    ccc    H36   6069 0.06278000   1.008000   ; qtot 164.649423
 6070         oh    163    ccc    O12   6070 -0.59472000  16.000000   ; qtot 164.054703
 6071         ho    163    ccc    H37   6071 0.41908000   1.008000   ; qtot 164.473783
 6072         os    163    ccc    O13   6072 -0.44552000  16.000000   ; qtot 164.028263
 6073         ho    163    ccc    H38   6073 0.41908000   1.008000   ; qtot 164.447343
 6074         h1    163    ccc    H39   6074 0.08578000   1.008000   ; qtot 164.533123
 6075         oh    163    ccc     O5   6075 -0.58672000  16.000000   ; qtot 163.946403
 6076         ho    163    ccc    H40   6076 0.41908000   1.008000   ; qtot 164.365483
 6077         n3    163    ccc     N4   6077 -0.54282000  14.010000   ; qtot 163.822663
 6078         hn    163    ccc    H41   6078 0.17125500   1.008000   ; qtot 163.993918
; residue  164 ccc rtp ccc q 1.0
 6079          n    164    ccc     N1   6079 -0.33303000  14.010000   ; qtot 163.660888
 6080         hn    164    ccc     H4   6080 0.25916100   1.008000   ; qtot 163.920049
 6081         c3    164    ccc     C3   6081 -0.03328100  12.010000   ; qtot 163.886768
 6082         h1    164    ccc     H5   6082 0.10618100   1.008000   ; qtot 163.992949
 6083         c3    164    ccc     C4   6083 -0.02083000  12.010000   ; qtot 163.972119
 6084         h1    164    ccc     H6   6084 0.10618100   1.008000   ; qtot 164.078300
 6085         h1    164    ccc     H7   6085 0.07988000   1.008000   ; qtot 164.158180
 6086         h1    164    ccc     H8   6086 0.07988000   1.008000   ; qtot 164.238060
 6087         n4    164    ccc     N2   6087 -0.02747900  14.010000   ; qtot 164.210581
 6088         c3    164    ccc     C5   6088 -0.05097600  12.010000   ; qtot 164.159605
 6089         c3    164    ccc     C6   6089 -0.05097600  12.010000   ; qtot 164.108629
 6090         h1    164    ccc     H9   6090 0.11563300   1.008000   ; qtot 164.224262
 6091         c3    164    ccc     C7   6091 -0.18457900  12.010000   ; qtot 164.039683
 6092         h1    164    ccc    H10   6092 0.11563300   1.008000   ; qtot 164.155316
 6093         hc    164    ccc    H11   6093 0.08347900   1.008000   ; qtot 164.238795
 6094         hc    164    ccc    H12   6094 0.08347900   1.008000   ; qtot 164.322274
 6095          c    164    ccc     C8   6095 0.67254400  12.010000   ; qtot 164.994818
 6096          o    164    ccc     O2   6096 -0.52917200  16.000000   ; qtot 164.465646
 6097         h1    164    ccc    H13   6097 0.11563300   1.008000   ; qtot 164.581279
 6098         h1    164    ccc    H14   6098 0.11563300   1.008000   ; qtot 164.696912
 6099         c3    164    ccc     C9   6099 -0.18457900  12.010000   ; qtot 164.512333
 6100         hc    164    ccc    H15   6100 0.08347900   1.008000   ; qtot 164.595812
 6101         hc    164    ccc    H16   6101 0.08347900   1.008000   ; qtot 164.679291
 6102          c    164    ccc    C10   6102 0.67254400  12.010000   ; qtot 165.351835
 6103          o    164    ccc     O4   6103 -0.52917200  16.000000   ; qtot 164.822663
 6104         c3    164    ccc    C11   6104 0.08518000  12.010000   ; qtot 164.907843
 6105         c3    164    ccc    C12   6105 0.07918000  12.010000   ; qtot 164.987023
 6106         h1    164    ccc    H17   6106 0.06978000   1.008000   ; qtot 165.056803
 6107         c3    164    ccc    C13   6107 0.07918000  12.010000   ; qtot 165.135983
 6108         c3    164    ccc    C14   6108 0.03578000  12.010000   ; qtot 165.171763
 6109         c3    164    ccc    C15   6109 0.33498000  12.010000   ; qtot 165.506743
 6110         h1    164    ccc    H18   6110 0.06178000   1.008000   ; qtot 165.568523
 6111         h1    164    ccc    H19   6111 0.11278000   1.008000   ; qtot 165.681303
 6112         h2    164    ccc    H20   6112 0.12178000   1.008000   ; qtot 165.803083
 6113         oh    164    ccc     O1   6113 -0.56972000  16.000000   ; qtot 165.233363
 6114         oh    164    ccc     O6   6114 -0.57772000  16.000000   ; qtot 164.655643
 6115         c3    164    ccc    C16   6115 0.14548000  12.010000   ; qtot 164.801123
 6116         ho    164    ccc    H21   6116 0.40508000   1.008000   ; qtot 165.206203
 6117         hn    164    ccc    H22   6117 0.31758000   1.008000   ; qtot 165.523783
 6118         h1    164    ccc    H23   6118 0.06278000   1.008000   ; qtot 165.586563
 6119         h1    164    ccc    H24   6119 0.06278000   1.008000   ; qtot 165.649343
 6120         oh    164    ccc     O7   6120 -0.59472000  16.000000   ; qtot 165.054623
 6121         ho    164    ccc    H25   6121 0.41908000   1.008000   ; qtot 165.473703
 6122         os    164    ccc     O8   6122 -0.44552000  16.000000   ; qtot 165.028183
 6123         ho    164    ccc    H26   6123 0.41908000   1.008000   ; qtot 165.447263
 6124         h1    164    ccc    H27   6124 0.08578000   1.008000   ; qtot 165.533043
 6125         oh    164    ccc     O9   6125 -0.58672000  16.000000   ; qtot 164.946323
 6126         ho    164    ccc    H28   6126 0.41908000   1.008000   ; qtot 165.365403
 6127         n3    164    ccc     N3   6127 -0.54282000  14.010000   ; qtot 164.822583
 6128         c3    164    ccc    C17   6128 0.08518000  12.010000   ; qtot 164.907763
 6129         c3    164    ccc    C18   6129 0.07918000  12.010000   ; qtot 164.986943
 6130         h1    164    ccc    H29   6130 0.06978000   1.008000   ; qtot 165.056723
 6131         c3    164    ccc    C19   6131 0.07918000  12.010000   ; qtot 165.135903
 6132         c3    164    ccc    C20   6132 0.03578000  12.010000   ; qtot 165.171683
 6133         c3    164    ccc    C21   6133 0.33498000  12.010000   ; qtot 165.506663
 6134         h1    164    ccc    H30   6134 0.06178000   1.008000   ; qtot 165.568443
 6135         h1    164    ccc    H31   6135 0.11278000   1.008000   ; qtot 165.681223
 6136         h2    164    ccc    H32   6136 0.12178000   1.008000   ; qtot 165.803003
 6137         oh    164    ccc    O10   6137 -0.56972000  16.000000   ; qtot 165.233283
 6138         oh    164    ccc    O11   6138 -0.57772000  16.000000   ; qtot 164.655563
 6139         c3    164    ccc    C22   6139 0.14548000  12.010000   ; qtot 164.801043
 6140         ho    164    ccc    H33   6140 0.40508000   1.008000   ; qtot 165.206123
 6141         hn    164    ccc    H34   6141 0.31758000   1.008000   ; qtot 165.523703
 6142         h1    164    ccc    H35   6142 0.06278000   1.008000   ; qtot 165.586483
 6143         h1    164    ccc    H36   6143 0.06278000   1.008000   ; qtot 165.649263
 6144         oh    164    ccc    O12   6144 -0.59472000  16.000000   ; qtot 165.054543
 6145         ho    164    ccc    H37   6145 0.41908000   1.008000   ; qtot 165.473623
 6146         os    164    ccc    O13   6146 -0.44552000  16.000000   ; qtot 165.028103
 6147         ho    164    ccc    H38   6147 0.41908000   1.008000   ; qtot 165.447183
 6148         h1    164    ccc    H39   6148 0.08578000   1.008000   ; qtot 165.532963
 6149         oh    164    ccc     O5   6149 -0.58672000  16.000000   ; qtot 164.946243
 6150         ho    164    ccc    H40   6150 0.41908000   1.008000   ; qtot 165.365323
 6151         n3    164    ccc     N4   6151 -0.54282000  14.010000   ; qtot 164.822503
 6152         hn    164    ccc    H41   6152 0.17125500   1.008000   ; qtot 164.993758
; residue  165 ccc rtp ccc q 1.0
 6153          n    165    ccc     N1   6153 -0.33303000  14.010000   ; qtot 164.660728
 6154         hn    165    ccc     H4   6154 0.25916100   1.008000   ; qtot 164.919889
 6155         c3    165    ccc     C3   6155 -0.03328100  12.010000   ; qtot 164.886608
 6156         h1    165    ccc     H5   6156 0.10618100   1.008000   ; qtot 164.992789
 6157         c3    165    ccc     C4   6157 -0.02083000  12.010000   ; qtot 164.971959
 6158         h1    165    ccc     H6   6158 0.10618100   1.008000   ; qtot 165.078140
 6159         h1    165    ccc     H7   6159 0.07988000   1.008000   ; qtot 165.158020
 6160         h1    165    ccc     H8   6160 0.07988000   1.008000   ; qtot 165.237900
 6161         n4    165    ccc     N2   6161 -0.02747900  14.010000   ; qtot 165.210421
 6162         c3    165    ccc     C5   6162 -0.05097600  12.010000   ; qtot 165.159445
 6163         c3    165    ccc     C6   6163 -0.05097600  12.010000   ; qtot 165.108469
 6164         h1    165    ccc     H9   6164 0.11563300   1.008000   ; qtot 165.224102
 6165         c3    165    ccc     C7   6165 -0.18457900  12.010000   ; qtot 165.039523
 6166         h1    165    ccc    H10   6166 0.11563300   1.008000   ; qtot 165.155156
 6167         hc    165    ccc    H11   6167 0.08347900   1.008000   ; qtot 165.238635
 6168         hc    165    ccc    H12   6168 0.08347900   1.008000   ; qtot 165.322114
 6169          c    165    ccc     C8   6169 0.67254400  12.010000   ; qtot 165.994658
 6170          o    165    ccc     O2   6170 -0.52917200  16.000000   ; qtot 165.465486
 6171         h1    165    ccc    H13   6171 0.11563300   1.008000   ; qtot 165.581119
 6172         h1    165    ccc    H14   6172 0.11563300   1.008000   ; qtot 165.696752
 6173         c3    165    ccc     C9   6173 -0.18457900  12.010000   ; qtot 165.512173
 6174         hc    165    ccc    H15   6174 0.08347900   1.008000   ; qtot 165.595652
 6175         hc    165    ccc    H16   6175 0.08347900   1.008000   ; qtot 165.679131
 6176          c    165    ccc    C10   6176 0.67254400  12.010000   ; qtot 166.351675
 6177          o    165    ccc     O4   6177 -0.52917200  16.000000   ; qtot 165.822503
 6178         c3    165    ccc    C11   6178 0.08518000  12.010000   ; qtot 165.907683
 6179         c3    165    ccc    C12   6179 0.07918000  12.010000   ; qtot 165.986863
 6180         h1    165    ccc    H17   6180 0.06978000   1.008000   ; qtot 166.056643
 6181         c3    165    ccc    C13   6181 0.07918000  12.010000   ; qtot 166.135823
 6182         c3    165    ccc    C14   6182 0.03578000  12.010000   ; qtot 166.171603
 6183         c3    165    ccc    C15   6183 0.33498000  12.010000   ; qtot 166.506583
 6184         h1    165    ccc    H18   6184 0.06178000   1.008000   ; qtot 166.568363
 6185         h1    165    ccc    H19   6185 0.11278000   1.008000   ; qtot 166.681143
 6186         h2    165    ccc    H20   6186 0.12178000   1.008000   ; qtot 166.802923
 6187         oh    165    ccc     O1   6187 -0.56972000  16.000000   ; qtot 166.233203
 6188         oh    165    ccc     O6   6188 -0.57772000  16.000000   ; qtot 165.655483
 6189         c3    165    ccc    C16   6189 0.14548000  12.010000   ; qtot 165.800963
 6190         ho    165    ccc    H21   6190 0.40508000   1.008000   ; qtot 166.206043
 6191         hn    165    ccc    H22   6191 0.31758000   1.008000   ; qtot 166.523623
 6192         h1    165    ccc    H23   6192 0.06278000   1.008000   ; qtot 166.586403
 6193         h1    165    ccc    H24   6193 0.06278000   1.008000   ; qtot 166.649183
 6194         oh    165    ccc     O7   6194 -0.59472000  16.000000   ; qtot 166.054463
 6195         ho    165    ccc    H25   6195 0.41908000   1.008000   ; qtot 166.473543
 6196         os    165    ccc     O8   6196 -0.44552000  16.000000   ; qtot 166.028023
 6197         ho    165    ccc    H26   6197 0.41908000   1.008000   ; qtot 166.447103
 6198         h1    165    ccc    H27   6198 0.08578000   1.008000   ; qtot 166.532883
 6199         oh    165    ccc     O9   6199 -0.58672000  16.000000   ; qtot 165.946163
 6200         ho    165    ccc    H28   6200 0.41908000   1.008000   ; qtot 166.365243
 6201         n3    165    ccc     N3   6201 -0.54282000  14.010000   ; qtot 165.822423
 6202         c3    165    ccc    C17   6202 0.08518000  12.010000   ; qtot 165.907603
 6203         c3    165    ccc    C18   6203 0.07918000  12.010000   ; qtot 165.986783
 6204         h1    165    ccc    H29   6204 0.06978000   1.008000   ; qtot 166.056563
 6205         c3    165    ccc    C19   6205 0.07918000  12.010000   ; qtot 166.135743
 6206         c3    165    ccc    C20   6206 0.03578000  12.010000   ; qtot 166.171523
 6207         c3    165    ccc    C21   6207 0.33498000  12.010000   ; qtot 166.506503
 6208         h1    165    ccc    H30   6208 0.06178000   1.008000   ; qtot 166.568283
 6209         h1    165    ccc    H31   6209 0.11278000   1.008000   ; qtot 166.681063
 6210         h2    165    ccc    H32   6210 0.12178000   1.008000   ; qtot 166.802843
 6211         oh    165    ccc    O10   6211 -0.56972000  16.000000   ; qtot 166.233123
 6212         oh    165    ccc    O11   6212 -0.57772000  16.000000   ; qtot 165.655403
 6213         c3    165    ccc    C22   6213 0.14548000  12.010000   ; qtot 165.800883
 6214         ho    165    ccc    H33   6214 0.40508000   1.008000   ; qtot 166.205963
 6215         hn    165    ccc    H34   6215 0.31758000   1.008000   ; qtot 166.523543
 6216         h1    165    ccc    H35   6216 0.06278000   1.008000   ; qtot 166.586323
 6217         h1    165    ccc    H36   6217 0.06278000   1.008000   ; qtot 166.649103
 6218         oh    165    ccc    O12   6218 -0.59472000  16.000000   ; qtot 166.054383
 6219         ho    165    ccc    H37   6219 0.41908000   1.008000   ; qtot 166.473463
 6220         os    165    ccc    O13   6220 -0.44552000  16.000000   ; qtot 166.027943
 6221         ho    165    ccc    H38   6221 0.41908000   1.008000   ; qtot 166.447023
 6222         h1    165    ccc    H39   6222 0.08578000   1.008000   ; qtot 166.532803
 6223         oh    165    ccc     O5   6223 -0.58672000  16.000000   ; qtot 165.946083
 6224         ho    165    ccc    H40   6224 0.41908000   1.008000   ; qtot 166.365163
 6225         n3    165    ccc     N4   6225 -0.54282000  14.010000   ; qtot 165.822343
 6226         hn    165    ccc    H41   6226 0.17125500   1.008000   ; qtot 165.993598
; residue  166 ccc rtp ccc q 1.0
 6227          n    166    ccc     N1   6227 -0.33303000  14.010000   ; qtot 165.660568
 6228         hn    166    ccc     H4   6228 0.25916100   1.008000   ; qtot 165.919729
 6229         c3    166    ccc     C3   6229 -0.03328100  12.010000   ; qtot 165.886448
 6230         h1    166    ccc     H5   6230 0.10618100   1.008000   ; qtot 165.992629
 6231         c3    166    ccc     C4   6231 -0.02083000  12.010000   ; qtot 165.971799
 6232         h1    166    ccc     H6   6232 0.10618100   1.008000   ; qtot 166.077980
 6233         h1    166    ccc     H7   6233 0.07988000   1.008000   ; qtot 166.157860
 6234         h1    166    ccc     H8   6234 0.07988000   1.008000   ; qtot 166.237740
 6235         n4    166    ccc     N2   6235 -0.02747900  14.010000   ; qtot 166.210261
 6236         c3    166    ccc     C5   6236 -0.05097600  12.010000   ; qtot 166.159285
 6237         c3    166    ccc     C6   6237 -0.05097600  12.010000   ; qtot 166.108309
 6238         h1    166    ccc     H9   6238 0.11563300   1.008000   ; qtot 166.223942
 6239         c3    166    ccc     C7   6239 -0.18457900  12.010000   ; qtot 166.039363
 6240         h1    166    ccc    H10   6240 0.11563300   1.008000   ; qtot 166.154996
 6241         hc    166    ccc    H11   6241 0.08347900   1.008000   ; qtot 166.238475
 6242         hc    166    ccc    H12   6242 0.08347900   1.008000   ; qtot 166.321954
 6243          c    166    ccc     C8   6243 0.67254400  12.010000   ; qtot 166.994498
 6244          o    166    ccc     O2   6244 -0.52917200  16.000000   ; qtot 166.465326
 6245         h1    166    ccc    H13   6245 0.11563300   1.008000   ; qtot 166.580959
 6246         h1    166    ccc    H14   6246 0.11563300   1.008000   ; qtot 166.696592
 6247         c3    166    ccc     C9   6247 -0.18457900  12.010000   ; qtot 166.512013
 6248         hc    166    ccc    H15   6248 0.08347900   1.008000   ; qtot 166.595492
 6249         hc    166    ccc    H16   6249 0.08347900   1.008000   ; qtot 166.678971
 6250          c    166    ccc    C10   6250 0.67254400  12.010000   ; qtot 167.351515
 6251          o    166    ccc     O4   6251 -0.52917200  16.000000   ; qtot 166.822343
 6252         c3    166    ccc    C11   6252 0.08518000  12.010000   ; qtot 166.907523
 6253         c3    166    ccc    C12   6253 0.07918000  12.010000   ; qtot 166.986703
 6254         h1    166    ccc    H17   6254 0.06978000   1.008000   ; qtot 167.056483
 6255         c3    166    ccc    C13   6255 0.07918000  12.010000   ; qtot 167.135663
 6256         c3    166    ccc    C14   6256 0.03578000  12.010000   ; qtot 167.171443
 6257         c3    166    ccc    C15   6257 0.33498000  12.010000   ; qtot 167.506423
 6258         h1    166    ccc    H18   6258 0.06178000   1.008000   ; qtot 167.568203
 6259         h1    166    ccc    H19   6259 0.11278000   1.008000   ; qtot 167.680983
 6260         h2    166    ccc    H20   6260 0.12178000   1.008000   ; qtot 167.802763
 6261         oh    166    ccc     O1   6261 -0.56972000  16.000000   ; qtot 167.233043
 6262         oh    166    ccc     O6   6262 -0.57772000  16.000000   ; qtot 166.655323
 6263         c3    166    ccc    C16   6263 0.14548000  12.010000   ; qtot 166.800803
 6264         ho    166    ccc    H21   6264 0.40508000   1.008000   ; qtot 167.205883
 6265         hn    166    ccc    H22   6265 0.31758000   1.008000   ; qtot 167.523463
 6266         h1    166    ccc    H23   6266 0.06278000   1.008000   ; qtot 167.586243
 6267         h1    166    ccc    H24   6267 0.06278000   1.008000   ; qtot 167.649023
 6268         oh    166    ccc     O7   6268 -0.59472000  16.000000   ; qtot 167.054303
 6269         ho    166    ccc    H25   6269 0.41908000   1.008000   ; qtot 167.473383
 6270         os    166    ccc     O8   6270 -0.44552000  16.000000   ; qtot 167.027863
 6271         ho    166    ccc    H26   6271 0.41908000   1.008000   ; qtot 167.446943
 6272         h1    166    ccc    H27   6272 0.08578000   1.008000   ; qtot 167.532723
 6273         oh    166    ccc     O9   6273 -0.58672000  16.000000   ; qtot 166.946003
 6274         ho    166    ccc    H28   6274 0.41908000   1.008000   ; qtot 167.365083
 6275         n3    166    ccc     N3   6275 -0.54282000  14.010000   ; qtot 166.822263
 6276         c3    166    ccc    C17   6276 0.08518000  12.010000   ; qtot 166.907443
 6277         c3    166    ccc    C18   6277 0.07918000  12.010000   ; qtot 166.986623
 6278         h1    166    ccc    H29   6278 0.06978000   1.008000   ; qtot 167.056403
 6279         c3    166    ccc    C19   6279 0.07918000  12.010000   ; qtot 167.135583
 6280         c3    166    ccc    C20   6280 0.03578000  12.010000   ; qtot 167.171363
 6281         c3    166    ccc    C21   6281 0.33498000  12.010000   ; qtot 167.506343
 6282         h1    166    ccc    H30   6282 0.06178000   1.008000   ; qtot 167.568123
 6283         h1    166    ccc    H31   6283 0.11278000   1.008000   ; qtot 167.680903
 6284         h2    166    ccc    H32   6284 0.12178000   1.008000   ; qtot 167.802683
 6285         oh    166    ccc    O10   6285 -0.56972000  16.000000   ; qtot 167.232963
 6286         oh    166    ccc    O11   6286 -0.57772000  16.000000   ; qtot 166.655243
 6287         c3    166    ccc    C22   6287 0.14548000  12.010000   ; qtot 166.800723
 6288         ho    166    ccc    H33   6288 0.40508000   1.008000   ; qtot 167.205803
 6289         hn    166    ccc    H34   6289 0.31758000   1.008000   ; qtot 167.523383
 6290         h1    166    ccc    H35   6290 0.06278000   1.008000   ; qtot 167.586163
 6291         h1    166    ccc    H36   6291 0.06278000   1.008000   ; qtot 167.648943
 6292         oh    166    ccc    O12   6292 -0.59472000  16.000000   ; qtot 167.054223
 6293         ho    166    ccc    H37   6293 0.41908000   1.008000   ; qtot 167.473303
 6294         os    166    ccc    O13   6294 -0.44552000  16.000000   ; qtot 167.027783
 6295         ho    166    ccc    H38   6295 0.41908000   1.008000   ; qtot 167.446863
 6296         h1    166    ccc    H39   6296 0.08578000   1.008000   ; qtot 167.532643
 6297         oh    166    ccc     O5   6297 -0.58672000  16.000000   ; qtot 166.945923
 6298         ho    166    ccc    H40   6298 0.41908000   1.008000   ; qtot 167.365003
 6299         n3    166    ccc     N4   6299 -0.54282000  14.010000   ; qtot 166.822183
 6300         hn    166    ccc    H41   6300 0.17125500   1.008000   ; qtot 166.993438
; residue  167 ccc rtp ccc q 1.0
 6301          n    167    ccc     N1   6301 -0.33303000  14.010000   ; qtot 166.660408
 6302         hn    167    ccc     H4   6302 0.25916100   1.008000   ; qtot 166.919569
 6303         c3    167    ccc     C3   6303 -0.03328100  12.010000   ; qtot 166.886288
 6304         h1    167    ccc     H5   6304 0.10618100   1.008000   ; qtot 166.992469
 6305         c3    167    ccc     C4   6305 -0.02083000  12.010000   ; qtot 166.971639
 6306         h1    167    ccc     H6   6306 0.10618100   1.008000   ; qtot 167.077820
 6307         h1    167    ccc     H7   6307 0.07988000   1.008000   ; qtot 167.157700
 6308         h1    167    ccc     H8   6308 0.07988000   1.008000   ; qtot 167.237580
 6309         n4    167    ccc     N2   6309 -0.02747900  14.010000   ; qtot 167.210101
 6310         c3    167    ccc     C5   6310 -0.05097600  12.010000   ; qtot 167.159125
 6311         c3    167    ccc     C6   6311 -0.05097600  12.010000   ; qtot 167.108149
 6312         h1    167    ccc     H9   6312 0.11563300   1.008000   ; qtot 167.223782
 6313         c3    167    ccc     C7   6313 -0.18457900  12.010000   ; qtot 167.039203
 6314         h1    167    ccc    H10   6314 0.11563300   1.008000   ; qtot 167.154836
 6315         hc    167    ccc    H11   6315 0.08347900   1.008000   ; qtot 167.238315
 6316         hc    167    ccc    H12   6316 0.08347900   1.008000   ; qtot 167.321794
 6317          c    167    ccc     C8   6317 0.67254400  12.010000   ; qtot 167.994338
 6318          o    167    ccc     O2   6318 -0.52917200  16.000000   ; qtot 167.465166
 6319         h1    167    ccc    H13   6319 0.11563300   1.008000   ; qtot 167.580799
 6320         h1    167    ccc    H14   6320 0.11563300   1.008000   ; qtot 167.696432
 6321         c3    167    ccc     C9   6321 -0.18457900  12.010000   ; qtot 167.511853
 6322         hc    167    ccc    H15   6322 0.08347900   1.008000   ; qtot 167.595332
 6323         hc    167    ccc    H16   6323 0.08347900   1.008000   ; qtot 167.678811
 6324          c    167    ccc    C10   6324 0.67254400  12.010000   ; qtot 168.351355
 6325          o    167    ccc     O4   6325 -0.52917200  16.000000   ; qtot 167.822183
 6326         c3    167    ccc    C11   6326 0.08518000  12.010000   ; qtot 167.907363
 6327         c3    167    ccc    C12   6327 0.07918000  12.010000   ; qtot 167.986543
 6328         h1    167    ccc    H17   6328 0.06978000   1.008000   ; qtot 168.056323
 6329         c3    167    ccc    C13   6329 0.07918000  12.010000   ; qtot 168.135503
 6330         c3    167    ccc    C14   6330 0.03578000  12.010000   ; qtot 168.171283
 6331         c3    167    ccc    C15   6331 0.33498000  12.010000   ; qtot 168.506263
 6332         h1    167    ccc    H18   6332 0.06178000   1.008000   ; qtot 168.568043
 6333         h1    167    ccc    H19   6333 0.11278000   1.008000   ; qtot 168.680823
 6334         h2    167    ccc    H20   6334 0.12178000   1.008000   ; qtot 168.802603
 6335         oh    167    ccc     O1   6335 -0.56972000  16.000000   ; qtot 168.232883
 6336         oh    167    ccc     O6   6336 -0.57772000  16.000000   ; qtot 167.655163
 6337         c3    167    ccc    C16   6337 0.14548000  12.010000   ; qtot 167.800643
 6338         ho    167    ccc    H21   6338 0.40508000   1.008000   ; qtot 168.205723
 6339         hn    167    ccc    H22   6339 0.31758000   1.008000   ; qtot 168.523303
 6340         h1    167    ccc    H23   6340 0.06278000   1.008000   ; qtot 168.586083
 6341         h1    167    ccc    H24   6341 0.06278000   1.008000   ; qtot 168.648863
 6342         oh    167    ccc     O7   6342 -0.59472000  16.000000   ; qtot 168.054143
 6343         ho    167    ccc    H25   6343 0.41908000   1.008000   ; qtot 168.473223
 6344         os    167    ccc     O8   6344 -0.44552000  16.000000   ; qtot 168.027703
 6345         ho    167    ccc    H26   6345 0.41908000   1.008000   ; qtot 168.446783
 6346         h1    167    ccc    H27   6346 0.08578000   1.008000   ; qtot 168.532563
 6347         oh    167    ccc     O9   6347 -0.58672000  16.000000   ; qtot 167.945843
 6348         ho    167    ccc    H28   6348 0.41908000   1.008000   ; qtot 168.364923
 6349         n3    167    ccc     N3   6349 -0.54282000  14.010000   ; qtot 167.822103
 6350         c3    167    ccc    C17   6350 0.08518000  12.010000   ; qtot 167.907283
 6351         c3    167    ccc    C18   6351 0.07918000  12.010000   ; qtot 167.986463
 6352         h1    167    ccc    H29   6352 0.06978000   1.008000   ; qtot 168.056243
 6353         c3    167    ccc    C19   6353 0.07918000  12.010000   ; qtot 168.135423
 6354         c3    167    ccc    C20   6354 0.03578000  12.010000   ; qtot 168.171203
 6355         c3    167    ccc    C21   6355 0.33498000  12.010000   ; qtot 168.506183
 6356         h1    167    ccc    H30   6356 0.06178000   1.008000   ; qtot 168.567963
 6357         h1    167    ccc    H31   6357 0.11278000   1.008000   ; qtot 168.680743
 6358         h2    167    ccc    H32   6358 0.12178000   1.008000   ; qtot 168.802523
 6359         oh    167    ccc    O10   6359 -0.56972000  16.000000   ; qtot 168.232803
 6360         oh    167    ccc    O11   6360 -0.57772000  16.000000   ; qtot 167.655083
 6361         c3    167    ccc    C22   6361 0.14548000  12.010000   ; qtot 167.800563
 6362         ho    167    ccc    H33   6362 0.40508000   1.008000   ; qtot 168.205643
 6363         hn    167    ccc    H34   6363 0.31758000   1.008000   ; qtot 168.523223
 6364         h1    167    ccc    H35   6364 0.06278000   1.008000   ; qtot 168.586003
 6365         h1    167    ccc    H36   6365 0.06278000   1.008000   ; qtot 168.648783
 6366         oh    167    ccc    O12   6366 -0.59472000  16.000000   ; qtot 168.054063
 6367         ho    167    ccc    H37   6367 0.41908000   1.008000   ; qtot 168.473143
 6368         os    167    ccc    O13   6368 -0.44552000  16.000000   ; qtot 168.027623
 6369         ho    167    ccc    H38   6369 0.41908000   1.008000   ; qtot 168.446703
 6370         h1    167    ccc    H39   6370 0.08578000   1.008000   ; qtot 168.532483
 6371         oh    167    ccc     O5   6371 -0.58672000  16.000000   ; qtot 167.945763
 6372         ho    167    ccc    H40   6372 0.41908000   1.008000   ; qtot 168.364843
 6373         n3    167    ccc     N4   6373 -0.54282000  14.010000   ; qtot 167.822023
 6374         hn    167    ccc    H41   6374 0.17125500   1.008000   ; qtot 167.993278
; residue  168 ccc rtp ccc q 1.0
 6375          n    168    ccc     N1   6375 -0.33303000  14.010000   ; qtot 167.660248
 6376         hn    168    ccc     H4   6376 0.25916100   1.008000   ; qtot 167.919409
 6377         c3    168    ccc     C3   6377 -0.03328100  12.010000   ; qtot 167.886128
 6378         h1    168    ccc     H5   6378 0.10618100   1.008000   ; qtot 167.992309
 6379         c3    168    ccc     C4   6379 -0.02083000  12.010000   ; qtot 167.971479
 6380         h1    168    ccc     H6   6380 0.10618100   1.008000   ; qtot 168.077660
 6381         h1    168    ccc     H7   6381 0.07988000   1.008000   ; qtot 168.157540
 6382         h1    168    ccc     H8   6382 0.07988000   1.008000   ; qtot 168.237420
 6383         n4    168    ccc     N2   6383 -0.02747900  14.010000   ; qtot 168.209941
 6384         c3    168    ccc     C5   6384 -0.05097600  12.010000   ; qtot 168.158965
 6385         c3    168    ccc     C6   6385 -0.05097600  12.010000   ; qtot 168.107989
 6386         h1    168    ccc     H9   6386 0.11563300   1.008000   ; qtot 168.223622
 6387         c3    168    ccc     C7   6387 -0.18457900  12.010000   ; qtot 168.039043
 6388         h1    168    ccc    H10   6388 0.11563300   1.008000   ; qtot 168.154676
 6389         hc    168    ccc    H11   6389 0.08347900   1.008000   ; qtot 168.238155
 6390         hc    168    ccc    H12   6390 0.08347900   1.008000   ; qtot 168.321634
 6391          c    168    ccc     C8   6391 0.67254400  12.010000   ; qtot 168.994178
 6392          o    168    ccc     O2   6392 -0.52917200  16.000000   ; qtot 168.465006
 6393         h1    168    ccc    H13   6393 0.11563300   1.008000   ; qtot 168.580639
 6394         h1    168    ccc    H14   6394 0.11563300   1.008000   ; qtot 168.696272
 6395         c3    168    ccc     C9   6395 -0.18457900  12.010000   ; qtot 168.511693
 6396         hc    168    ccc    H15   6396 0.08347900   1.008000   ; qtot 168.595172
 6397         hc    168    ccc    H16   6397 0.08347900   1.008000   ; qtot 168.678651
 6398          c    168    ccc    C10   6398 0.67254400  12.010000   ; qtot 169.351195
 6399          o    168    ccc     O4   6399 -0.52917200  16.000000   ; qtot 168.822023
 6400         c3    168    ccc    C11   6400 0.08518000  12.010000   ; qtot 168.907203
 6401         c3    168    ccc    C12   6401 0.07918000  12.010000   ; qtot 168.986383
 6402         h1    168    ccc    H17   6402 0.06978000   1.008000   ; qtot 169.056163
 6403         c3    168    ccc    C13   6403 0.07918000  12.010000   ; qtot 169.135343
 6404         c3    168    ccc    C14   6404 0.03578000  12.010000   ; qtot 169.171123
 6405         c3    168    ccc    C15   6405 0.33498000  12.010000   ; qtot 169.506103
 6406         h1    168    ccc    H18   6406 0.06178000   1.008000   ; qtot 169.567883
 6407         h1    168    ccc    H19   6407 0.11278000   1.008000   ; qtot 169.680663
 6408         h2    168    ccc    H20   6408 0.12178000   1.008000   ; qtot 169.802443
 6409         oh    168    ccc     O1   6409 -0.56972000  16.000000   ; qtot 169.232723
 6410         oh    168    ccc     O6   6410 -0.57772000  16.000000   ; qtot 168.655003
 6411         c3    168    ccc    C16   6411 0.14548000  12.010000   ; qtot 168.800483
 6412         ho    168    ccc    H21   6412 0.40508000   1.008000   ; qtot 169.205563
 6413         hn    168    ccc    H22   6413 0.31758000   1.008000   ; qtot 169.523143
 6414         h1    168    ccc    H23   6414 0.06278000   1.008000   ; qtot 169.585923
 6415         h1    168    ccc    H24   6415 0.06278000   1.008000   ; qtot 169.648703
 6416         oh    168    ccc     O7   6416 -0.59472000  16.000000   ; qtot 169.053983
 6417         ho    168    ccc    H25   6417 0.41908000   1.008000   ; qtot 169.473063
 6418         os    168    ccc     O8   6418 -0.44552000  16.000000   ; qtot 169.027543
 6419         ho    168    ccc    H26   6419 0.41908000   1.008000   ; qtot 169.446623
 6420         h1    168    ccc    H27   6420 0.08578000   1.008000   ; qtot 169.532403
 6421         oh    168    ccc     O9   6421 -0.58672000  16.000000   ; qtot 168.945683
 6422         ho    168    ccc    H28   6422 0.41908000   1.008000   ; qtot 169.364763
 6423         n3    168    ccc     N3   6423 -0.54282000  14.010000   ; qtot 168.821943
 6424         c3    168    ccc    C17   6424 0.08518000  12.010000   ; qtot 168.907123
 6425         c3    168    ccc    C18   6425 0.07918000  12.010000   ; qtot 168.986303
 6426         h1    168    ccc    H29   6426 0.06978000   1.008000   ; qtot 169.056083
 6427         c3    168    ccc    C19   6427 0.07918000  12.010000   ; qtot 169.135263
 6428         c3    168    ccc    C20   6428 0.03578000  12.010000   ; qtot 169.171043
 6429         c3    168    ccc    C21   6429 0.33498000  12.010000   ; qtot 169.506023
 6430         h1    168    ccc    H30   6430 0.06178000   1.008000   ; qtot 169.567803
 6431         h1    168    ccc    H31   6431 0.11278000   1.008000   ; qtot 169.680583
 6432         h2    168    ccc    H32   6432 0.12178000   1.008000   ; qtot 169.802363
 6433         oh    168    ccc    O10   6433 -0.56972000  16.000000   ; qtot 169.232643
 6434         oh    168    ccc    O11   6434 -0.57772000  16.000000   ; qtot 168.654923
 6435         c3    168    ccc    C22   6435 0.14548000  12.010000   ; qtot 168.800403
 6436         ho    168    ccc    H33   6436 0.40508000   1.008000   ; qtot 169.205483
 6437         hn    168    ccc    H34   6437 0.31758000   1.008000   ; qtot 169.523063
 6438         h1    168    ccc    H35   6438 0.06278000   1.008000   ; qtot 169.585843
 6439         h1    168    ccc    H36   6439 0.06278000   1.008000   ; qtot 169.648623
 6440         oh    168    ccc    O12   6440 -0.59472000  16.000000   ; qtot 169.053903
 6441         ho    168    ccc    H37   6441 0.41908000   1.008000   ; qtot 169.472983
 6442         os    168    ccc    O13   6442 -0.44552000  16.000000   ; qtot 169.027463
 6443         ho    168    ccc    H38   6443 0.41908000   1.008000   ; qtot 169.446543
 6444         h1    168    ccc    H39   6444 0.08578000   1.008000   ; qtot 169.532323
 6445         oh    168    ccc     O5   6445 -0.58672000  16.000000   ; qtot 168.945603
 6446         ho    168    ccc    H40   6446 0.41908000   1.008000   ; qtot 169.364683
 6447         n3    168    ccc     N4   6447 -0.54282000  14.010000   ; qtot 168.821863
 6448         hn    168    ccc    H41   6448 0.17125500   1.008000   ; qtot 168.993118
; residue  169 ccc rtp ccc q 1.0
 6449          n    169    ccc     N1   6449 -0.33303000  14.010000   ; qtot 168.660088
 6450         hn    169    ccc     H4   6450 0.25916100   1.008000   ; qtot 168.919249
 6451         c3    169    ccc     C3   6451 -0.03328100  12.010000   ; qtot 168.885968
 6452         h1    169    ccc     H5   6452 0.10618100   1.008000   ; qtot 168.992149
 6453         c3    169    ccc     C4   6453 -0.02083000  12.010000   ; qtot 168.971319
 6454         h1    169    ccc     H6   6454 0.10618100   1.008000   ; qtot 169.077500
 6455         h1    169    ccc     H7   6455 0.07988000   1.008000   ; qtot 169.157380
 6456         h1    169    ccc     H8   6456 0.07988000   1.008000   ; qtot 169.237260
 6457         n4    169    ccc     N2   6457 -0.02747900  14.010000   ; qtot 169.209781
 6458         c3    169    ccc     C5   6458 -0.05097600  12.010000   ; qtot 169.158805
 6459         c3    169    ccc     C6   6459 -0.05097600  12.010000   ; qtot 169.107829
 6460         h1    169    ccc     H9   6460 0.11563300   1.008000   ; qtot 169.223462
 6461         c3    169    ccc     C7   6461 -0.18457900  12.010000   ; qtot 169.038883
 6462         h1    169    ccc    H10   6462 0.11563300   1.008000   ; qtot 169.154516
 6463         hc    169    ccc    H11   6463 0.08347900   1.008000   ; qtot 169.237995
 6464         hc    169    ccc    H12   6464 0.08347900   1.008000   ; qtot 169.321474
 6465          c    169    ccc     C8   6465 0.67254400  12.010000   ; qtot 169.994018
 6466          o    169    ccc     O2   6466 -0.52917200  16.000000   ; qtot 169.464846
 6467         h1    169    ccc    H13   6467 0.11563300   1.008000   ; qtot 169.580479
 6468         h1    169    ccc    H14   6468 0.11563300   1.008000   ; qtot 169.696112
 6469         c3    169    ccc     C9   6469 -0.18457900  12.010000   ; qtot 169.511533
 6470         hc    169    ccc    H15   6470 0.08347900   1.008000   ; qtot 169.595012
 6471         hc    169    ccc    H16   6471 0.08347900   1.008000   ; qtot 169.678491
 6472          c    169    ccc    C10   6472 0.67254400  12.010000   ; qtot 170.351035
 6473          o    169    ccc     O4   6473 -0.52917200  16.000000   ; qtot 169.821863
 6474         c3    169    ccc    C11   6474 0.08518000  12.010000   ; qtot 169.907043
 6475         c3    169    ccc    C12   6475 0.07918000  12.010000   ; qtot 169.986223
 6476         h1    169    ccc    H17   6476 0.06978000   1.008000   ; qtot 170.056003
 6477         c3    169    ccc    C13   6477 0.07918000  12.010000   ; qtot 170.135183
 6478         c3    169    ccc    C14   6478 0.03578000  12.010000   ; qtot 170.170963
 6479         c3    169    ccc    C15   6479 0.33498000  12.010000   ; qtot 170.505943
 6480         h1    169    ccc    H18   6480 0.06178000   1.008000   ; qtot 170.567723
 6481         h1    169    ccc    H19   6481 0.11278000   1.008000   ; qtot 170.680503
 6482         h2    169    ccc    H20   6482 0.12178000   1.008000   ; qtot 170.802283
 6483         oh    169    ccc     O1   6483 -0.56972000  16.000000   ; qtot 170.232563
 6484         oh    169    ccc     O6   6484 -0.57772000  16.000000   ; qtot 169.654843
 6485         c3    169    ccc    C16   6485 0.14548000  12.010000   ; qtot 169.800323
 6486         ho    169    ccc    H21   6486 0.40508000   1.008000   ; qtot 170.205403
 6487         hn    169    ccc    H22   6487 0.31758000   1.008000   ; qtot 170.522983
 6488         h1    169    ccc    H23   6488 0.06278000   1.008000   ; qtot 170.585763
 6489         h1    169    ccc    H24   6489 0.06278000   1.008000   ; qtot 170.648543
 6490         oh    169    ccc     O7   6490 -0.59472000  16.000000   ; qtot 170.053823
 6491         ho    169    ccc    H25   6491 0.41908000   1.008000   ; qtot 170.472903
 6492         os    169    ccc     O8   6492 -0.44552000  16.000000   ; qtot 170.027383
 6493         ho    169    ccc    H26   6493 0.41908000   1.008000   ; qtot 170.446463
 6494         h1    169    ccc    H27   6494 0.08578000   1.008000   ; qtot 170.532243
 6495         oh    169    ccc     O9   6495 -0.58672000  16.000000   ; qtot 169.945523
 6496         ho    169    ccc    H28   6496 0.41908000   1.008000   ; qtot 170.364603
 6497         n3    169    ccc     N3   6497 -0.54282000  14.010000   ; qtot 169.821783
 6498         c3    169    ccc    C17   6498 0.08518000  12.010000   ; qtot 169.906963
 6499         c3    169    ccc    C18   6499 0.07918000  12.010000   ; qtot 169.986143
 6500         h1    169    ccc    H29   6500 0.06978000   1.008000   ; qtot 170.055923
 6501         c3    169    ccc    C19   6501 0.07918000  12.010000   ; qtot 170.135103
 6502         c3    169    ccc    C20   6502 0.03578000  12.010000   ; qtot 170.170883
 6503         c3    169    ccc    C21   6503 0.33498000  12.010000   ; qtot 170.505863
 6504         h1    169    ccc    H30   6504 0.06178000   1.008000   ; qtot 170.567643
 6505         h1    169    ccc    H31   6505 0.11278000   1.008000   ; qtot 170.680423
 6506         h2    169    ccc    H32   6506 0.12178000   1.008000   ; qtot 170.802203
 6507         oh    169    ccc    O10   6507 -0.56972000  16.000000   ; qtot 170.232483
 6508         oh    169    ccc    O11   6508 -0.57772000  16.000000   ; qtot 169.654763
 6509         c3    169    ccc    C22   6509 0.14548000  12.010000   ; qtot 169.800243
 6510         ho    169    ccc    H33   6510 0.40508000   1.008000   ; qtot 170.205323
 6511         hn    169    ccc    H34   6511 0.31758000   1.008000   ; qtot 170.522903
 6512         h1    169    ccc    H35   6512 0.06278000   1.008000   ; qtot 170.585683
 6513         h1    169    ccc    H36   6513 0.06278000   1.008000   ; qtot 170.648463
 6514         oh    169    ccc    O12   6514 -0.59472000  16.000000   ; qtot 170.053743
 6515         ho    169    ccc    H37   6515 0.41908000   1.008000   ; qtot 170.472823
 6516         os    169    ccc    O13   6516 -0.44552000  16.000000   ; qtot 170.027303
 6517         ho    169    ccc    H38   6517 0.41908000   1.008000   ; qtot 170.446383
 6518         h1    169    ccc    H39   6518 0.08578000   1.008000   ; qtot 170.532163
 6519         oh    169    ccc     O5   6519 -0.58672000  16.000000   ; qtot 169.945443
 6520         ho    169    ccc    H40   6520 0.41908000   1.008000   ; qtot 170.364523
 6521         n3    169    ccc     N4   6521 -0.54282000  14.010000   ; qtot 169.821703
 6522         hn    169    ccc    H41   6522 0.17125500   1.008000   ; qtot 169.992958
; residue  170 ccc rtp ccc q 1.0
 6523          n    170    ccc     N1   6523 -0.33303000  14.010000   ; qtot 169.659928
 6524         hn    170    ccc     H4   6524 0.25916100   1.008000   ; qtot 169.919089
 6525         c3    170    ccc     C3   6525 -0.03328100  12.010000   ; qtot 169.885808
 6526         h1    170    ccc     H5   6526 0.10618100   1.008000   ; qtot 169.991989
 6527         c3    170    ccc     C4   6527 -0.02083000  12.010000   ; qtot 169.971159
 6528         h1    170    ccc     H6   6528 0.10618100   1.008000   ; qtot 170.077340
 6529         h1    170    ccc     H7   6529 0.07988000   1.008000   ; qtot 170.157220
 6530         h1    170    ccc     H8   6530 0.07988000   1.008000   ; qtot 170.237100
 6531         n4    170    ccc     N2   6531 -0.02747900  14.010000   ; qtot 170.209621
 6532         c3    170    ccc     C5   6532 -0.05097600  12.010000   ; qtot 170.158645
 6533         c3    170    ccc     C6   6533 -0.05097600  12.010000   ; qtot 170.107669
 6534         h1    170    ccc     H9   6534 0.11563300   1.008000   ; qtot 170.223302
 6535         c3    170    ccc     C7   6535 -0.18457900  12.010000   ; qtot 170.038723
 6536         h1    170    ccc    H10   6536 0.11563300   1.008000   ; qtot 170.154356
 6537         hc    170    ccc    H11   6537 0.08347900   1.008000   ; qtot 170.237835
 6538         hc    170    ccc    H12   6538 0.08347900   1.008000   ; qtot 170.321314
 6539          c    170    ccc     C8   6539 0.67254400  12.010000   ; qtot 170.993858
 6540          o    170    ccc     O2   6540 -0.52917200  16.000000   ; qtot 170.464686
 6541         h1    170    ccc    H13   6541 0.11563300   1.008000   ; qtot 170.580319
 6542         h1    170    ccc    H14   6542 0.11563300   1.008000   ; qtot 170.695952
 6543         c3    170    ccc     C9   6543 -0.18457900  12.010000   ; qtot 170.511373
 6544         hc    170    ccc    H15   6544 0.08347900   1.008000   ; qtot 170.594852
 6545         hc    170    ccc    H16   6545 0.08347900   1.008000   ; qtot 170.678331
 6546          c    170    ccc    C10   6546 0.67254400  12.010000   ; qtot 171.350875
 6547          o    170    ccc     O4   6547 -0.52917200  16.000000   ; qtot 170.821703
 6548         c3    170    ccc    C11   6548 0.08518000  12.010000   ; qtot 170.906883
 6549         c3    170    ccc    C12   6549 0.07918000  12.010000   ; qtot 170.986063
 6550         h1    170    ccc    H17   6550 0.06978000   1.008000   ; qtot 171.055843
 6551         c3    170    ccc    C13   6551 0.07918000  12.010000   ; qtot 171.135023
 6552         c3    170    ccc    C14   6552 0.03578000  12.010000   ; qtot 171.170803
 6553         c3    170    ccc    C15   6553 0.33498000  12.010000   ; qtot 171.505783
 6554         h1    170    ccc    H18   6554 0.06178000   1.008000   ; qtot 171.567563
 6555         h1    170    ccc    H19   6555 0.11278000   1.008000   ; qtot 171.680343
 6556         h2    170    ccc    H20   6556 0.12178000   1.008000   ; qtot 171.802123
 6557         oh    170    ccc     O1   6557 -0.56972000  16.000000   ; qtot 171.232403
 6558         oh    170    ccc     O6   6558 -0.57772000  16.000000   ; qtot 170.654683
 6559         c3    170    ccc    C16   6559 0.14548000  12.010000   ; qtot 170.800163
 6560         ho    170    ccc    H21   6560 0.40508000   1.008000   ; qtot 171.205243
 6561         hn    170    ccc    H22   6561 0.31758000   1.008000   ; qtot 171.522823
 6562         h1    170    ccc    H23   6562 0.06278000   1.008000   ; qtot 171.585603
 6563         h1    170    ccc    H24   6563 0.06278000   1.008000   ; qtot 171.648383
 6564         oh    170    ccc     O7   6564 -0.59472000  16.000000   ; qtot 171.053663
 6565         ho    170    ccc    H25   6565 0.41908000   1.008000   ; qtot 171.472743
 6566         os    170    ccc     O8   6566 -0.44552000  16.000000   ; qtot 171.027223
 6567         ho    170    ccc    H26   6567 0.41908000   1.008000   ; qtot 171.446303
 6568         h1    170    ccc    H27   6568 0.08578000   1.008000   ; qtot 171.532083
 6569         oh    170    ccc     O9   6569 -0.58672000  16.000000   ; qtot 170.945363
 6570         ho    170    ccc    H28   6570 0.41908000   1.008000   ; qtot 171.364443
 6571         n3    170    ccc     N3   6571 -0.54282000  14.010000   ; qtot 170.821623
 6572         c3    170    ccc    C17   6572 0.08518000  12.010000   ; qtot 170.906803
 6573         c3    170    ccc    C18   6573 0.07918000  12.010000   ; qtot 170.985983
 6574         h1    170    ccc    H29   6574 0.06978000   1.008000   ; qtot 171.055763
 6575         c3    170    ccc    C19   6575 0.07918000  12.010000   ; qtot 171.134943
 6576         c3    170    ccc    C20   6576 0.03578000  12.010000   ; qtot 171.170723
 6577         c3    170    ccc    C21   6577 0.33498000  12.010000   ; qtot 171.505703
 6578         h1    170    ccc    H30   6578 0.06178000   1.008000   ; qtot 171.567483
 6579         h1    170    ccc    H31   6579 0.11278000   1.008000   ; qtot 171.680263
 6580         h2    170    ccc    H32   6580 0.12178000   1.008000   ; qtot 171.802043
 6581         oh    170    ccc    O10   6581 -0.56972000  16.000000   ; qtot 171.232323
 6582         oh    170    ccc    O11   6582 -0.57772000  16.000000   ; qtot 170.654603
 6583         c3    170    ccc    C22   6583 0.14548000  12.010000   ; qtot 170.800083
 6584         ho    170    ccc    H33   6584 0.40508000   1.008000   ; qtot 171.205163
 6585         hn    170    ccc    H34   6585 0.31758000   1.008000   ; qtot 171.522743
 6586         h1    170    ccc    H35   6586 0.06278000   1.008000   ; qtot 171.585523
 6587         h1    170    ccc    H36   6587 0.06278000   1.008000   ; qtot 171.648303
 6588         oh    170    ccc    O12   6588 -0.59472000  16.000000   ; qtot 171.053583
 6589         ho    170    ccc    H37   6589 0.41908000   1.008000   ; qtot 171.472663
 6590         os    170    ccc    O13   6590 -0.44552000  16.000000   ; qtot 171.027143
 6591         ho    170    ccc    H38   6591 0.41908000   1.008000   ; qtot 171.446223
 6592         h1    170    ccc    H39   6592 0.08578000   1.008000   ; qtot 171.532003
 6593         oh    170    ccc     O5   6593 -0.58672000  16.000000   ; qtot 170.945283
 6594         ho    170    ccc    H40   6594 0.41908000   1.008000   ; qtot 171.364363
 6595         n3    170    ccc     N4   6595 -0.54282000  14.010000   ; qtot 170.821543
 6596         hn    170    ccc    H41   6596 0.17125500   1.008000   ; qtot 170.992798
; residue  171 ccc rtp ccc q 1.0
 6597          n    171    ccc     N1   6597 -0.33303000  14.010000   ; qtot 170.659768
 6598         hn    171    ccc     H4   6598 0.25916100   1.008000   ; qtot 170.918929
 6599         c3    171    ccc     C3   6599 -0.03328100  12.010000   ; qtot 170.885648
 6600         h1    171    ccc     H5   6600 0.10618100   1.008000   ; qtot 170.991829
 6601         c3    171    ccc     C4   6601 -0.02083000  12.010000   ; qtot 170.970999
 6602         h1    171    ccc     H6   6602 0.10618100   1.008000   ; qtot 171.077180
 6603         h1    171    ccc     H7   6603 0.07988000   1.008000   ; qtot 171.157060
 6604         h1    171    ccc     H8   6604 0.07988000   1.008000   ; qtot 171.236940
 6605         n4    171    ccc     N2   6605 -0.02747900  14.010000   ; qtot 171.209461
 6606         c3    171    ccc     C5   6606 -0.05097600  12.010000   ; qtot 171.158485
 6607         c3    171    ccc     C6   6607 -0.05097600  12.010000   ; qtot 171.107509
 6608         h1    171    ccc     H9   6608 0.11563300   1.008000   ; qtot 171.223142
 6609         c3    171    ccc     C7   6609 -0.18457900  12.010000   ; qtot 171.038563
 6610         h1    171    ccc    H10   6610 0.11563300   1.008000   ; qtot 171.154196
 6611         hc    171    ccc    H11   6611 0.08347900   1.008000   ; qtot 171.237675
 6612         hc    171    ccc    H12   6612 0.08347900   1.008000   ; qtot 171.321154
 6613          c    171    ccc     C8   6613 0.67254400  12.010000   ; qtot 171.993698
 6614          o    171    ccc     O2   6614 -0.52917200  16.000000   ; qtot 171.464526
 6615         h1    171    ccc    H13   6615 0.11563300   1.008000   ; qtot 171.580159
 6616         h1    171    ccc    H14   6616 0.11563300   1.008000   ; qtot 171.695792
 6617         c3    171    ccc     C9   6617 -0.18457900  12.010000   ; qtot 171.511213
 6618         hc    171    ccc    H15   6618 0.08347900   1.008000   ; qtot 171.594692
 6619         hc    171    ccc    H16   6619 0.08347900   1.008000   ; qtot 171.678171
 6620          c    171    ccc    C10   6620 0.67254400  12.010000   ; qtot 172.350715
 6621          o    171    ccc     O4   6621 -0.52917200  16.000000   ; qtot 171.821543
 6622         c3    171    ccc    C11   6622 0.08518000  12.010000   ; qtot 171.906723
 6623         c3    171    ccc    C12   6623 0.07918000  12.010000   ; qtot 171.985903
 6624         h1    171    ccc    H17   6624 0.06978000   1.008000   ; qtot 172.055683
 6625         c3    171    ccc    C13   6625 0.07918000  12.010000   ; qtot 172.134863
 6626         c3    171    ccc    C14   6626 0.03578000  12.010000   ; qtot 172.170643
 6627         c3    171    ccc    C15   6627 0.33498000  12.010000   ; qtot 172.505623
 6628         h1    171    ccc    H18   6628 0.06178000   1.008000   ; qtot 172.567403
 6629         h1    171    ccc    H19   6629 0.11278000   1.008000   ; qtot 172.680183
 6630         h2    171    ccc    H20   6630 0.12178000   1.008000   ; qtot 172.801963
 6631         oh    171    ccc     O1   6631 -0.56972000  16.000000   ; qtot 172.232243
 6632         oh    171    ccc     O6   6632 -0.57772000  16.000000   ; qtot 171.654523
 6633         c3    171    ccc    C16   6633 0.14548000  12.010000   ; qtot 171.800003
 6634         ho    171    ccc    H21   6634 0.40508000   1.008000   ; qtot 172.205083
 6635         hn    171    ccc    H22   6635 0.31758000   1.008000   ; qtot 172.522663
 6636         h1    171    ccc    H23   6636 0.06278000   1.008000   ; qtot 172.585443
 6637         h1    171    ccc    H24   6637 0.06278000   1.008000   ; qtot 172.648223
 6638         oh    171    ccc     O7   6638 -0.59472000  16.000000   ; qtot 172.053503
 6639         ho    171    ccc    H25   6639 0.41908000   1.008000   ; qtot 172.472583
 6640         os    171    ccc     O8   6640 -0.44552000  16.000000   ; qtot 172.027063
 6641         ho    171    ccc    H26   6641 0.41908000   1.008000   ; qtot 172.446143
 6642         h1    171    ccc    H27   6642 0.08578000   1.008000   ; qtot 172.531923
 6643         oh    171    ccc     O9   6643 -0.58672000  16.000000   ; qtot 171.945203
 6644         ho    171    ccc    H28   6644 0.41908000   1.008000   ; qtot 172.364283
 6645         n3    171    ccc     N3   6645 -0.54282000  14.010000   ; qtot 171.821463
 6646         c3    171    ccc    C17   6646 0.08518000  12.010000   ; qtot 171.906643
 6647         c3    171    ccc    C18   6647 0.07918000  12.010000   ; qtot 171.985823
 6648         h1    171    ccc    H29   6648 0.06978000   1.008000   ; qtot 172.055603
 6649         c3    171    ccc    C19   6649 0.07918000  12.010000   ; qtot 172.134783
 6650         c3    171    ccc    C20   6650 0.03578000  12.010000   ; qtot 172.170563
 6651         c3    171    ccc    C21   6651 0.33498000  12.010000   ; qtot 172.505543
 6652         h1    171    ccc    H30   6652 0.06178000   1.008000   ; qtot 172.567323
 6653         h1    171    ccc    H31   6653 0.11278000   1.008000   ; qtot 172.680103
 6654         h2    171    ccc    H32   6654 0.12178000   1.008000   ; qtot 172.801883
 6655         oh    171    ccc    O10   6655 -0.56972000  16.000000   ; qtot 172.232163
 6656         oh    171    ccc    O11   6656 -0.57772000  16.000000   ; qtot 171.654443
 6657         c3    171    ccc    C22   6657 0.14548000  12.010000   ; qtot 171.799923
 6658         ho    171    ccc    H33   6658 0.40508000   1.008000   ; qtot 172.205003
 6659         hn    171    ccc    H34   6659 0.31758000   1.008000   ; qtot 172.522583
 6660         h1    171    ccc    H35   6660 0.06278000   1.008000   ; qtot 172.585363
 6661         h1    171    ccc    H36   6661 0.06278000   1.008000   ; qtot 172.648143
 6662         oh    171    ccc    O12   6662 -0.59472000  16.000000   ; qtot 172.053423
 6663         ho    171    ccc    H37   6663 0.41908000   1.008000   ; qtot 172.472503
 6664         os    171    ccc    O13   6664 -0.44552000  16.000000   ; qtot 172.026983
 6665         ho    171    ccc    H38   6665 0.41908000   1.008000   ; qtot 172.446063
 6666         h1    171    ccc    H39   6666 0.08578000   1.008000   ; qtot 172.531843
 6667         oh    171    ccc     O5   6667 -0.58672000  16.000000   ; qtot 171.945123
 6668         ho    171    ccc    H40   6668 0.41908000   1.008000   ; qtot 172.364203
 6669         n3    171    ccc     N4   6669 -0.54282000  14.010000   ; qtot 171.821383
 6670         hn    171    ccc    H41   6670 0.17125500   1.008000   ; qtot 171.992638
; residue  172 ccc rtp ccc q 1.0
 6671          n    172    ccc     N1   6671 -0.33303000  14.010000   ; qtot 171.659608
 6672         hn    172    ccc     H4   6672 0.25916100   1.008000   ; qtot 171.918769
 6673         c3    172    ccc     C3   6673 -0.03328100  12.010000   ; qtot 171.885488
 6674         h1    172    ccc     H5   6674 0.10618100   1.008000   ; qtot 171.991669
 6675         c3    172    ccc     C4   6675 -0.02083000  12.010000   ; qtot 171.970839
 6676         h1    172    ccc     H6   6676 0.10618100   1.008000   ; qtot 172.077020
 6677         h1    172    ccc     H7   6677 0.07988000   1.008000   ; qtot 172.156900
 6678         h1    172    ccc     H8   6678 0.07988000   1.008000   ; qtot 172.236780
 6679         n4    172    ccc     N2   6679 -0.02747900  14.010000   ; qtot 172.209301
 6680         c3    172    ccc     C5   6680 -0.05097600  12.010000   ; qtot 172.158325
 6681         c3    172    ccc     C6   6681 -0.05097600  12.010000   ; qtot 172.107349
 6682         h1    172    ccc     H9   6682 0.11563300   1.008000   ; qtot 172.222982
 6683         c3    172    ccc     C7   6683 -0.18457900  12.010000   ; qtot 172.038403
 6684         h1    172    ccc    H10   6684 0.11563300   1.008000   ; qtot 172.154036
 6685         hc    172    ccc    H11   6685 0.08347900   1.008000   ; qtot 172.237515
 6686         hc    172    ccc    H12   6686 0.08347900   1.008000   ; qtot 172.320994
 6687          c    172    ccc     C8   6687 0.67254400  12.010000   ; qtot 172.993538
 6688          o    172    ccc     O2   6688 -0.52917200  16.000000   ; qtot 172.464366
 6689         h1    172    ccc    H13   6689 0.11563300   1.008000   ; qtot 172.579999
 6690         h1    172    ccc    H14   6690 0.11563300   1.008000   ; qtot 172.695632
 6691         c3    172    ccc     C9   6691 -0.18457900  12.010000   ; qtot 172.511053
 6692         hc    172    ccc    H15   6692 0.08347900   1.008000   ; qtot 172.594532
 6693         hc    172    ccc    H16   6693 0.08347900   1.008000   ; qtot 172.678011
 6694          c    172    ccc    C10   6694 0.67254400  12.010000   ; qtot 173.350555
 6695          o    172    ccc     O4   6695 -0.52917200  16.000000   ; qtot 172.821383
 6696         c3    172    ccc    C11   6696 0.08518000  12.010000   ; qtot 172.906563
 6697         c3    172    ccc    C12   6697 0.07918000  12.010000   ; qtot 172.985743
 6698         h1    172    ccc    H17   6698 0.06978000   1.008000   ; qtot 173.055523
 6699         c3    172    ccc    C13   6699 0.07918000  12.010000   ; qtot 173.134703
 6700         c3    172    ccc    C14   6700 0.03578000  12.010000   ; qtot 173.170483
 6701         c3    172    ccc    C15   6701 0.33498000  12.010000   ; qtot 173.505463
 6702         h1    172    ccc    H18   6702 0.06178000   1.008000   ; qtot 173.567243
 6703         h1    172    ccc    H19   6703 0.11278000   1.008000   ; qtot 173.680023
 6704         h2    172    ccc    H20   6704 0.12178000   1.008000   ; qtot 173.801803
 6705         oh    172    ccc     O1   6705 -0.56972000  16.000000   ; qtot 173.232083
 6706         oh    172    ccc     O6   6706 -0.57772000  16.000000   ; qtot 172.654363
 6707         c3    172    ccc    C16   6707 0.14548000  12.010000   ; qtot 172.799843
 6708         ho    172    ccc    H21   6708 0.40508000   1.008000   ; qtot 173.204923
 6709         hn    172    ccc    H22   6709 0.31758000   1.008000   ; qtot 173.522503
 6710         h1    172    ccc    H23   6710 0.06278000   1.008000   ; qtot 173.585283
 6711         h1    172    ccc    H24   6711 0.06278000   1.008000   ; qtot 173.648063
 6712         oh    172    ccc     O7   6712 -0.59472000  16.000000   ; qtot 173.053343
 6713         ho    172    ccc    H25   6713 0.41908000   1.008000   ; qtot 173.472423
 6714         os    172    ccc     O8   6714 -0.44552000  16.000000   ; qtot 173.026903
 6715         ho    172    ccc    H26   6715 0.41908000   1.008000   ; qtot 173.445983
 6716         h1    172    ccc    H27   6716 0.08578000   1.008000   ; qtot 173.531763
 6717         oh    172    ccc     O9   6717 -0.58672000  16.000000   ; qtot 172.945043
 6718         ho    172    ccc    H28   6718 0.41908000   1.008000   ; qtot 173.364123
 6719         n3    172    ccc     N3   6719 -0.54282000  14.010000   ; qtot 172.821303
 6720         c3    172    ccc    C17   6720 0.08518000  12.010000   ; qtot 172.906483
 6721         c3    172    ccc    C18   6721 0.07918000  12.010000   ; qtot 172.985663
 6722         h1    172    ccc    H29   6722 0.06978000   1.008000   ; qtot 173.055443
 6723         c3    172    ccc    C19   6723 0.07918000  12.010000   ; qtot 173.134623
 6724         c3    172    ccc    C20   6724 0.03578000  12.010000   ; qtot 173.170403
 6725         c3    172    ccc    C21   6725 0.33498000  12.010000   ; qtot 173.505383
 6726         h1    172    ccc    H30   6726 0.06178000   1.008000   ; qtot 173.567163
 6727         h1    172    ccc    H31   6727 0.11278000   1.008000   ; qtot 173.679943
 6728         h2    172    ccc    H32   6728 0.12178000   1.008000   ; qtot 173.801723
 6729         oh    172    ccc    O10   6729 -0.56972000  16.000000   ; qtot 173.232003
 6730         oh    172    ccc    O11   6730 -0.57772000  16.000000   ; qtot 172.654283
 6731         c3    172    ccc    C22   6731 0.14548000  12.010000   ; qtot 172.799763
 6732         ho    172    ccc    H33   6732 0.40508000   1.008000   ; qtot 173.204843
 6733         hn    172    ccc    H34   6733 0.31758000   1.008000   ; qtot 173.522423
 6734         h1    172    ccc    H35   6734 0.06278000   1.008000   ; qtot 173.585203
 6735         h1    172    ccc    H36   6735 0.06278000   1.008000   ; qtot 173.647983
 6736         oh    172    ccc    O12   6736 -0.59472000  16.000000   ; qtot 173.053263
 6737         ho    172    ccc    H37   6737 0.41908000   1.008000   ; qtot 173.472343
 6738         os    172    ccc    O13   6738 -0.44552000  16.000000   ; qtot 173.026823
 6739         ho    172    ccc    H38   6739 0.41908000   1.008000   ; qtot 173.445903
 6740         h1    172    ccc    H39   6740 0.08578000   1.008000   ; qtot 173.531683
 6741         oh    172    ccc     O5   6741 -0.58672000  16.000000   ; qtot 172.944963
 6742         ho    172    ccc    H40   6742 0.41908000   1.008000   ; qtot 173.364043
 6743         n3    172    ccc     N4   6743 -0.54282000  14.010000   ; qtot 172.821223
 6744         hn    172    ccc    H41   6744 0.17125500   1.008000   ; qtot 172.992478
; residue  173 ccc rtp ccc q 1.0
 6745          n    173    ccc     N1   6745 -0.33303000  14.010000   ; qtot 172.659448
 6746         hn    173    ccc     H4   6746 0.25916100   1.008000   ; qtot 172.918609
 6747         c3    173    ccc     C3   6747 -0.03328100  12.010000   ; qtot 172.885328
 6748         h1    173    ccc     H5   6748 0.10618100   1.008000   ; qtot 172.991509
 6749         c3    173    ccc     C4   6749 -0.02083000  12.010000   ; qtot 172.970679
 6750         h1    173    ccc     H6   6750 0.10618100   1.008000   ; qtot 173.076860
 6751         h1    173    ccc     H7   6751 0.07988000   1.008000   ; qtot 173.156740
 6752         h1    173    ccc     H8   6752 0.07988000   1.008000   ; qtot 173.236620
 6753         n4    173    ccc     N2   6753 -0.02747900  14.010000   ; qtot 173.209141
 6754         c3    173    ccc     C5   6754 -0.05097600  12.010000   ; qtot 173.158165
 6755         c3    173    ccc     C6   6755 -0.05097600  12.010000   ; qtot 173.107189
 6756         h1    173    ccc     H9   6756 0.11563300   1.008000   ; qtot 173.222822
 6757         c3    173    ccc     C7   6757 -0.18457900  12.010000   ; qtot 173.038243
 6758         h1    173    ccc    H10   6758 0.11563300   1.008000   ; qtot 173.153876
 6759         hc    173    ccc    H11   6759 0.08347900   1.008000   ; qtot 173.237355
 6760         hc    173    ccc    H12   6760 0.08347900   1.008000   ; qtot 173.320834
 6761          c    173    ccc     C8   6761 0.67254400  12.010000   ; qtot 173.993378
 6762          o    173    ccc     O2   6762 -0.52917200  16.000000   ; qtot 173.464206
 6763         h1    173    ccc    H13   6763 0.11563300   1.008000   ; qtot 173.579839
 6764         h1    173    ccc    H14   6764 0.11563300   1.008000   ; qtot 173.695472
 6765         c3    173    ccc     C9   6765 -0.18457900  12.010000   ; qtot 173.510893
 6766         hc    173    ccc    H15   6766 0.08347900   1.008000   ; qtot 173.594372
 6767         hc    173    ccc    H16   6767 0.08347900   1.008000   ; qtot 173.677851
 6768          c    173    ccc    C10   6768 0.67254400  12.010000   ; qtot 174.350395
 6769          o    173    ccc     O4   6769 -0.52917200  16.000000   ; qtot 173.821223
 6770         c3    173    ccc    C11   6770 0.08518000  12.010000   ; qtot 173.906403
 6771         c3    173    ccc    C12   6771 0.07918000  12.010000   ; qtot 173.985583
 6772         h1    173    ccc    H17   6772 0.06978000   1.008000   ; qtot 174.055363
 6773         c3    173    ccc    C13   6773 0.07918000  12.010000   ; qtot 174.134543
 6774         c3    173    ccc    C14   6774 0.03578000  12.010000   ; qtot 174.170323
 6775         c3    173    ccc    C15   6775 0.33498000  12.010000   ; qtot 174.505303
 6776         h1    173    ccc    H18   6776 0.06178000   1.008000   ; qtot 174.567083
 6777         h1    173    ccc    H19   6777 0.11278000   1.008000   ; qtot 174.679863
 6778         h2    173    ccc    H20   6778 0.12178000   1.008000   ; qtot 174.801643
 6779         oh    173    ccc     O1   6779 -0.56972000  16.000000   ; qtot 174.231923
 6780         oh    173    ccc     O6   6780 -0.57772000  16.000000   ; qtot 173.654203
 6781         c3    173    ccc    C16   6781 0.14548000  12.010000   ; qtot 173.799683
 6782         ho    173    ccc    H21   6782 0.40508000   1.008000   ; qtot 174.204763
 6783         hn    173    ccc    H22   6783 0.31758000   1.008000   ; qtot 174.522343
 6784         h1    173    ccc    H23   6784 0.06278000   1.008000   ; qtot 174.585123
 6785         h1    173    ccc    H24   6785 0.06278000   1.008000   ; qtot 174.647903
 6786         oh    173    ccc     O7   6786 -0.59472000  16.000000   ; qtot 174.053183
 6787         ho    173    ccc    H25   6787 0.41908000   1.008000   ; qtot 174.472263
 6788         os    173    ccc     O8   6788 -0.44552000  16.000000   ; qtot 174.026743
 6789         ho    173    ccc    H26   6789 0.41908000   1.008000   ; qtot 174.445823
 6790         h1    173    ccc    H27   6790 0.08578000   1.008000   ; qtot 174.531603
 6791         oh    173    ccc     O9   6791 -0.58672000  16.000000   ; qtot 173.944883
 6792         ho    173    ccc    H28   6792 0.41908000   1.008000   ; qtot 174.363963
 6793         n3    173    ccc     N3   6793 -0.54282000  14.010000   ; qtot 173.821143
 6794         c3    173    ccc    C17   6794 0.08518000  12.010000   ; qtot 173.906323
 6795         c3    173    ccc    C18   6795 0.07918000  12.010000   ; qtot 173.985503
 6796         h1    173    ccc    H29   6796 0.06978000   1.008000   ; qtot 174.055283
 6797         c3    173    ccc    C19   6797 0.07918000  12.010000   ; qtot 174.134463
 6798         c3    173    ccc    C20   6798 0.03578000  12.010000   ; qtot 174.170243
 6799         c3    173    ccc    C21   6799 0.33498000  12.010000   ; qtot 174.505223
 6800         h1    173    ccc    H30   6800 0.06178000   1.008000   ; qtot 174.567003
 6801         h1    173    ccc    H31   6801 0.11278000   1.008000   ; qtot 174.679783
 6802         h2    173    ccc    H32   6802 0.12178000   1.008000   ; qtot 174.801563
 6803         oh    173    ccc    O10   6803 -0.56972000  16.000000   ; qtot 174.231843
 6804         oh    173    ccc    O11   6804 -0.57772000  16.000000   ; qtot 173.654123
 6805         c3    173    ccc    C22   6805 0.14548000  12.010000   ; qtot 173.799603
 6806         ho    173    ccc    H33   6806 0.40508000   1.008000   ; qtot 174.204683
 6807         hn    173    ccc    H34   6807 0.31758000   1.008000   ; qtot 174.522263
 6808         h1    173    ccc    H35   6808 0.06278000   1.008000   ; qtot 174.585043
 6809         h1    173    ccc    H36   6809 0.06278000   1.008000   ; qtot 174.647823
 6810         oh    173    ccc    O12   6810 -0.59472000  16.000000   ; qtot 174.053103
 6811         ho    173    ccc    H37   6811 0.41908000   1.008000   ; qtot 174.472183
 6812         os    173    ccc    O13   6812 -0.44552000  16.000000   ; qtot 174.026663
 6813         ho    173    ccc    H38   6813 0.41908000   1.008000   ; qtot 174.445743
 6814         h1    173    ccc    H39   6814 0.08578000   1.008000   ; qtot 174.531523
 6815         oh    173    ccc     O5   6815 -0.58672000  16.000000   ; qtot 173.944803
 6816         ho    173    ccc    H40   6816 0.41908000   1.008000   ; qtot 174.363883
 6817         n3    173    ccc     N4   6817 -0.54282000  14.010000   ; qtot 173.821063
 6818         hn    173    ccc    H41   6818 0.17125500   1.008000   ; qtot 173.992318
; residue  174 ccc rtp ccc q 1.0
 6819          n    174    ccc     N1   6819 -0.33303000  14.010000   ; qtot 173.659288
 6820         hn    174    ccc     H4   6820 0.25916100   1.008000   ; qtot 173.918449
 6821         c3    174    ccc     C3   6821 -0.03328100  12.010000   ; qtot 173.885168
 6822         h1    174    ccc     H5   6822 0.10618100   1.008000   ; qtot 173.991349
 6823         c3    174    ccc     C4   6823 -0.02083000  12.010000   ; qtot 173.970519
 6824         h1    174    ccc     H6   6824 0.10618100   1.008000   ; qtot 174.076700
 6825         h1    174    ccc     H7   6825 0.07988000   1.008000   ; qtot 174.156580
 6826         h1    174    ccc     H8   6826 0.07988000   1.008000   ; qtot 174.236460
 6827         n4    174    ccc     N2   6827 -0.02747900  14.010000   ; qtot 174.208981
 6828         c3    174    ccc     C5   6828 -0.05097600  12.010000   ; qtot 174.158005
 6829         c3    174    ccc     C6   6829 -0.05097600  12.010000   ; qtot 174.107029
 6830         h1    174    ccc     H9   6830 0.11563300   1.008000   ; qtot 174.222662
 6831         c3    174    ccc     C7   6831 -0.18457900  12.010000   ; qtot 174.038083
 6832         h1    174    ccc    H10   6832 0.11563300   1.008000   ; qtot 174.153716
 6833         hc    174    ccc    H11   6833 0.08347900   1.008000   ; qtot 174.237195
 6834         hc    174    ccc    H12   6834 0.08347900   1.008000   ; qtot 174.320674
 6835          c    174    ccc     C8   6835 0.67254400  12.010000   ; qtot 174.993218
 6836          o    174    ccc     O2   6836 -0.52917200  16.000000   ; qtot 174.464046
 6837         h1    174    ccc    H13   6837 0.11563300   1.008000   ; qtot 174.579679
 6838         h1    174    ccc    H14   6838 0.11563300   1.008000   ; qtot 174.695312
 6839         c3    174    ccc     C9   6839 -0.18457900  12.010000   ; qtot 174.510733
 6840         hc    174    ccc    H15   6840 0.08347900   1.008000   ; qtot 174.594212
 6841         hc    174    ccc    H16   6841 0.08347900   1.008000   ; qtot 174.677691
 6842          c    174    ccc    C10   6842 0.67254400  12.010000   ; qtot 175.350235
 6843          o    174    ccc     O4   6843 -0.52917200  16.000000   ; qtot 174.821063
 6844         c3    174    ccc    C11   6844 0.08518000  12.010000   ; qtot 174.906243
 6845         c3    174    ccc    C12   6845 0.07918000  12.010000   ; qtot 174.985423
 6846         h1    174    ccc    H17   6846 0.06978000   1.008000   ; qtot 175.055203
 6847         c3    174    ccc    C13   6847 0.07918000  12.010000   ; qtot 175.134383
 6848         c3    174    ccc    C14   6848 0.03578000  12.010000   ; qtot 175.170163
 6849         c3    174    ccc    C15   6849 0.33498000  12.010000   ; qtot 175.505143
 6850         h1    174    ccc    H18   6850 0.06178000   1.008000   ; qtot 175.566923
 6851         h1    174    ccc    H19   6851 0.11278000   1.008000   ; qtot 175.679703
 6852         h2    174    ccc    H20   6852 0.12178000   1.008000   ; qtot 175.801483
 6853         oh    174    ccc     O1   6853 -0.56972000  16.000000   ; qtot 175.231763
 6854         oh    174    ccc     O6   6854 -0.57772000  16.000000   ; qtot 174.654043
 6855         c3    174    ccc    C16   6855 0.14548000  12.010000   ; qtot 174.799523
 6856         ho    174    ccc    H21   6856 0.40508000   1.008000   ; qtot 175.204603
 6857         hn    174    ccc    H22   6857 0.31758000   1.008000   ; qtot 175.522183
 6858         h1    174    ccc    H23   6858 0.06278000   1.008000   ; qtot 175.584963
 6859         h1    174    ccc    H24   6859 0.06278000   1.008000   ; qtot 175.647743
 6860         oh    174    ccc     O7   6860 -0.59472000  16.000000   ; qtot 175.053023
 6861         ho    174    ccc    H25   6861 0.41908000   1.008000   ; qtot 175.472103
 6862         os    174    ccc     O8   6862 -0.44552000  16.000000   ; qtot 175.026583
 6863         ho    174    ccc    H26   6863 0.41908000   1.008000   ; qtot 175.445663
 6864         h1    174    ccc    H27   6864 0.08578000   1.008000   ; qtot 175.531443
 6865         oh    174    ccc     O9   6865 -0.58672000  16.000000   ; qtot 174.944723
 6866         ho    174    ccc    H28   6866 0.41908000   1.008000   ; qtot 175.363803
 6867         n3    174    ccc     N3   6867 -0.54282000  14.010000   ; qtot 174.820983
 6868         c3    174    ccc    C17   6868 0.08518000  12.010000   ; qtot 174.906163
 6869         c3    174    ccc    C18   6869 0.07918000  12.010000   ; qtot 174.985343
 6870         h1    174    ccc    H29   6870 0.06978000   1.008000   ; qtot 175.055123
 6871         c3    174    ccc    C19   6871 0.07918000  12.010000   ; qtot 175.134303
 6872         c3    174    ccc    C20   6872 0.03578000  12.010000   ; qtot 175.170083
 6873         c3    174    ccc    C21   6873 0.33498000  12.010000   ; qtot 175.505063
 6874         h1    174    ccc    H30   6874 0.06178000   1.008000   ; qtot 175.566843
 6875         h1    174    ccc    H31   6875 0.11278000   1.008000   ; qtot 175.679623
 6876         h2    174    ccc    H32   6876 0.12178000   1.008000   ; qtot 175.801403
 6877         oh    174    ccc    O10   6877 -0.56972000  16.000000   ; qtot 175.231683
 6878         oh    174    ccc    O11   6878 -0.57772000  16.000000   ; qtot 174.653963
 6879         c3    174    ccc    C22   6879 0.14548000  12.010000   ; qtot 174.799443
 6880         ho    174    ccc    H33   6880 0.40508000   1.008000   ; qtot 175.204523
 6881         hn    174    ccc    H34   6881 0.31758000   1.008000   ; qtot 175.522103
 6882         h1    174    ccc    H35   6882 0.06278000   1.008000   ; qtot 175.584883
 6883         h1    174    ccc    H36   6883 0.06278000   1.008000   ; qtot 175.647663
 6884         oh    174    ccc    O12   6884 -0.59472000  16.000000   ; qtot 175.052943
 6885         ho    174    ccc    H37   6885 0.41908000   1.008000   ; qtot 175.472023
 6886         os    174    ccc    O13   6886 -0.44552000  16.000000   ; qtot 175.026503
 6887         ho    174    ccc    H38   6887 0.41908000   1.008000   ; qtot 175.445583
 6888         h1    174    ccc    H39   6888 0.08578000   1.008000   ; qtot 175.531363
 6889         oh    174    ccc     O5   6889 -0.58672000  16.000000   ; qtot 174.944643
 6890         ho    174    ccc    H40   6890 0.41908000   1.008000   ; qtot 175.363723
 6891         n3    174    ccc     N4   6891 -0.54282000  14.010000   ; qtot 174.820903
 6892         hn    174    ccc    H41   6892 0.17125500   1.008000   ; qtot 174.992158
; residue  175 ccc rtp ccc q 1.0
 6893          n    175    ccc     N1   6893 -0.33303000  14.010000   ; qtot 174.659128
 6894         hn    175    ccc     H4   6894 0.25916100   1.008000   ; qtot 174.918289
 6895         c3    175    ccc     C3   6895 -0.03328100  12.010000   ; qtot 174.885008
 6896         h1    175    ccc     H5   6896 0.10618100   1.008000   ; qtot 174.991189
 6897         c3    175    ccc     C4   6897 -0.02083000  12.010000   ; qtot 174.970359
 6898         h1    175    ccc     H6   6898 0.10618100   1.008000   ; qtot 175.076540
 6899         h1    175    ccc     H7   6899 0.07988000   1.008000   ; qtot 175.156420
 6900         h1    175    ccc     H8   6900 0.07988000   1.008000   ; qtot 175.236300
 6901         n4    175    ccc     N2   6901 -0.02747900  14.010000   ; qtot 175.208821
 6902         c3    175    ccc     C5   6902 -0.05097600  12.010000   ; qtot 175.157845
 6903         c3    175    ccc     C6   6903 -0.05097600  12.010000   ; qtot 175.106869
 6904         h1    175    ccc     H9   6904 0.11563300   1.008000   ; qtot 175.222502
 6905         c3    175    ccc     C7   6905 -0.18457900  12.010000   ; qtot 175.037923
 6906         h1    175    ccc    H10   6906 0.11563300   1.008000   ; qtot 175.153556
 6907         hc    175    ccc    H11   6907 0.08347900   1.008000   ; qtot 175.237035
 6908         hc    175    ccc    H12   6908 0.08347900   1.008000   ; qtot 175.320514
 6909          c    175    ccc     C8   6909 0.67254400  12.010000   ; qtot 175.993058
 6910          o    175    ccc     O2   6910 -0.52917200  16.000000   ; qtot 175.463886
 6911         h1    175    ccc    H13   6911 0.11563300   1.008000   ; qtot 175.579519
 6912         h1    175    ccc    H14   6912 0.11563300   1.008000   ; qtot 175.695152
 6913         c3    175    ccc     C9   6913 -0.18457900  12.010000   ; qtot 175.510573
 6914         hc    175    ccc    H15   6914 0.08347900   1.008000   ; qtot 175.594052
 6915         hc    175    ccc    H16   6915 0.08347900   1.008000   ; qtot 175.677531
 6916          c    175    ccc    C10   6916 0.67254400  12.010000   ; qtot 176.350075
 6917          o    175    ccc     O4   6917 -0.52917200  16.000000   ; qtot 175.820903
 6918         c3    175    ccc    C11   6918 0.08518000  12.010000   ; qtot 175.906083
 6919         c3    175    ccc    C12   6919 0.07918000  12.010000   ; qtot 175.985263
 6920         h1    175    ccc    H17   6920 0.06978000   1.008000   ; qtot 176.055043
 6921         c3    175    ccc    C13   6921 0.07918000  12.010000   ; qtot 176.134223
 6922         c3    175    ccc    C14   6922 0.03578000  12.010000   ; qtot 176.170003
 6923         c3    175    ccc    C15   6923 0.33498000  12.010000   ; qtot 176.504983
 6924         h1    175    ccc    H18   6924 0.06178000   1.008000   ; qtot 176.566763
 6925         h1    175    ccc    H19   6925 0.11278000   1.008000   ; qtot 176.679543
 6926         h2    175    ccc    H20   6926 0.12178000   1.008000   ; qtot 176.801323
 6927         oh    175    ccc     O1   6927 -0.56972000  16.000000   ; qtot 176.231603
 6928         oh    175    ccc     O6   6928 -0.57772000  16.000000   ; qtot 175.653883
 6929         c3    175    ccc    C16   6929 0.14548000  12.010000   ; qtot 175.799363
 6930         ho    175    ccc    H21   6930 0.40508000   1.008000   ; qtot 176.204443
 6931         hn    175    ccc    H22   6931 0.31758000   1.008000   ; qtot 176.522023
 6932         h1    175    ccc    H23   6932 0.06278000   1.008000   ; qtot 176.584803
 6933         h1    175    ccc    H24   6933 0.06278000   1.008000   ; qtot 176.647583
 6934         oh    175    ccc     O7   6934 -0.59472000  16.000000   ; qtot 176.052863
 6935         ho    175    ccc    H25   6935 0.41908000   1.008000   ; qtot 176.471943
 6936         os    175    ccc     O8   6936 -0.44552000  16.000000   ; qtot 176.026423
 6937         ho    175    ccc    H26   6937 0.41908000   1.008000   ; qtot 176.445503
 6938         h1    175    ccc    H27   6938 0.08578000   1.008000   ; qtot 176.531283
 6939         oh    175    ccc     O9   6939 -0.58672000  16.000000   ; qtot 175.944563
 6940         ho    175    ccc    H28   6940 0.41908000   1.008000   ; qtot 176.363643
 6941         n3    175    ccc     N3   6941 -0.54282000  14.010000   ; qtot 175.820823
 6942         c3    175    ccc    C17   6942 0.08518000  12.010000   ; qtot 175.906003
 6943         c3    175    ccc    C18   6943 0.07918000  12.010000   ; qtot 175.985183
 6944         h1    175    ccc    H29   6944 0.06978000   1.008000   ; qtot 176.054963
 6945         c3    175    ccc    C19   6945 0.07918000  12.010000   ; qtot 176.134143
 6946         c3    175    ccc    C20   6946 0.03578000  12.010000   ; qtot 176.169923
 6947         c3    175    ccc    C21   6947 0.33498000  12.010000   ; qtot 176.504903
 6948         h1    175    ccc    H30   6948 0.06178000   1.008000   ; qtot 176.566683
 6949         h1    175    ccc    H31   6949 0.11278000   1.008000   ; qtot 176.679463
 6950         h2    175    ccc    H32   6950 0.12178000   1.008000   ; qtot 176.801243
 6951         oh    175    ccc    O10   6951 -0.56972000  16.000000   ; qtot 176.231523
 6952         oh    175    ccc    O11   6952 -0.57772000  16.000000   ; qtot 175.653803
 6953         c3    175    ccc    C22   6953 0.14548000  12.010000   ; qtot 175.799283
 6954         ho    175    ccc    H33   6954 0.40508000   1.008000   ; qtot 176.204363
 6955         hn    175    ccc    H34   6955 0.31758000   1.008000   ; qtot 176.521943
 6956         h1    175    ccc    H35   6956 0.06278000   1.008000   ; qtot 176.584723
 6957         h1    175    ccc    H36   6957 0.06278000   1.008000   ; qtot 176.647503
 6958         oh    175    ccc    O12   6958 -0.59472000  16.000000   ; qtot 176.052783
 6959         ho    175    ccc    H37   6959 0.41908000   1.008000   ; qtot 176.471863
 6960         os    175    ccc    O13   6960 -0.44552000  16.000000   ; qtot 176.026343
 6961         ho    175    ccc    H38   6961 0.41908000   1.008000   ; qtot 176.445423
 6962         h1    175    ccc    H39   6962 0.08578000   1.008000   ; qtot 176.531203
 6963         oh    175    ccc     O5   6963 -0.58672000  16.000000   ; qtot 175.944483
 6964         ho    175    ccc    H40   6964 0.41908000   1.008000   ; qtot 176.363563
 6965         n3    175    ccc     N4   6965 -0.54282000  14.010000   ; qtot 175.820743
 6966         hn    175    ccc    H41   6966 0.17125500   1.008000   ; qtot 175.991998
; residue  176 ccc rtp ccc q 1.0
 6967          n    176    ccc     N1   6967 -0.33303000  14.010000   ; qtot 175.658968
 6968         hn    176    ccc     H4   6968 0.25916100   1.008000   ; qtot 175.918129
 6969         c3    176    ccc     C3   6969 -0.03328100  12.010000   ; qtot 175.884848
 6970         h1    176    ccc     H5   6970 0.10618100   1.008000   ; qtot 175.991029
 6971         c3    176    ccc     C4   6971 -0.02083000  12.010000   ; qtot 175.970199
 6972         h1    176    ccc     H6   6972 0.10618100   1.008000   ; qtot 176.076380
 6973         h1    176    ccc     H7   6973 0.07988000   1.008000   ; qtot 176.156260
 6974         h1    176    ccc     H8   6974 0.07988000   1.008000   ; qtot 176.236140
 6975         n4    176    ccc     N2   6975 -0.02747900  14.010000   ; qtot 176.208661
 6976         c3    176    ccc     C5   6976 -0.05097600  12.010000   ; qtot 176.157685
 6977         c3    176    ccc     C6   6977 -0.05097600  12.010000   ; qtot 176.106709
 6978         h1    176    ccc     H9   6978 0.11563300   1.008000   ; qtot 176.222342
 6979         c3    176    ccc     C7   6979 -0.18457900  12.010000   ; qtot 176.037763
 6980         h1    176    ccc    H10   6980 0.11563300   1.008000   ; qtot 176.153396
 6981         hc    176    ccc    H11   6981 0.08347900   1.008000   ; qtot 176.236875
 6982         hc    176    ccc    H12   6982 0.08347900   1.008000   ; qtot 176.320354
 6983          c    176    ccc     C8   6983 0.67254400  12.010000   ; qtot 176.992898
 6984          o    176    ccc     O2   6984 -0.52917200  16.000000   ; qtot 176.463726
 6985         h1    176    ccc    H13   6985 0.11563300   1.008000   ; qtot 176.579359
 6986         h1    176    ccc    H14   6986 0.11563300   1.008000   ; qtot 176.694992
 6987         c3    176    ccc     C9   6987 -0.18457900  12.010000   ; qtot 176.510413
 6988         hc    176    ccc    H15   6988 0.08347900   1.008000   ; qtot 176.593892
 6989         hc    176    ccc    H16   6989 0.08347900   1.008000   ; qtot 176.677371
 6990          c    176    ccc    C10   6990 0.67254400  12.010000   ; qtot 177.349915
 6991          o    176    ccc     O4   6991 -0.52917200  16.000000   ; qtot 176.820743
 6992         c3    176    ccc    C11   6992 0.08518000  12.010000   ; qtot 176.905923
 6993         c3    176    ccc    C12   6993 0.07918000  12.010000   ; qtot 176.985103
 6994         h1    176    ccc    H17   6994 0.06978000   1.008000   ; qtot 177.054883
 6995         c3    176    ccc    C13   6995 0.07918000  12.010000   ; qtot 177.134063
 6996         c3    176    ccc    C14   6996 0.03578000  12.010000   ; qtot 177.169843
 6997         c3    176    ccc    C15   6997 0.33498000  12.010000   ; qtot 177.504823
 6998         h1    176    ccc    H18   6998 0.06178000   1.008000   ; qtot 177.566603
 6999         h1    176    ccc    H19   6999 0.11278000   1.008000   ; qtot 177.679383
 7000         h2    176    ccc    H20   7000 0.12178000   1.008000   ; qtot 177.801163
 7001         oh    176    ccc     O1   7001 -0.56972000  16.000000   ; qtot 177.231443
 7002         oh    176    ccc     O6   7002 -0.57772000  16.000000   ; qtot 176.653723
 7003         c3    176    ccc    C16   7003 0.14548000  12.010000   ; qtot 176.799203
 7004         ho    176    ccc    H21   7004 0.40508000   1.008000   ; qtot 177.204283
 7005         hn    176    ccc    H22   7005 0.31758000   1.008000   ; qtot 177.521863
 7006         h1    176    ccc    H23   7006 0.06278000   1.008000   ; qtot 177.584643
 7007         h1    176    ccc    H24   7007 0.06278000   1.008000   ; qtot 177.647423
 7008         oh    176    ccc     O7   7008 -0.59472000  16.000000   ; qtot 177.052703
 7009         ho    176    ccc    H25   7009 0.41908000   1.008000   ; qtot 177.471783
 7010         os    176    ccc     O8   7010 -0.44552000  16.000000   ; qtot 177.026263
 7011         ho    176    ccc    H26   7011 0.41908000   1.008000   ; qtot 177.445343
 7012         h1    176    ccc    H27   7012 0.08578000   1.008000   ; qtot 177.531123
 7013         oh    176    ccc     O9   7013 -0.58672000  16.000000   ; qtot 176.944403
 7014         ho    176    ccc    H28   7014 0.41908000   1.008000   ; qtot 177.363483
 7015         n3    176    ccc     N3   7015 -0.54282000  14.010000   ; qtot 176.820663
 7016         c3    176    ccc    C17   7016 0.08518000  12.010000   ; qtot 176.905843
 7017         c3    176    ccc    C18   7017 0.07918000  12.010000   ; qtot 176.985023
 7018         h1    176    ccc    H29   7018 0.06978000   1.008000   ; qtot 177.054803
 7019         c3    176    ccc    C19   7019 0.07918000  12.010000   ; qtot 177.133983
 7020         c3    176    ccc    C20   7020 0.03578000  12.010000   ; qtot 177.169763
 7021         c3    176    ccc    C21   7021 0.33498000  12.010000   ; qtot 177.504743
 7022         h1    176    ccc    H30   7022 0.06178000   1.008000   ; qtot 177.566523
 7023         h1    176    ccc    H31   7023 0.11278000   1.008000   ; qtot 177.679303
 7024         h2    176    ccc    H32   7024 0.12178000   1.008000   ; qtot 177.801083
 7025         oh    176    ccc    O10   7025 -0.56972000  16.000000   ; qtot 177.231363
 7026         oh    176    ccc    O11   7026 -0.57772000  16.000000   ; qtot 176.653643
 7027         c3    176    ccc    C22   7027 0.14548000  12.010000   ; qtot 176.799123
 7028         ho    176    ccc    H33   7028 0.40508000   1.008000   ; qtot 177.204203
 7029         hn    176    ccc    H34   7029 0.31758000   1.008000   ; qtot 177.521783
 7030         h1    176    ccc    H35   7030 0.06278000   1.008000   ; qtot 177.584563
 7031         h1    176    ccc    H36   7031 0.06278000   1.008000   ; qtot 177.647343
 7032         oh    176    ccc    O12   7032 -0.59472000  16.000000   ; qtot 177.052623
 7033         ho    176    ccc    H37   7033 0.41908000   1.008000   ; qtot 177.471703
 7034         os    176    ccc    O13   7034 -0.44552000  16.000000   ; qtot 177.026183
 7035         ho    176    ccc    H38   7035 0.41908000   1.008000   ; qtot 177.445263
 7036         h1    176    ccc    H39   7036 0.08578000   1.008000   ; qtot 177.531043
 7037         oh    176    ccc     O5   7037 -0.58672000  16.000000   ; qtot 176.944323
 7038         ho    176    ccc    H40   7038 0.41908000   1.008000   ; qtot 177.363403
 7039         n3    176    ccc     N4   7039 -0.54282000  14.010000   ; qtot 176.820583
 7040         hn    176    ccc    H41   7040 0.17125500   1.008000   ; qtot 176.991838
; residue  177 ccc rtp ccc q 1.0
 7041          n    177    ccc     N1   7041 -0.33303000  14.010000   ; qtot 176.658808
 7042         hn    177    ccc     H4   7042 0.25916100   1.008000   ; qtot 176.917969
 7043         c3    177    ccc     C3   7043 -0.03328100  12.010000   ; qtot 176.884688
 7044         h1    177    ccc     H5   7044 0.10618100   1.008000   ; qtot 176.990869
 7045         c3    177    ccc     C4   7045 -0.02083000  12.010000   ; qtot 176.970039
 7046         h1    177    ccc     H6   7046 0.10618100   1.008000   ; qtot 177.076220
 7047         h1    177    ccc     H7   7047 0.07988000   1.008000   ; qtot 177.156100
 7048         h1    177    ccc     H8   7048 0.07988000   1.008000   ; qtot 177.235980
 7049         n4    177    ccc     N2   7049 -0.02747900  14.010000   ; qtot 177.208501
 7050         c3    177    ccc     C5   7050 -0.05097600  12.010000   ; qtot 177.157525
 7051         c3    177    ccc     C6   7051 -0.05097600  12.010000   ; qtot 177.106549
 7052         h1    177    ccc     H9   7052 0.11563300   1.008000   ; qtot 177.222182
 7053         c3    177    ccc     C7   7053 -0.18457900  12.010000   ; qtot 177.037603
 7054         h1    177    ccc    H10   7054 0.11563300   1.008000   ; qtot 177.153236
 7055         hc    177    ccc    H11   7055 0.08347900   1.008000   ; qtot 177.236715
 7056         hc    177    ccc    H12   7056 0.08347900   1.008000   ; qtot 177.320194
 7057          c    177    ccc     C8   7057 0.67254400  12.010000   ; qtot 177.992738
 7058          o    177    ccc     O2   7058 -0.52917200  16.000000   ; qtot 177.463566
 7059         h1    177    ccc    H13   7059 0.11563300   1.008000   ; qtot 177.579199
 7060         h1    177    ccc    H14   7060 0.11563300   1.008000   ; qtot 177.694832
 7061         c3    177    ccc     C9   7061 -0.18457900  12.010000   ; qtot 177.510253
 7062         hc    177    ccc    H15   7062 0.08347900   1.008000   ; qtot 177.593732
 7063         hc    177    ccc    H16   7063 0.08347900   1.008000   ; qtot 177.677211
 7064          c    177    ccc    C10   7064 0.67254400  12.010000   ; qtot 178.349755
 7065          o    177    ccc     O4   7065 -0.52917200  16.000000   ; qtot 177.820583
 7066         c3    177    ccc    C11   7066 0.08518000  12.010000   ; qtot 177.905763
 7067         c3    177    ccc    C12   7067 0.07918000  12.010000   ; qtot 177.984943
 7068         h1    177    ccc    H17   7068 0.06978000   1.008000   ; qtot 178.054723
 7069         c3    177    ccc    C13   7069 0.07918000  12.010000   ; qtot 178.133903
 7070         c3    177    ccc    C14   7070 0.03578000  12.010000   ; qtot 178.169683
 7071         c3    177    ccc    C15   7071 0.33498000  12.010000   ; qtot 178.504663
 7072         h1    177    ccc    H18   7072 0.06178000   1.008000   ; qtot 178.566443
 7073         h1    177    ccc    H19   7073 0.11278000   1.008000   ; qtot 178.679223
 7074         h2    177    ccc    H20   7074 0.12178000   1.008000   ; qtot 178.801003
 7075         oh    177    ccc     O1   7075 -0.56972000  16.000000   ; qtot 178.231283
 7076         oh    177    ccc     O6   7076 -0.57772000  16.000000   ; qtot 177.653563
 7077         c3    177    ccc    C16   7077 0.14548000  12.010000   ; qtot 177.799043
 7078         ho    177    ccc    H21   7078 0.40508000   1.008000   ; qtot 178.204123
 7079         hn    177    ccc    H22   7079 0.31758000   1.008000   ; qtot 178.521703
 7080         h1    177    ccc    H23   7080 0.06278000   1.008000   ; qtot 178.584483
 7081         h1    177    ccc    H24   7081 0.06278000   1.008000   ; qtot 178.647263
 7082         oh    177    ccc     O7   7082 -0.59472000  16.000000   ; qtot 178.052543
 7083         ho    177    ccc    H25   7083 0.41908000   1.008000   ; qtot 178.471623
 7084         os    177    ccc     O8   7084 -0.44552000  16.000000   ; qtot 178.026103
 7085         ho    177    ccc    H26   7085 0.41908000   1.008000   ; qtot 178.445183
 7086         h1    177    ccc    H27   7086 0.08578000   1.008000   ; qtot 178.530963
 7087         oh    177    ccc     O9   7087 -0.58672000  16.000000   ; qtot 177.944243
 7088         ho    177    ccc    H28   7088 0.41908000   1.008000   ; qtot 178.363323
 7089         n3    177    ccc     N3   7089 -0.54282000  14.010000   ; qtot 177.820503
 7090         c3    177    ccc    C17   7090 0.08518000  12.010000   ; qtot 177.905683
 7091         c3    177    ccc    C18   7091 0.07918000  12.010000   ; qtot 177.984863
 7092         h1    177    ccc    H29   7092 0.06978000   1.008000   ; qtot 178.054643
 7093         c3    177    ccc    C19   7093 0.07918000  12.010000   ; qtot 178.133823
 7094         c3    177    ccc    C20   7094 0.03578000  12.010000   ; qtot 178.169603
 7095         c3    177    ccc    C21   7095 0.33498000  12.010000   ; qtot 178.504583
 7096         h1    177    ccc    H30   7096 0.06178000   1.008000   ; qtot 178.566363
 7097         h1    177    ccc    H31   7097 0.11278000   1.008000   ; qtot 178.679143
 7098         h2    177    ccc    H32   7098 0.12178000   1.008000   ; qtot 178.800923
 7099         oh    177    ccc    O10   7099 -0.56972000  16.000000   ; qtot 178.231203
 7100         oh    177    ccc    O11   7100 -0.57772000  16.000000   ; qtot 177.653483
 7101         c3    177    ccc    C22   7101 0.14548000  12.010000   ; qtot 177.798963
 7102         ho    177    ccc    H33   7102 0.40508000   1.008000   ; qtot 178.204043
 7103         hn    177    ccc    H34   7103 0.31758000   1.008000   ; qtot 178.521623
 7104         h1    177    ccc    H35   7104 0.06278000   1.008000   ; qtot 178.584403
 7105         h1    177    ccc    H36   7105 0.06278000   1.008000   ; qtot 178.647183
 7106         oh    177    ccc    O12   7106 -0.59472000  16.000000   ; qtot 178.052463
 7107         ho    177    ccc    H37   7107 0.41908000   1.008000   ; qtot 178.471543
 7108         os    177    ccc    O13   7108 -0.44552000  16.000000   ; qtot 178.026023
 7109         ho    177    ccc    H38   7109 0.41908000   1.008000   ; qtot 178.445103
 7110         h1    177    ccc    H39   7110 0.08578000   1.008000   ; qtot 178.530883
 7111         oh    177    ccc     O5   7111 -0.58672000  16.000000   ; qtot 177.944163
 7112         ho    177    ccc    H40   7112 0.41908000   1.008000   ; qtot 178.363243
 7113         n3    177    ccc     N4   7113 -0.54282000  14.010000   ; qtot 177.820423
 7114         hn    177    ccc    H41   7114 0.17125500   1.008000   ; qtot 177.991678
; residue  178 ccc rtp ccc q 1.0
 7115          n    178    ccc     N1   7115 -0.33303000  14.010000   ; qtot 177.658648
 7116         hn    178    ccc     H4   7116 0.25916100   1.008000   ; qtot 177.917809
 7117         c3    178    ccc     C3   7117 -0.03328100  12.010000   ; qtot 177.884528
 7118         h1    178    ccc     H5   7118 0.10618100   1.008000   ; qtot 177.990709
 7119         c3    178    ccc     C4   7119 -0.02083000  12.010000   ; qtot 177.969879
 7120         h1    178    ccc     H6   7120 0.10618100   1.008000   ; qtot 178.076060
 7121         h1    178    ccc     H7   7121 0.07988000   1.008000   ; qtot 178.155940
 7122         h1    178    ccc     H8   7122 0.07988000   1.008000   ; qtot 178.235820
 7123         n4    178    ccc     N2   7123 -0.02747900  14.010000   ; qtot 178.208341
 7124         c3    178    ccc     C5   7124 -0.05097600  12.010000   ; qtot 178.157365
 7125         c3    178    ccc     C6   7125 -0.05097600  12.010000   ; qtot 178.106389
 7126         h1    178    ccc     H9   7126 0.11563300   1.008000   ; qtot 178.222022
 7127         c3    178    ccc     C7   7127 -0.18457900  12.010000   ; qtot 178.037443
 7128         h1    178    ccc    H10   7128 0.11563300   1.008000   ; qtot 178.153076
 7129         hc    178    ccc    H11   7129 0.08347900   1.008000   ; qtot 178.236555
 7130         hc    178    ccc    H12   7130 0.08347900   1.008000   ; qtot 178.320034
 7131          c    178    ccc     C8   7131 0.67254400  12.010000   ; qtot 178.992578
 7132          o    178    ccc     O2   7132 -0.52917200  16.000000   ; qtot 178.463406
 7133         h1    178    ccc    H13   7133 0.11563300   1.008000   ; qtot 178.579039
 7134         h1    178    ccc    H14   7134 0.11563300   1.008000   ; qtot 178.694672
 7135         c3    178    ccc     C9   7135 -0.18457900  12.010000   ; qtot 178.510093
 7136         hc    178    ccc    H15   7136 0.08347900   1.008000   ; qtot 178.593572
 7137         hc    178    ccc    H16   7137 0.08347900   1.008000   ; qtot 178.677051
 7138          c    178    ccc    C10   7138 0.67254400  12.010000   ; qtot 179.349595
 7139          o    178    ccc     O4   7139 -0.52917200  16.000000   ; qtot 178.820423
 7140         c3    178    ccc    C11   7140 0.08518000  12.010000   ; qtot 178.905603
 7141         c3    178    ccc    C12   7141 0.07918000  12.010000   ; qtot 178.984783
 7142         h1    178    ccc    H17   7142 0.06978000   1.008000   ; qtot 179.054563
 7143         c3    178    ccc    C13   7143 0.07918000  12.010000   ; qtot 179.133743
 7144         c3    178    ccc    C14   7144 0.03578000  12.010000   ; qtot 179.169523
 7145         c3    178    ccc    C15   7145 0.33498000  12.010000   ; qtot 179.504503
 7146         h1    178    ccc    H18   7146 0.06178000   1.008000   ; qtot 179.566283
 7147         h1    178    ccc    H19   7147 0.11278000   1.008000   ; qtot 179.679063
 7148         h2    178    ccc    H20   7148 0.12178000   1.008000   ; qtot 179.800843
 7149         oh    178    ccc     O1   7149 -0.56972000  16.000000   ; qtot 179.231123
 7150         oh    178    ccc     O6   7150 -0.57772000  16.000000   ; qtot 178.653403
 7151         c3    178    ccc    C16   7151 0.14548000  12.010000   ; qtot 178.798883
 7152         ho    178    ccc    H21   7152 0.40508000   1.008000   ; qtot 179.203963
 7153         hn    178    ccc    H22   7153 0.31758000   1.008000   ; qtot 179.521543
 7154         h1    178    ccc    H23   7154 0.06278000   1.008000   ; qtot 179.584323
 7155         h1    178    ccc    H24   7155 0.06278000   1.008000   ; qtot 179.647103
 7156         oh    178    ccc     O7   7156 -0.59472000  16.000000   ; qtot 179.052383
 7157         ho    178    ccc    H25   7157 0.41908000   1.008000   ; qtot 179.471463
 7158         os    178    ccc     O8   7158 -0.44552000  16.000000   ; qtot 179.025943
 7159         ho    178    ccc    H26   7159 0.41908000   1.008000   ; qtot 179.445023
 7160         h1    178    ccc    H27   7160 0.08578000   1.008000   ; qtot 179.530803
 7161         oh    178    ccc     O9   7161 -0.58672000  16.000000   ; qtot 178.944083
 7162         ho    178    ccc    H28   7162 0.41908000   1.008000   ; qtot 179.363163
 7163         n3    178    ccc     N3   7163 -0.54282000  14.010000   ; qtot 178.820343
 7164         c3    178    ccc    C17   7164 0.08518000  12.010000   ; qtot 178.905523
 7165         c3    178    ccc    C18   7165 0.07918000  12.010000   ; qtot 178.984703
 7166         h1    178    ccc    H29   7166 0.06978000   1.008000   ; qtot 179.054483
 7167         c3    178    ccc    C19   7167 0.07918000  12.010000   ; qtot 179.133663
 7168         c3    178    ccc    C20   7168 0.03578000  12.010000   ; qtot 179.169443
 7169         c3    178    ccc    C21   7169 0.33498000  12.010000   ; qtot 179.504423
 7170         h1    178    ccc    H30   7170 0.06178000   1.008000   ; qtot 179.566203
 7171         h1    178    ccc    H31   7171 0.11278000   1.008000   ; qtot 179.678983
 7172         h2    178    ccc    H32   7172 0.12178000   1.008000   ; qtot 179.800763
 7173         oh    178    ccc    O10   7173 -0.56972000  16.000000   ; qtot 179.231043
 7174         oh    178    ccc    O11   7174 -0.57772000  16.000000   ; qtot 178.653323
 7175         c3    178    ccc    C22   7175 0.14548000  12.010000   ; qtot 178.798803
 7176         ho    178    ccc    H33   7176 0.40508000   1.008000   ; qtot 179.203883
 7177         hn    178    ccc    H34   7177 0.31758000   1.008000   ; qtot 179.521463
 7178         h1    178    ccc    H35   7178 0.06278000   1.008000   ; qtot 179.584243
 7179         h1    178    ccc    H36   7179 0.06278000   1.008000   ; qtot 179.647023
 7180         oh    178    ccc    O12   7180 -0.59472000  16.000000   ; qtot 179.052303
 7181         ho    178    ccc    H37   7181 0.41908000   1.008000   ; qtot 179.471383
 7182         os    178    ccc    O13   7182 -0.44552000  16.000000   ; qtot 179.025863
 7183         ho    178    ccc    H38   7183 0.41908000   1.008000   ; qtot 179.444943
 7184         h1    178    ccc    H39   7184 0.08578000   1.008000   ; qtot 179.530723
 7185         oh    178    ccc     O5   7185 -0.58672000  16.000000   ; qtot 178.944003
 7186         ho    178    ccc    H40   7186 0.41908000   1.008000   ; qtot 179.363083
 7187         n3    178    ccc     N4   7187 -0.54282000  14.010000   ; qtot 178.820263
 7188         hn    178    ccc    H41   7188 0.17125500   1.008000   ; qtot 178.991518
; residue  179 ccc rtp ccc q 1.0
 7189          n    179    ccc     N1   7189 -0.33303000  14.010000   ; qtot 178.658488
 7190         hn    179    ccc     H4   7190 0.25916100   1.008000   ; qtot 178.917649
 7191         c3    179    ccc     C3   7191 -0.03328100  12.010000   ; qtot 178.884368
 7192         h1    179    ccc     H5   7192 0.10618100   1.008000   ; qtot 178.990549
 7193         c3    179    ccc     C4   7193 -0.02083000  12.010000   ; qtot 178.969719
 7194         h1    179    ccc     H6   7194 0.10618100   1.008000   ; qtot 179.075900
 7195         h1    179    ccc     H7   7195 0.07988000   1.008000   ; qtot 179.155780
 7196         h1    179    ccc     H8   7196 0.07988000   1.008000   ; qtot 179.235660
 7197         n4    179    ccc     N2   7197 -0.02747900  14.010000   ; qtot 179.208181
 7198         c3    179    ccc     C5   7198 -0.05097600  12.010000   ; qtot 179.157205
 7199         c3    179    ccc     C6   7199 -0.05097600  12.010000   ; qtot 179.106229
 7200         h1    179    ccc     H9   7200 0.11563300   1.008000   ; qtot 179.221862
 7201         c3    179    ccc     C7   7201 -0.18457900  12.010000   ; qtot 179.037283
 7202         h1    179    ccc    H10   7202 0.11563300   1.008000   ; qtot 179.152916
 7203         hc    179    ccc    H11   7203 0.08347900   1.008000   ; qtot 179.236395
 7204         hc    179    ccc    H12   7204 0.08347900   1.008000   ; qtot 179.319874
 7205          c    179    ccc     C8   7205 0.67254400  12.010000   ; qtot 179.992418
 7206          o    179    ccc     O2   7206 -0.52917200  16.000000   ; qtot 179.463246
 7207         h1    179    ccc    H13   7207 0.11563300   1.008000   ; qtot 179.578879
 7208         h1    179    ccc    H14   7208 0.11563300   1.008000   ; qtot 179.694512
 7209         c3    179    ccc     C9   7209 -0.18457900  12.010000   ; qtot 179.509933
 7210         hc    179    ccc    H15   7210 0.08347900   1.008000   ; qtot 179.593412
 7211         hc    179    ccc    H16   7211 0.08347900   1.008000   ; qtot 179.676891
 7212          c    179    ccc    C10   7212 0.67254400  12.010000   ; qtot 180.349435
 7213          o    179    ccc     O4   7213 -0.52917200  16.000000   ; qtot 179.820263
 7214         c3    179    ccc    C11   7214 0.08518000  12.010000   ; qtot 179.905443
 7215         c3    179    ccc    C12   7215 0.07918000  12.010000   ; qtot 179.984623
 7216         h1    179    ccc    H17   7216 0.06978000   1.008000   ; qtot 180.054403
 7217         c3    179    ccc    C13   7217 0.07918000  12.010000   ; qtot 180.133583
 7218         c3    179    ccc    C14   7218 0.03578000  12.010000   ; qtot 180.169363
 7219         c3    179    ccc    C15   7219 0.33498000  12.010000   ; qtot 180.504343
 7220         h1    179    ccc    H18   7220 0.06178000   1.008000   ; qtot 180.566123
 7221         h1    179    ccc    H19   7221 0.11278000   1.008000   ; qtot 180.678903
 7222         h2    179    ccc    H20   7222 0.12178000   1.008000   ; qtot 180.800683
 7223         oh    179    ccc     O1   7223 -0.56972000  16.000000   ; qtot 180.230963
 7224         oh    179    ccc     O6   7224 -0.57772000  16.000000   ; qtot 179.653243
 7225         c3    179    ccc    C16   7225 0.14548000  12.010000   ; qtot 179.798723
 7226         ho    179    ccc    H21   7226 0.40508000   1.008000   ; qtot 180.203803
 7227         hn    179    ccc    H22   7227 0.31758000   1.008000   ; qtot 180.521383
 7228         h1    179    ccc    H23   7228 0.06278000   1.008000   ; qtot 180.584163
 7229         h1    179    ccc    H24   7229 0.06278000   1.008000   ; qtot 180.646943
 7230         oh    179    ccc     O7   7230 -0.59472000  16.000000   ; qtot 180.052223
 7231         ho    179    ccc    H25   7231 0.41908000   1.008000   ; qtot 180.471303
 7232         os    179    ccc     O8   7232 -0.44552000  16.000000   ; qtot 180.025783
 7233         ho    179    ccc    H26   7233 0.41908000   1.008000   ; qtot 180.444863
 7234         h1    179    ccc    H27   7234 0.08578000   1.008000   ; qtot 180.530643
 7235         oh    179    ccc     O9   7235 -0.58672000  16.000000   ; qtot 179.943923
 7236         ho    179    ccc    H28   7236 0.41908000   1.008000   ; qtot 180.363003
 7237         n3    179    ccc     N3   7237 -0.54282000  14.010000   ; qtot 179.820183
 7238         c3    179    ccc    C17   7238 0.08518000  12.010000   ; qtot 179.905363
 7239         c3    179    ccc    C18   7239 0.07918000  12.010000   ; qtot 179.984543
 7240         h1    179    ccc    H29   7240 0.06978000   1.008000   ; qtot 180.054323
 7241         c3    179    ccc    C19   7241 0.07918000  12.010000   ; qtot 180.133503
 7242         c3    179    ccc    C20   7242 0.03578000  12.010000   ; qtot 180.169283
 7243         c3    179    ccc    C21   7243 0.33498000  12.010000   ; qtot 180.504263
 7244         h1    179    ccc    H30   7244 0.06178000   1.008000   ; qtot 180.566043
 7245         h1    179    ccc    H31   7245 0.11278000   1.008000   ; qtot 180.678823
 7246         h2    179    ccc    H32   7246 0.12178000   1.008000   ; qtot 180.800603
 7247         oh    179    ccc    O10   7247 -0.56972000  16.000000   ; qtot 180.230883
 7248         oh    179    ccc    O11   7248 -0.57772000  16.000000   ; qtot 179.653163
 7249         c3    179    ccc    C22   7249 0.14548000  12.010000   ; qtot 179.798643
 7250         ho    179    ccc    H33   7250 0.40508000   1.008000   ; qtot 180.203723
 7251         hn    179    ccc    H34   7251 0.31758000   1.008000   ; qtot 180.521303
 7252         h1    179    ccc    H35   7252 0.06278000   1.008000   ; qtot 180.584083
 7253         h1    179    ccc    H36   7253 0.06278000   1.008000   ; qtot 180.646863
 7254         oh    179    ccc    O12   7254 -0.59472000  16.000000   ; qtot 180.052143
 7255         ho    179    ccc    H37   7255 0.41908000   1.008000   ; qtot 180.471223
 7256         os    179    ccc    O13   7256 -0.44552000  16.000000   ; qtot 180.025703
 7257         ho    179    ccc    H38   7257 0.41908000   1.008000   ; qtot 180.444783
 7258         h1    179    ccc    H39   7258 0.08578000   1.008000   ; qtot 180.530563
 7259         oh    179    ccc     O5   7259 -0.58672000  16.000000   ; qtot 179.943843
 7260         ho    179    ccc    H40   7260 0.41908000   1.008000   ; qtot 180.362923
 7261         n3    179    ccc     N4   7261 -0.54282000  14.010000   ; qtot 179.820103
 7262         hn    179    ccc    H41   7262 0.17125500   1.008000   ; qtot 179.991358
; residue  180 ccc rtp ccc q 1.0
 7263          n    180    ccc     N1   7263 -0.33303000  14.010000   ; qtot 179.658328
 7264         hn    180    ccc     H4   7264 0.25916100   1.008000   ; qtot 179.917489
 7265         c3    180    ccc     C3   7265 -0.03328100  12.010000   ; qtot 179.884208
 7266         h1    180    ccc     H5   7266 0.10618100   1.008000   ; qtot 179.990389
 7267         c3    180    ccc     C4   7267 -0.02083000  12.010000   ; qtot 179.969559
 7268         h1    180    ccc     H6   7268 0.10618100   1.008000   ; qtot 180.075740
 7269         h1    180    ccc     H7   7269 0.07988000   1.008000   ; qtot 180.155620
 7270         h1    180    ccc     H8   7270 0.07988000   1.008000   ; qtot 180.235500
 7271         n4    180    ccc     N2   7271 -0.02747900  14.010000   ; qtot 180.208021
 7272         c3    180    ccc     C5   7272 -0.05097600  12.010000   ; qtot 180.157045
 7273         c3    180    ccc     C6   7273 -0.05097600  12.010000   ; qtot 180.106069
 7274         h1    180    ccc     H9   7274 0.11563300   1.008000   ; qtot 180.221702
 7275         c3    180    ccc     C7   7275 -0.18457900  12.010000   ; qtot 180.037123
 7276         h1    180    ccc    H10   7276 0.11563300   1.008000   ; qtot 180.152756
 7277         hc    180    ccc    H11   7277 0.08347900   1.008000   ; qtot 180.236235
 7278         hc    180    ccc    H12   7278 0.08347900   1.008000   ; qtot 180.319714
 7279          c    180    ccc     C8   7279 0.67254400  12.010000   ; qtot 180.992258
 7280          o    180    ccc     O2   7280 -0.52917200  16.000000   ; qtot 180.463086
 7281         h1    180    ccc    H13   7281 0.11563300   1.008000   ; qtot 180.578719
 7282         h1    180    ccc    H14   7282 0.11563300   1.008000   ; qtot 180.694352
 7283         c3    180    ccc     C9   7283 -0.18457900  12.010000   ; qtot 180.509773
 7284         hc    180    ccc    H15   7284 0.08347900   1.008000   ; qtot 180.593252
 7285         hc    180    ccc    H16   7285 0.08347900   1.008000   ; qtot 180.676731
 7286          c    180    ccc    C10   7286 0.67254400  12.010000   ; qtot 181.349275
 7287          o    180    ccc     O4   7287 -0.52917200  16.000000   ; qtot 180.820103
 7288         c3    180    ccc    C11   7288 0.08518000  12.010000   ; qtot 180.905283
 7289         c3    180    ccc    C12   7289 0.07918000  12.010000   ; qtot 180.984463
 7290         h1    180    ccc    H17   7290 0.06978000   1.008000   ; qtot 181.054243
 7291         c3    180    ccc    C13   7291 0.07918000  12.010000   ; qtot 181.133423
 7292         c3    180    ccc    C14   7292 0.03578000  12.010000   ; qtot 181.169203
 7293         c3    180    ccc    C15   7293 0.33498000  12.010000   ; qtot 181.504183
 7294         h1    180    ccc    H18   7294 0.06178000   1.008000   ; qtot 181.565963
 7295         h1    180    ccc    H19   7295 0.11278000   1.008000   ; qtot 181.678743
 7296         h2    180    ccc    H20   7296 0.12178000   1.008000   ; qtot 181.800523
 7297         oh    180    ccc     O1   7297 -0.56972000  16.000000   ; qtot 181.230803
 7298         oh    180    ccc     O6   7298 -0.57772000  16.000000   ; qtot 180.653083
 7299         c3    180    ccc    C16   7299 0.14548000  12.010000   ; qtot 180.798563
 7300         ho    180    ccc    H21   7300 0.40508000   1.008000   ; qtot 181.203643
 7301         hn    180    ccc    H22   7301 0.31758000   1.008000   ; qtot 181.521223
 7302         h1    180    ccc    H23   7302 0.06278000   1.008000   ; qtot 181.584003
 7303         h1    180    ccc    H24   7303 0.06278000   1.008000   ; qtot 181.646783
 7304         oh    180    ccc     O7   7304 -0.59472000  16.000000   ; qtot 181.052063
 7305         ho    180    ccc    H25   7305 0.41908000   1.008000   ; qtot 181.471143
 7306         os    180    ccc     O8   7306 -0.44552000  16.000000   ; qtot 181.025623
 7307         ho    180    ccc    H26   7307 0.41908000   1.008000   ; qtot 181.444703
 7308         h1    180    ccc    H27   7308 0.08578000   1.008000   ; qtot 181.530483
 7309         oh    180    ccc     O9   7309 -0.58672000  16.000000   ; qtot 180.943763
 7310         ho    180    ccc    H28   7310 0.41908000   1.008000   ; qtot 181.362843
 7311         n3    180    ccc     N3   7311 -0.54282000  14.010000   ; qtot 180.820023
 7312         c3    180    ccc    C17   7312 0.08518000  12.010000   ; qtot 180.905203
 7313         c3    180    ccc    C18   7313 0.07918000  12.010000   ; qtot 180.984383
 7314         h1    180    ccc    H29   7314 0.06978000   1.008000   ; qtot 181.054163
 7315         c3    180    ccc    C19   7315 0.07918000  12.010000   ; qtot 181.133343
 7316         c3    180    ccc    C20   7316 0.03578000  12.010000   ; qtot 181.169123
 7317         c3    180    ccc    C21   7317 0.33498000  12.010000   ; qtot 181.504103
 7318         h1    180    ccc    H30   7318 0.06178000   1.008000   ; qtot 181.565883
 7319         h1    180    ccc    H31   7319 0.11278000   1.008000   ; qtot 181.678663
 7320         h2    180    ccc    H32   7320 0.12178000   1.008000   ; qtot 181.800443
 7321         oh    180    ccc    O10   7321 -0.56972000  16.000000   ; qtot 181.230723
 7322         oh    180    ccc    O11   7322 -0.57772000  16.000000   ; qtot 180.653003
 7323         c3    180    ccc    C22   7323 0.14548000  12.010000   ; qtot 180.798483
 7324         ho    180    ccc    H33   7324 0.40508000   1.008000   ; qtot 181.203563
 7325         hn    180    ccc    H34   7325 0.31758000   1.008000   ; qtot 181.521143
 7326         h1    180    ccc    H35   7326 0.06278000   1.008000   ; qtot 181.583923
 7327         h1    180    ccc    H36   7327 0.06278000   1.008000   ; qtot 181.646703
 7328         oh    180    ccc    O12   7328 -0.59472000  16.000000   ; qtot 181.051983
 7329         ho    180    ccc    H37   7329 0.41908000   1.008000   ; qtot 181.471063
 7330         os    180    ccc    O13   7330 -0.44552000  16.000000   ; qtot 181.025543
 7331         ho    180    ccc    H38   7331 0.41908000   1.008000   ; qtot 181.444623
 7332         h1    180    ccc    H39   7332 0.08578000   1.008000   ; qtot 181.530403
 7333         oh    180    ccc     O5   7333 -0.58672000  16.000000   ; qtot 180.943683
 7334         ho    180    ccc    H40   7334 0.41908000   1.008000   ; qtot 181.362763
 7335         n3    180    ccc     N4   7335 -0.54282000  14.010000   ; qtot 180.819943
 7336         hn    180    ccc    H41   7336 0.17125500   1.008000   ; qtot 180.991198
; residue  181 ccc rtp ccc q 1.0
 7337          n    181    ccc     N1   7337 -0.33303000  14.010000   ; qtot 180.658168
 7338         hn    181    ccc     H4   7338 0.25916100   1.008000   ; qtot 180.917329
 7339         c3    181    ccc     C3   7339 -0.03328100  12.010000   ; qtot 180.884048
 7340         h1    181    ccc     H5   7340 0.10618100   1.008000   ; qtot 180.990229
 7341         c3    181    ccc     C4   7341 -0.02083000  12.010000   ; qtot 180.969399
 7342         h1    181    ccc     H6   7342 0.10618100   1.008000   ; qtot 181.075580
 7343         h1    181    ccc     H7   7343 0.07988000   1.008000   ; qtot 181.155460
 7344         h1    181    ccc     H8   7344 0.07988000   1.008000   ; qtot 181.235340
 7345         n4    181    ccc     N2   7345 -0.02747900  14.010000   ; qtot 181.207861
 7346         c3    181    ccc     C5   7346 -0.05097600  12.010000   ; qtot 181.156885
 7347         c3    181    ccc     C6   7347 -0.05097600  12.010000   ; qtot 181.105909
 7348         h1    181    ccc     H9   7348 0.11563300   1.008000   ; qtot 181.221542
 7349         c3    181    ccc     C7   7349 -0.18457900  12.010000   ; qtot 181.036963
 7350         h1    181    ccc    H10   7350 0.11563300   1.008000   ; qtot 181.152596
 7351         hc    181    ccc    H11   7351 0.08347900   1.008000   ; qtot 181.236075
 7352         hc    181    ccc    H12   7352 0.08347900   1.008000   ; qtot 181.319554
 7353          c    181    ccc     C8   7353 0.67254400  12.010000   ; qtot 181.992098
 7354          o    181    ccc     O2   7354 -0.52917200  16.000000   ; qtot 181.462926
 7355         h1    181    ccc    H13   7355 0.11563300   1.008000   ; qtot 181.578559
 7356         h1    181    ccc    H14   7356 0.11563300   1.008000   ; qtot 181.694192
 7357         c3    181    ccc     C9   7357 -0.18457900  12.010000   ; qtot 181.509613
 7358         hc    181    ccc    H15   7358 0.08347900   1.008000   ; qtot 181.593092
 7359         hc    181    ccc    H16   7359 0.08347900   1.008000   ; qtot 181.676571
 7360          c    181    ccc    C10   7360 0.67254400  12.010000   ; qtot 182.349115
 7361          o    181    ccc     O4   7361 -0.52917200  16.000000   ; qtot 181.819943
 7362         c3    181    ccc    C11   7362 0.08518000  12.010000   ; qtot 181.905123
 7363         c3    181    ccc    C12   7363 0.07918000  12.010000   ; qtot 181.984303
 7364         h1    181    ccc    H17   7364 0.06978000   1.008000   ; qtot 182.054083
 7365         c3    181    ccc    C13   7365 0.07918000  12.010000   ; qtot 182.133263
 7366         c3    181    ccc    C14   7366 0.03578000  12.010000   ; qtot 182.169043
 7367         c3    181    ccc    C15   7367 0.33498000  12.010000   ; qtot 182.504023
 7368         h1    181    ccc    H18   7368 0.06178000   1.008000   ; qtot 182.565803
 7369         h1    181    ccc    H19   7369 0.11278000   1.008000   ; qtot 182.678583
 7370         h2    181    ccc    H20   7370 0.12178000   1.008000   ; qtot 182.800363
 7371         oh    181    ccc     O1   7371 -0.56972000  16.000000   ; qtot 182.230643
 7372         oh    181    ccc     O6   7372 -0.57772000  16.000000   ; qtot 181.652923
 7373         c3    181    ccc    C16   7373 0.14548000  12.010000   ; qtot 181.798403
 7374         ho    181    ccc    H21   7374 0.40508000   1.008000   ; qtot 182.203483
 7375         hn    181    ccc    H22   7375 0.31758000   1.008000   ; qtot 182.521063
 7376         h1    181    ccc    H23   7376 0.06278000   1.008000   ; qtot 182.583843
 7377         h1    181    ccc    H24   7377 0.06278000   1.008000   ; qtot 182.646623
 7378         oh    181    ccc     O7   7378 -0.59472000  16.000000   ; qtot 182.051903
 7379         ho    181    ccc    H25   7379 0.41908000   1.008000   ; qtot 182.470983
 7380         os    181    ccc     O8   7380 -0.44552000  16.000000   ; qtot 182.025463
 7381         ho    181    ccc    H26   7381 0.41908000   1.008000   ; qtot 182.444543
 7382         h1    181    ccc    H27   7382 0.08578000   1.008000   ; qtot 182.530323
 7383         oh    181    ccc     O9   7383 -0.58672000  16.000000   ; qtot 181.943603
 7384         ho    181    ccc    H28   7384 0.41908000   1.008000   ; qtot 182.362683
 7385         n3    181    ccc     N3   7385 -0.54282000  14.010000   ; qtot 181.819863
 7386         c3    181    ccc    C17   7386 0.08518000  12.010000   ; qtot 181.905043
 7387         c3    181    ccc    C18   7387 0.07918000  12.010000   ; qtot 181.984223
 7388         h1    181    ccc    H29   7388 0.06978000   1.008000   ; qtot 182.054003
 7389         c3    181    ccc    C19   7389 0.07918000  12.010000   ; qtot 182.133183
 7390         c3    181    ccc    C20   7390 0.03578000  12.010000   ; qtot 182.168963
 7391         c3    181    ccc    C21   7391 0.33498000  12.010000   ; qtot 182.503943
 7392         h1    181    ccc    H30   7392 0.06178000   1.008000   ; qtot 182.565723
 7393         h1    181    ccc    H31   7393 0.11278000   1.008000   ; qtot 182.678503
 7394         h2    181    ccc    H32   7394 0.12178000   1.008000   ; qtot 182.800283
 7395         oh    181    ccc    O10   7395 -0.56972000  16.000000   ; qtot 182.230563
 7396         oh    181    ccc    O11   7396 -0.57772000  16.000000   ; qtot 181.652843
 7397         c3    181    ccc    C22   7397 0.14548000  12.010000   ; qtot 181.798323
 7398         ho    181    ccc    H33   7398 0.40508000   1.008000   ; qtot 182.203403
 7399         hn    181    ccc    H34   7399 0.31758000   1.008000   ; qtot 182.520983
 7400         h1    181    ccc    H35   7400 0.06278000   1.008000   ; qtot 182.583763
 7401         h1    181    ccc    H36   7401 0.06278000   1.008000   ; qtot 182.646543
 7402         oh    181    ccc    O12   7402 -0.59472000  16.000000   ; qtot 182.051823
 7403         ho    181    ccc    H37   7403 0.41908000   1.008000   ; qtot 182.470903
 7404         os    181    ccc    O13   7404 -0.44552000  16.000000   ; qtot 182.025383
 7405         ho    181    ccc    H38   7405 0.41908000   1.008000   ; qtot 182.444463
 7406         h1    181    ccc    H39   7406 0.08578000   1.008000   ; qtot 182.530243
 7407         oh    181    ccc     O5   7407 -0.58672000  16.000000   ; qtot 181.943523
 7408         ho    181    ccc    H40   7408 0.41908000   1.008000   ; qtot 182.362603
 7409         n3    181    ccc     N4   7409 -0.54282000  14.010000   ; qtot 181.819783
 7410         hn    181    ccc    H41   7410 0.17125500   1.008000   ; qtot 181.991038
; residue  182 ccc rtp ccc q 1.0
 7411          n    182    ccc     N1   7411 -0.33303000  14.010000   ; qtot 181.658008
 7412         hn    182    ccc     H4   7412 0.25916100   1.008000   ; qtot 181.917169
 7413         c3    182    ccc     C3   7413 -0.03328100  12.010000   ; qtot 181.883888
 7414         h1    182    ccc     H5   7414 0.10618100   1.008000   ; qtot 181.990069
 7415         c3    182    ccc     C4   7415 -0.02083000  12.010000   ; qtot 181.969239
 7416         h1    182    ccc     H6   7416 0.10618100   1.008000   ; qtot 182.075420
 7417         h1    182    ccc     H7   7417 0.07988000   1.008000   ; qtot 182.155300
 7418         h1    182    ccc     H8   7418 0.07988000   1.008000   ; qtot 182.235180
 7419         n4    182    ccc     N2   7419 -0.02747900  14.010000   ; qtot 182.207701
 7420         c3    182    ccc     C5   7420 -0.05097600  12.010000   ; qtot 182.156725
 7421         c3    182    ccc     C6   7421 -0.05097600  12.010000   ; qtot 182.105749
 7422         h1    182    ccc     H9   7422 0.11563300   1.008000   ; qtot 182.221382
 7423         c3    182    ccc     C7   7423 -0.18457900  12.010000   ; qtot 182.036803
 7424         h1    182    ccc    H10   7424 0.11563300   1.008000   ; qtot 182.152436
 7425         hc    182    ccc    H11   7425 0.08347900   1.008000   ; qtot 182.235915
 7426         hc    182    ccc    H12   7426 0.08347900   1.008000   ; qtot 182.319394
 7427          c    182    ccc     C8   7427 0.67254400  12.010000   ; qtot 182.991938
 7428          o    182    ccc     O2   7428 -0.52917200  16.000000   ; qtot 182.462766
 7429         h1    182    ccc    H13   7429 0.11563300   1.008000   ; qtot 182.578399
 7430         h1    182    ccc    H14   7430 0.11563300   1.008000   ; qtot 182.694032
 7431         c3    182    ccc     C9   7431 -0.18457900  12.010000   ; qtot 182.509453
 7432         hc    182    ccc    H15   7432 0.08347900   1.008000   ; qtot 182.592932
 7433         hc    182    ccc    H16   7433 0.08347900   1.008000   ; qtot 182.676411
 7434          c    182    ccc    C10   7434 0.67254400  12.010000   ; qtot 183.348955
 7435          o    182    ccc     O4   7435 -0.52917200  16.000000   ; qtot 182.819783
 7436         c3    182    ccc    C11   7436 0.08518000  12.010000   ; qtot 182.904963
 7437         c3    182    ccc    C12   7437 0.07918000  12.010000   ; qtot 182.984143
 7438         h1    182    ccc    H17   7438 0.06978000   1.008000   ; qtot 183.053923
 7439         c3    182    ccc    C13   7439 0.07918000  12.010000   ; qtot 183.133103
 7440         c3    182    ccc    C14   7440 0.03578000  12.010000   ; qtot 183.168883
 7441         c3    182    ccc    C15   7441 0.33498000  12.010000   ; qtot 183.503863
 7442         h1    182    ccc    H18   7442 0.06178000   1.008000   ; qtot 183.565643
 7443         h1    182    ccc    H19   7443 0.11278000   1.008000   ; qtot 183.678423
 7444         h2    182    ccc    H20   7444 0.12178000   1.008000   ; qtot 183.800203
 7445         oh    182    ccc     O1   7445 -0.56972000  16.000000   ; qtot 183.230483
 7446         oh    182    ccc     O6   7446 -0.57772000  16.000000   ; qtot 182.652763
 7447         c3    182    ccc    C16   7447 0.14548000  12.010000   ; qtot 182.798243
 7448         ho    182    ccc    H21   7448 0.40508000   1.008000   ; qtot 183.203323
 7449         hn    182    ccc    H22   7449 0.31758000   1.008000   ; qtot 183.520903
 7450         h1    182    ccc    H23   7450 0.06278000   1.008000   ; qtot 183.583683
 7451         h1    182    ccc    H24   7451 0.06278000   1.008000   ; qtot 183.646463
 7452         oh    182    ccc     O7   7452 -0.59472000  16.000000   ; qtot 183.051743
 7453         ho    182    ccc    H25   7453 0.41908000   1.008000   ; qtot 183.470823
 7454         os    182    ccc     O8   7454 -0.44552000  16.000000   ; qtot 183.025303
 7455         ho    182    ccc    H26   7455 0.41908000   1.008000   ; qtot 183.444383
 7456         h1    182    ccc    H27   7456 0.08578000   1.008000   ; qtot 183.530163
 7457         oh    182    ccc     O9   7457 -0.58672000  16.000000   ; qtot 182.943443
 7458         ho    182    ccc    H28   7458 0.41908000   1.008000   ; qtot 183.362523
 7459         n3    182    ccc     N3   7459 -0.54282000  14.010000   ; qtot 182.819703
 7460         c3    182    ccc    C17   7460 0.08518000  12.010000   ; qtot 182.904883
 7461         c3    182    ccc    C18   7461 0.07918000  12.010000   ; qtot 182.984063
 7462         h1    182    ccc    H29   7462 0.06978000   1.008000   ; qtot 183.053843
 7463         c3    182    ccc    C19   7463 0.07918000  12.010000   ; qtot 183.133023
 7464         c3    182    ccc    C20   7464 0.03578000  12.010000   ; qtot 183.168803
 7465         c3    182    ccc    C21   7465 0.33498000  12.010000   ; qtot 183.503783
 7466         h1    182    ccc    H30   7466 0.06178000   1.008000   ; qtot 183.565563
 7467         h1    182    ccc    H31   7467 0.11278000   1.008000   ; qtot 183.678343
 7468         h2    182    ccc    H32   7468 0.12178000   1.008000   ; qtot 183.800123
 7469         oh    182    ccc    O10   7469 -0.56972000  16.000000   ; qtot 183.230403
 7470         oh    182    ccc    O11   7470 -0.57772000  16.000000   ; qtot 182.652683
 7471         c3    182    ccc    C22   7471 0.14548000  12.010000   ; qtot 182.798163
 7472         ho    182    ccc    H33   7472 0.40508000   1.008000   ; qtot 183.203243
 7473         hn    182    ccc    H34   7473 0.31758000   1.008000   ; qtot 183.520823
 7474         h1    182    ccc    H35   7474 0.06278000   1.008000   ; qtot 183.583603
 7475         h1    182    ccc    H36   7475 0.06278000   1.008000   ; qtot 183.646383
 7476         oh    182    ccc    O12   7476 -0.59472000  16.000000   ; qtot 183.051663
 7477         ho    182    ccc    H37   7477 0.41908000   1.008000   ; qtot 183.470743
 7478         os    182    ccc    O13   7478 -0.44552000  16.000000   ; qtot 183.025223
 7479         ho    182    ccc    H38   7479 0.41908000   1.008000   ; qtot 183.444303
 7480         h1    182    ccc    H39   7480 0.08578000   1.008000   ; qtot 183.530083
 7481         oh    182    ccc     O5   7481 -0.58672000  16.000000   ; qtot 182.943363
 7482         ho    182    ccc    H40   7482 0.41908000   1.008000   ; qtot 183.362443
 7483         n3    182    ccc     N4   7483 -0.54282000  14.010000   ; qtot 182.819623
 7484         hn    182    ccc    H41   7484 0.17125500   1.008000   ; qtot 182.990878
; residue  183 ccc rtp ccc q 1.0
 7485          n    183    ccc     N1   7485 -0.33303000  14.010000   ; qtot 182.657848
 7486         hn    183    ccc     H4   7486 0.25916100   1.008000   ; qtot 182.917009
 7487         c3    183    ccc     C3   7487 -0.03328100  12.010000   ; qtot 182.883728
 7488         h1    183    ccc     H5   7488 0.10618100   1.008000   ; qtot 182.989909
 7489         c3    183    ccc     C4   7489 -0.02083000  12.010000   ; qtot 182.969079
 7490         h1    183    ccc     H6   7490 0.10618100   1.008000   ; qtot 183.075260
 7491         h1    183    ccc     H7   7491 0.07988000   1.008000   ; qtot 183.155140
 7492         h1    183    ccc     H8   7492 0.07988000   1.008000   ; qtot 183.235020
 7493         n4    183    ccc     N2   7493 -0.02747900  14.010000   ; qtot 183.207541
 7494         c3    183    ccc     C5   7494 -0.05097600  12.010000   ; qtot 183.156565
 7495         c3    183    ccc     C6   7495 -0.05097600  12.010000   ; qtot 183.105589
 7496         h1    183    ccc     H9   7496 0.11563300   1.008000   ; qtot 183.221222
 7497         c3    183    ccc     C7   7497 -0.18457900  12.010000   ; qtot 183.036643
 7498         h1    183    ccc    H10   7498 0.11563300   1.008000   ; qtot 183.152276
 7499         hc    183    ccc    H11   7499 0.08347900   1.008000   ; qtot 183.235755
 7500         hc    183    ccc    H12   7500 0.08347900   1.008000   ; qtot 183.319234
 7501          c    183    ccc     C8   7501 0.67254400  12.010000   ; qtot 183.991778
 7502          o    183    ccc     O2   7502 -0.52917200  16.000000   ; qtot 183.462606
 7503         h1    183    ccc    H13   7503 0.11563300   1.008000   ; qtot 183.578239
 7504         h1    183    ccc    H14   7504 0.11563300   1.008000   ; qtot 183.693872
 7505         c3    183    ccc     C9   7505 -0.18457900  12.010000   ; qtot 183.509293
 7506         hc    183    ccc    H15   7506 0.08347900   1.008000   ; qtot 183.592772
 7507         hc    183    ccc    H16   7507 0.08347900   1.008000   ; qtot 183.676251
 7508          c    183    ccc    C10   7508 0.67254400  12.010000   ; qtot 184.348795
 7509          o    183    ccc     O4   7509 -0.52917200  16.000000   ; qtot 183.819623
 7510         c3    183    ccc    C11   7510 0.08518000  12.010000   ; qtot 183.904803
 7511         c3    183    ccc    C12   7511 0.07918000  12.010000   ; qtot 183.983983
 7512         h1    183    ccc    H17   7512 0.06978000   1.008000   ; qtot 184.053763
 7513         c3    183    ccc    C13   7513 0.07918000  12.010000   ; qtot 184.132943
 7514         c3    183    ccc    C14   7514 0.03578000  12.010000   ; qtot 184.168723
 7515         c3    183    ccc    C15   7515 0.33498000  12.010000   ; qtot 184.503703
 7516         h1    183    ccc    H18   7516 0.06178000   1.008000   ; qtot 184.565483
 7517         h1    183    ccc    H19   7517 0.11278000   1.008000   ; qtot 184.678263
 7518         h2    183    ccc    H20   7518 0.12178000   1.008000   ; qtot 184.800043
 7519         oh    183    ccc     O1   7519 -0.56972000  16.000000   ; qtot 184.230323
 7520         oh    183    ccc     O6   7520 -0.57772000  16.000000   ; qtot 183.652603
 7521         c3    183    ccc    C16   7521 0.14548000  12.010000   ; qtot 183.798083
 7522         ho    183    ccc    H21   7522 0.40508000   1.008000   ; qtot 184.203163
 7523         hn    183    ccc    H22   7523 0.31758000   1.008000   ; qtot 184.520743
 7524         h1    183    ccc    H23   7524 0.06278000   1.008000   ; qtot 184.583523
 7525         h1    183    ccc    H24   7525 0.06278000   1.008000   ; qtot 184.646303
 7526         oh    183    ccc     O7   7526 -0.59472000  16.000000   ; qtot 184.051583
 7527         ho    183    ccc    H25   7527 0.41908000   1.008000   ; qtot 184.470663
 7528         os    183    ccc     O8   7528 -0.44552000  16.000000   ; qtot 184.025143
 7529         ho    183    ccc    H26   7529 0.41908000   1.008000   ; qtot 184.444223
 7530         h1    183    ccc    H27   7530 0.08578000   1.008000   ; qtot 184.530003
 7531         oh    183    ccc     O9   7531 -0.58672000  16.000000   ; qtot 183.943283
 7532         ho    183    ccc    H28   7532 0.41908000   1.008000   ; qtot 184.362363
 7533         n3    183    ccc     N3   7533 -0.54282000  14.010000   ; qtot 183.819543
 7534         c3    183    ccc    C17   7534 0.08518000  12.010000   ; qtot 183.904723
 7535         c3    183    ccc    C18   7535 0.07918000  12.010000   ; qtot 183.983903
 7536         h1    183    ccc    H29   7536 0.06978000   1.008000   ; qtot 184.053683
 7537         c3    183    ccc    C19   7537 0.07918000  12.010000   ; qtot 184.132863
 7538         c3    183    ccc    C20   7538 0.03578000  12.010000   ; qtot 184.168643
 7539         c3    183    ccc    C21   7539 0.33498000  12.010000   ; qtot 184.503623
 7540         h1    183    ccc    H30   7540 0.06178000   1.008000   ; qtot 184.565403
 7541         h1    183    ccc    H31   7541 0.11278000   1.008000   ; qtot 184.678183
 7542         h2    183    ccc    H32   7542 0.12178000   1.008000   ; qtot 184.799963
 7543         oh    183    ccc    O10   7543 -0.56972000  16.000000   ; qtot 184.230243
 7544         oh    183    ccc    O11   7544 -0.57772000  16.000000   ; qtot 183.652523
 7545         c3    183    ccc    C22   7545 0.14548000  12.010000   ; qtot 183.798003
 7546         ho    183    ccc    H33   7546 0.40508000   1.008000   ; qtot 184.203083
 7547         hn    183    ccc    H34   7547 0.31758000   1.008000   ; qtot 184.520663
 7548         h1    183    ccc    H35   7548 0.06278000   1.008000   ; qtot 184.583443
 7549         h1    183    ccc    H36   7549 0.06278000   1.008000   ; qtot 184.646223
 7550         oh    183    ccc    O12   7550 -0.59472000  16.000000   ; qtot 184.051503
 7551         ho    183    ccc    H37   7551 0.41908000   1.008000   ; qtot 184.470583
 7552         os    183    ccc    O13   7552 -0.44552000  16.000000   ; qtot 184.025063
 7553         ho    183    ccc    H38   7553 0.41908000   1.008000   ; qtot 184.444143
 7554         h1    183    ccc    H39   7554 0.08578000   1.008000   ; qtot 184.529923
 7555         oh    183    ccc     O5   7555 -0.58672000  16.000000   ; qtot 183.943203
 7556         ho    183    ccc    H40   7556 0.41908000   1.008000   ; qtot 184.362283
 7557         n3    183    ccc     N4   7557 -0.54282000  14.010000   ; qtot 183.819463
 7558         hn    183    ccc    H41   7558 0.17125500   1.008000   ; qtot 183.990718
; residue  184 ccc rtp ccc q 1.0
 7559          n    184    ccc     N1   7559 -0.33303000  14.010000   ; qtot 183.657688
 7560         hn    184    ccc     H4   7560 0.25916100   1.008000   ; qtot 183.916849
 7561         c3    184    ccc     C3   7561 -0.03328100  12.010000   ; qtot 183.883568
 7562         h1    184    ccc     H5   7562 0.10618100   1.008000   ; qtot 183.989749
 7563         c3    184    ccc     C4   7563 -0.02083000  12.010000   ; qtot 183.968919
 7564         h1    184    ccc     H6   7564 0.10618100   1.008000   ; qtot 184.075100
 7565         h1    184    ccc     H7   7565 0.07988000   1.008000   ; qtot 184.154980
 7566         h1    184    ccc     H8   7566 0.07988000   1.008000   ; qtot 184.234860
 7567         n4    184    ccc     N2   7567 -0.02747900  14.010000   ; qtot 184.207381
 7568         c3    184    ccc     C5   7568 -0.05097600  12.010000   ; qtot 184.156405
 7569         c3    184    ccc     C6   7569 -0.05097600  12.010000   ; qtot 184.105429
 7570         h1    184    ccc     H9   7570 0.11563300   1.008000   ; qtot 184.221062
 7571         c3    184    ccc     C7   7571 -0.18457900  12.010000   ; qtot 184.036483
 7572         h1    184    ccc    H10   7572 0.11563300   1.008000   ; qtot 184.152116
 7573         hc    184    ccc    H11   7573 0.08347900   1.008000   ; qtot 184.235595
 7574         hc    184    ccc    H12   7574 0.08347900   1.008000   ; qtot 184.319074
 7575          c    184    ccc     C8   7575 0.67254400  12.010000   ; qtot 184.991618
 7576          o    184    ccc     O2   7576 -0.52917200  16.000000   ; qtot 184.462446
 7577         h1    184    ccc    H13   7577 0.11563300   1.008000   ; qtot 184.578079
 7578         h1    184    ccc    H14   7578 0.11563300   1.008000   ; qtot 184.693712
 7579         c3    184    ccc     C9   7579 -0.18457900  12.010000   ; qtot 184.509133
 7580         hc    184    ccc    H15   7580 0.08347900   1.008000   ; qtot 184.592612
 7581         hc    184    ccc    H16   7581 0.08347900   1.008000   ; qtot 184.676091
 7582          c    184    ccc    C10   7582 0.67254400  12.010000   ; qtot 185.348635
 7583          o    184    ccc     O4   7583 -0.52917200  16.000000   ; qtot 184.819463
 7584         c3    184    ccc    C11   7584 0.08518000  12.010000   ; qtot 184.904643
 7585         c3    184    ccc    C12   7585 0.07918000  12.010000   ; qtot 184.983823
 7586         h1    184    ccc    H17   7586 0.06978000   1.008000   ; qtot 185.053603
 7587         c3    184    ccc    C13   7587 0.07918000  12.010000   ; qtot 185.132783
 7588         c3    184    ccc    C14   7588 0.03578000  12.010000   ; qtot 185.168563
 7589         c3    184    ccc    C15   7589 0.33498000  12.010000   ; qtot 185.503543
 7590         h1    184    ccc    H18   7590 0.06178000   1.008000   ; qtot 185.565323
 7591         h1    184    ccc    H19   7591 0.11278000   1.008000   ; qtot 185.678103
 7592         h2    184    ccc    H20   7592 0.12178000   1.008000   ; qtot 185.799883
 7593         oh    184    ccc     O1   7593 -0.56972000  16.000000   ; qtot 185.230163
 7594         oh    184    ccc     O6   7594 -0.57772000  16.000000   ; qtot 184.652443
 7595         c3    184    ccc    C16   7595 0.14548000  12.010000   ; qtot 184.797923
 7596         ho    184    ccc    H21   7596 0.40508000   1.008000   ; qtot 185.203003
 7597         hn    184    ccc    H22   7597 0.31758000   1.008000   ; qtot 185.520583
 7598         h1    184    ccc    H23   7598 0.06278000   1.008000   ; qtot 185.583363
 7599         h1    184    ccc    H24   7599 0.06278000   1.008000   ; qtot 185.646143
 7600         oh    184    ccc     O7   7600 -0.59472000  16.000000   ; qtot 185.051423
 7601         ho    184    ccc    H25   7601 0.41908000   1.008000   ; qtot 185.470503
 7602         os    184    ccc     O8   7602 -0.44552000  16.000000   ; qtot 185.024983
 7603         ho    184    ccc    H26   7603 0.41908000   1.008000   ; qtot 185.444063
 7604         h1    184    ccc    H27   7604 0.08578000   1.008000   ; qtot 185.529843
 7605         oh    184    ccc     O9   7605 -0.58672000  16.000000   ; qtot 184.943123
 7606         ho    184    ccc    H28   7606 0.41908000   1.008000   ; qtot 185.362203
 7607         n3    184    ccc     N3   7607 -0.54282000  14.010000   ; qtot 184.819383
 7608         c3    184    ccc    C17   7608 0.08518000  12.010000   ; qtot 184.904563
 7609         c3    184    ccc    C18   7609 0.07918000  12.010000   ; qtot 184.983743
 7610         h1    184    ccc    H29   7610 0.06978000   1.008000   ; qtot 185.053523
 7611         c3    184    ccc    C19   7611 0.07918000  12.010000   ; qtot 185.132703
 7612         c3    184    ccc    C20   7612 0.03578000  12.010000   ; qtot 185.168483
 7613         c3    184    ccc    C21   7613 0.33498000  12.010000   ; qtot 185.503463
 7614         h1    184    ccc    H30   7614 0.06178000   1.008000   ; qtot 185.565243
 7615         h1    184    ccc    H31   7615 0.11278000   1.008000   ; qtot 185.678023
 7616         h2    184    ccc    H32   7616 0.12178000   1.008000   ; qtot 185.799803
 7617         oh    184    ccc    O10   7617 -0.56972000  16.000000   ; qtot 185.230083
 7618         oh    184    ccc    O11   7618 -0.57772000  16.000000   ; qtot 184.652363
 7619         c3    184    ccc    C22   7619 0.14548000  12.010000   ; qtot 184.797843
 7620         ho    184    ccc    H33   7620 0.40508000   1.008000   ; qtot 185.202923
 7621         hn    184    ccc    H34   7621 0.31758000   1.008000   ; qtot 185.520503
 7622         h1    184    ccc    H35   7622 0.06278000   1.008000   ; qtot 185.583283
 7623         h1    184    ccc    H36   7623 0.06278000   1.008000   ; qtot 185.646063
 7624         oh    184    ccc    O12   7624 -0.59472000  16.000000   ; qtot 185.051343
 7625         ho    184    ccc    H37   7625 0.41908000   1.008000   ; qtot 185.470423
 7626         os    184    ccc    O13   7626 -0.44552000  16.000000   ; qtot 185.024903
 7627         ho    184    ccc    H38   7627 0.41908000   1.008000   ; qtot 185.443983
 7628         h1    184    ccc    H39   7628 0.08578000   1.008000   ; qtot 185.529763
 7629         oh    184    ccc     O5   7629 -0.58672000  16.000000   ; qtot 184.943043
 7630         ho    184    ccc    H40   7630 0.41908000   1.008000   ; qtot 185.362123
 7631         n3    184    ccc     N4   7631 -0.54282000  14.010000   ; qtot 184.819303
 7632         hn    184    ccc    H41   7632 0.17125500   1.008000   ; qtot 184.990558
; residue  185 ccc rtp ccc q 1.0
 7633          n    185    ccc     N1   7633 -0.33303000  14.010000   ; qtot 184.657528
 7634         hn    185    ccc     H4   7634 0.25916100   1.008000   ; qtot 184.916689
 7635         c3    185    ccc     C3   7635 -0.03328100  12.010000   ; qtot 184.883408
 7636         h1    185    ccc     H5   7636 0.10618100   1.008000   ; qtot 184.989589
 7637         c3    185    ccc     C4   7637 -0.02083000  12.010000   ; qtot 184.968759
 7638         h1    185    ccc     H6   7638 0.10618100   1.008000   ; qtot 185.074940
 7639         h1    185    ccc     H7   7639 0.07988000   1.008000   ; qtot 185.154820
 7640         h1    185    ccc     H8   7640 0.07988000   1.008000   ; qtot 185.234700
 7641         n4    185    ccc     N2   7641 -0.02747900  14.010000   ; qtot 185.207221
 7642         c3    185    ccc     C5   7642 -0.05097600  12.010000   ; qtot 185.156245
 7643         c3    185    ccc     C6   7643 -0.05097600  12.010000   ; qtot 185.105269
 7644         h1    185    ccc     H9   7644 0.11563300   1.008000   ; qtot 185.220902
 7645         c3    185    ccc     C7   7645 -0.18457900  12.010000   ; qtot 185.036323
 7646         h1    185    ccc    H10   7646 0.11563300   1.008000   ; qtot 185.151956
 7647         hc    185    ccc    H11   7647 0.08347900   1.008000   ; qtot 185.235435
 7648         hc    185    ccc    H12   7648 0.08347900   1.008000   ; qtot 185.318914
 7649          c    185    ccc     C8   7649 0.67254400  12.010000   ; qtot 185.991458
 7650          o    185    ccc     O2   7650 -0.52917200  16.000000   ; qtot 185.462286
 7651         h1    185    ccc    H13   7651 0.11563300   1.008000   ; qtot 185.577919
 7652         h1    185    ccc    H14   7652 0.11563300   1.008000   ; qtot 185.693552
 7653         c3    185    ccc     C9   7653 -0.18457900  12.010000   ; qtot 185.508973
 7654         hc    185    ccc    H15   7654 0.08347900   1.008000   ; qtot 185.592452
 7655         hc    185    ccc    H16   7655 0.08347900   1.008000   ; qtot 185.675931
 7656          c    185    ccc    C10   7656 0.67254400  12.010000   ; qtot 186.348475
 7657          o    185    ccc     O4   7657 -0.52917200  16.000000   ; qtot 185.819303
 7658         c3    185    ccc    C11   7658 0.08518000  12.010000   ; qtot 185.904483
 7659         c3    185    ccc    C12   7659 0.07918000  12.010000   ; qtot 185.983663
 7660         h1    185    ccc    H17   7660 0.06978000   1.008000   ; qtot 186.053443
 7661         c3    185    ccc    C13   7661 0.07918000  12.010000   ; qtot 186.132623
 7662         c3    185    ccc    C14   7662 0.03578000  12.010000   ; qtot 186.168403
 7663         c3    185    ccc    C15   7663 0.33498000  12.010000   ; qtot 186.503383
 7664         h1    185    ccc    H18   7664 0.06178000   1.008000   ; qtot 186.565163
 7665         h1    185    ccc    H19   7665 0.11278000   1.008000   ; qtot 186.677943
 7666         h2    185    ccc    H20   7666 0.12178000   1.008000   ; qtot 186.799723
 7667         oh    185    ccc     O1   7667 -0.56972000  16.000000   ; qtot 186.230003
 7668         oh    185    ccc     O6   7668 -0.57772000  16.000000   ; qtot 185.652283
 7669         c3    185    ccc    C16   7669 0.14548000  12.010000   ; qtot 185.797763
 7670         ho    185    ccc    H21   7670 0.40508000   1.008000   ; qtot 186.202843
 7671         hn    185    ccc    H22   7671 0.31758000   1.008000   ; qtot 186.520423
 7672         h1    185    ccc    H23   7672 0.06278000   1.008000   ; qtot 186.583203
 7673         h1    185    ccc    H24   7673 0.06278000   1.008000   ; qtot 186.645983
 7674         oh    185    ccc     O7   7674 -0.59472000  16.000000   ; qtot 186.051263
 7675         ho    185    ccc    H25   7675 0.41908000   1.008000   ; qtot 186.470343
 7676         os    185    ccc     O8   7676 -0.44552000  16.000000   ; qtot 186.024823
 7677         ho    185    ccc    H26   7677 0.41908000   1.008000   ; qtot 186.443903
 7678         h1    185    ccc    H27   7678 0.08578000   1.008000   ; qtot 186.529683
 7679         oh    185    ccc     O9   7679 -0.58672000  16.000000   ; qtot 185.942963
 7680         ho    185    ccc    H28   7680 0.41908000   1.008000   ; qtot 186.362043
 7681         n3    185    ccc     N3   7681 -0.54282000  14.010000   ; qtot 185.819223
 7682         c3    185    ccc    C17   7682 0.08518000  12.010000   ; qtot 185.904403
 7683         c3    185    ccc    C18   7683 0.07918000  12.010000   ; qtot 185.983583
 7684         h1    185    ccc    H29   7684 0.06978000   1.008000   ; qtot 186.053363
 7685         c3    185    ccc    C19   7685 0.07918000  12.010000   ; qtot 186.132543
 7686         c3    185    ccc    C20   7686 0.03578000  12.010000   ; qtot 186.168323
 7687         c3    185    ccc    C21   7687 0.33498000  12.010000   ; qtot 186.503303
 7688         h1    185    ccc    H30   7688 0.06178000   1.008000   ; qtot 186.565083
 7689         h1    185    ccc    H31   7689 0.11278000   1.008000   ; qtot 186.677863
 7690         h2    185    ccc    H32   7690 0.12178000   1.008000   ; qtot 186.799643
 7691         oh    185    ccc    O10   7691 -0.56972000  16.000000   ; qtot 186.229923
 7692         oh    185    ccc    O11   7692 -0.57772000  16.000000   ; qtot 185.652203
 7693         c3    185    ccc    C22   7693 0.14548000  12.010000   ; qtot 185.797683
 7694         ho    185    ccc    H33   7694 0.40508000   1.008000   ; qtot 186.202763
 7695         hn    185    ccc    H34   7695 0.31758000   1.008000   ; qtot 186.520343
 7696         h1    185    ccc    H35   7696 0.06278000   1.008000   ; qtot 186.583123
 7697         h1    185    ccc    H36   7697 0.06278000   1.008000   ; qtot 186.645903
 7698         oh    185    ccc    O12   7698 -0.59472000  16.000000   ; qtot 186.051183
 7699         ho    185    ccc    H37   7699 0.41908000   1.008000   ; qtot 186.470263
 7700         os    185    ccc    O13   7700 -0.44552000  16.000000   ; qtot 186.024743
 7701         ho    185    ccc    H38   7701 0.41908000   1.008000   ; qtot 186.443823
 7702         h1    185    ccc    H39   7702 0.08578000   1.008000   ; qtot 186.529603
 7703         oh    185    ccc     O5   7703 -0.58672000  16.000000   ; qtot 185.942883
 7704         ho    185    ccc    H40   7704 0.41908000   1.008000   ; qtot 186.361963
 7705         n3    185    ccc     N4   7705 -0.54282000  14.010000   ; qtot 185.819143
 7706         hn    185    ccc    H41   7706 0.17125500   1.008000   ; qtot 185.990398
; residue  186 ccc rtp ccc q 1.0
 7707          n    186    ccc     N1   7707 -0.33303000  14.010000   ; qtot 185.657368
 7708         hn    186    ccc     H4   7708 0.25916100   1.008000   ; qtot 185.916529
 7709         c3    186    ccc     C3   7709 -0.03328100  12.010000   ; qtot 185.883248
 7710         h1    186    ccc     H5   7710 0.10618100   1.008000   ; qtot 185.989429
 7711         c3    186    ccc     C4   7711 -0.02083000  12.010000   ; qtot 185.968599
 7712         h1    186    ccc     H6   7712 0.10618100   1.008000   ; qtot 186.074780
 7713         h1    186    ccc     H7   7713 0.07988000   1.008000   ; qtot 186.154660
 7714         h1    186    ccc     H8   7714 0.07988000   1.008000   ; qtot 186.234540
 7715         n4    186    ccc     N2   7715 -0.02747900  14.010000   ; qtot 186.207061
 7716         c3    186    ccc     C5   7716 -0.05097600  12.010000   ; qtot 186.156085
 7717         c3    186    ccc     C6   7717 -0.05097600  12.010000   ; qtot 186.105109
 7718         h1    186    ccc     H9   7718 0.11563300   1.008000   ; qtot 186.220742
 7719         c3    186    ccc     C7   7719 -0.18457900  12.010000   ; qtot 186.036163
 7720         h1    186    ccc    H10   7720 0.11563300   1.008000   ; qtot 186.151796
 7721         hc    186    ccc    H11   7721 0.08347900   1.008000   ; qtot 186.235275
 7722         hc    186    ccc    H12   7722 0.08347900   1.008000   ; qtot 186.318754
 7723          c    186    ccc     C8   7723 0.67254400  12.010000   ; qtot 186.991298
 7724          o    186    ccc     O2   7724 -0.52917200  16.000000   ; qtot 186.462126
 7725         h1    186    ccc    H13   7725 0.11563300   1.008000   ; qtot 186.577759
 7726         h1    186    ccc    H14   7726 0.11563300   1.008000   ; qtot 186.693392
 7727         c3    186    ccc     C9   7727 -0.18457900  12.010000   ; qtot 186.508813
 7728         hc    186    ccc    H15   7728 0.08347900   1.008000   ; qtot 186.592292
 7729         hc    186    ccc    H16   7729 0.08347900   1.008000   ; qtot 186.675771
 7730          c    186    ccc    C10   7730 0.67254400  12.010000   ; qtot 187.348315
 7731          o    186    ccc     O4   7731 -0.52917200  16.000000   ; qtot 186.819143
 7732         c3    186    ccc    C11   7732 0.08518000  12.010000   ; qtot 186.904323
 7733         c3    186    ccc    C12   7733 0.07918000  12.010000   ; qtot 186.983503
 7734         h1    186    ccc    H17   7734 0.06978000   1.008000   ; qtot 187.053283
 7735         c3    186    ccc    C13   7735 0.07918000  12.010000   ; qtot 187.132463
 7736         c3    186    ccc    C14   7736 0.03578000  12.010000   ; qtot 187.168243
 7737         c3    186    ccc    C15   7737 0.33498000  12.010000   ; qtot 187.503223
 7738         h1    186    ccc    H18   7738 0.06178000   1.008000   ; qtot 187.565003
 7739         h1    186    ccc    H19   7739 0.11278000   1.008000   ; qtot 187.677783
 7740         h2    186    ccc    H20   7740 0.12178000   1.008000   ; qtot 187.799563
 7741         oh    186    ccc     O1   7741 -0.56972000  16.000000   ; qtot 187.229843
 7742         oh    186    ccc     O6   7742 -0.57772000  16.000000   ; qtot 186.652123
 7743         c3    186    ccc    C16   7743 0.14548000  12.010000   ; qtot 186.797603
 7744         ho    186    ccc    H21   7744 0.40508000   1.008000   ; qtot 187.202683
 7745         hn    186    ccc    H22   7745 0.31758000   1.008000   ; qtot 187.520263
 7746         h1    186    ccc    H23   7746 0.06278000   1.008000   ; qtot 187.583043
 7747         h1    186    ccc    H24   7747 0.06278000   1.008000   ; qtot 187.645823
 7748         oh    186    ccc     O7   7748 -0.59472000  16.000000   ; qtot 187.051103
 7749         ho    186    ccc    H25   7749 0.41908000   1.008000   ; qtot 187.470183
 7750         os    186    ccc     O8   7750 -0.44552000  16.000000   ; qtot 187.024663
 7751         ho    186    ccc    H26   7751 0.41908000   1.008000   ; qtot 187.443743
 7752         h1    186    ccc    H27   7752 0.08578000   1.008000   ; qtot 187.529523
 7753         oh    186    ccc     O9   7753 -0.58672000  16.000000   ; qtot 186.942803
 7754         ho    186    ccc    H28   7754 0.41908000   1.008000   ; qtot 187.361883
 7755         n3    186    ccc     N3   7755 -0.54282000  14.010000   ; qtot 186.819063
 7756         c3    186    ccc    C17   7756 0.08518000  12.010000   ; qtot 186.904243
 7757         c3    186    ccc    C18   7757 0.07918000  12.010000   ; qtot 186.983423
 7758         h1    186    ccc    H29   7758 0.06978000   1.008000   ; qtot 187.053203
 7759         c3    186    ccc    C19   7759 0.07918000  12.010000   ; qtot 187.132383
 7760         c3    186    ccc    C20   7760 0.03578000  12.010000   ; qtot 187.168163
 7761         c3    186    ccc    C21   7761 0.33498000  12.010000   ; qtot 187.503143
 7762         h1    186    ccc    H30   7762 0.06178000   1.008000   ; qtot 187.564923
 7763         h1    186    ccc    H31   7763 0.11278000   1.008000   ; qtot 187.677703
 7764         h2    186    ccc    H32   7764 0.12178000   1.008000   ; qtot 187.799483
 7765         oh    186    ccc    O10   7765 -0.56972000  16.000000   ; qtot 187.229763
 7766         oh    186    ccc    O11   7766 -0.57772000  16.000000   ; qtot 186.652043
 7767         c3    186    ccc    C22   7767 0.14548000  12.010000   ; qtot 186.797523
 7768         ho    186    ccc    H33   7768 0.40508000   1.008000   ; qtot 187.202603
 7769         hn    186    ccc    H34   7769 0.31758000   1.008000   ; qtot 187.520183
 7770         h1    186    ccc    H35   7770 0.06278000   1.008000   ; qtot 187.582963
 7771         h1    186    ccc    H36   7771 0.06278000   1.008000   ; qtot 187.645743
 7772         oh    186    ccc    O12   7772 -0.59472000  16.000000   ; qtot 187.051023
 7773         ho    186    ccc    H37   7773 0.41908000   1.008000   ; qtot 187.470103
 7774         os    186    ccc    O13   7774 -0.44552000  16.000000   ; qtot 187.024583
 7775         ho    186    ccc    H38   7775 0.41908000   1.008000   ; qtot 187.443663
 7776         h1    186    ccc    H39   7776 0.08578000   1.008000   ; qtot 187.529443
 7777         oh    186    ccc     O5   7777 -0.58672000  16.000000   ; qtot 186.942723
 7778         ho    186    ccc    H40   7778 0.41908000   1.008000   ; qtot 187.361803
 7779         n3    186    ccc     N4   7779 -0.54282000  14.010000   ; qtot 186.818983
 7780         hn    186    ccc    H41   7780 0.17125500   1.008000   ; qtot 186.990238
; residue  187 ccc rtp ccc q 1.0
 7781          n    187    ccc     N1   7781 -0.33303000  14.010000   ; qtot 186.657208
 7782         hn    187    ccc     H4   7782 0.25916100   1.008000   ; qtot 186.916369
 7783         c3    187    ccc     C3   7783 -0.03328100  12.010000   ; qtot 186.883088
 7784         h1    187    ccc     H5   7784 0.10618100   1.008000   ; qtot 186.989269
 7785         c3    187    ccc     C4   7785 -0.02083000  12.010000   ; qtot 186.968439
 7786         h1    187    ccc     H6   7786 0.10618100   1.008000   ; qtot 187.074620
 7787         h1    187    ccc     H7   7787 0.07988000   1.008000   ; qtot 187.154500
 7788         h1    187    ccc     H8   7788 0.07988000   1.008000   ; qtot 187.234380
 7789         n4    187    ccc     N2   7789 -0.02747900  14.010000   ; qtot 187.206901
 7790         c3    187    ccc     C5   7790 -0.05097600  12.010000   ; qtot 187.155925
 7791         c3    187    ccc     C6   7791 -0.05097600  12.010000   ; qtot 187.104949
 7792         h1    187    ccc     H9   7792 0.11563300   1.008000   ; qtot 187.220582
 7793         c3    187    ccc     C7   7793 -0.18457900  12.010000   ; qtot 187.036003
 7794         h1    187    ccc    H10   7794 0.11563300   1.008000   ; qtot 187.151636
 7795         hc    187    ccc    H11   7795 0.08347900   1.008000   ; qtot 187.235115
 7796         hc    187    ccc    H12   7796 0.08347900   1.008000   ; qtot 187.318594
 7797          c    187    ccc     C8   7797 0.67254400  12.010000   ; qtot 187.991138
 7798          o    187    ccc     O2   7798 -0.52917200  16.000000   ; qtot 187.461966
 7799         h1    187    ccc    H13   7799 0.11563300   1.008000   ; qtot 187.577599
 7800         h1    187    ccc    H14   7800 0.11563300   1.008000   ; qtot 187.693232
 7801         c3    187    ccc     C9   7801 -0.18457900  12.010000   ; qtot 187.508653
 7802         hc    187    ccc    H15   7802 0.08347900   1.008000   ; qtot 187.592132
 7803         hc    187    ccc    H16   7803 0.08347900   1.008000   ; qtot 187.675611
 7804          c    187    ccc    C10   7804 0.67254400  12.010000   ; qtot 188.348155
 7805          o    187    ccc     O4   7805 -0.52917200  16.000000   ; qtot 187.818983
 7806         c3    187    ccc    C11   7806 0.08518000  12.010000   ; qtot 187.904163
 7807         c3    187    ccc    C12   7807 0.07918000  12.010000   ; qtot 187.983343
 7808         h1    187    ccc    H17   7808 0.06978000   1.008000   ; qtot 188.053123
 7809         c3    187    ccc    C13   7809 0.07918000  12.010000   ; qtot 188.132303
 7810         c3    187    ccc    C14   7810 0.03578000  12.010000   ; qtot 188.168083
 7811         c3    187    ccc    C15   7811 0.33498000  12.010000   ; qtot 188.503063
 7812         h1    187    ccc    H18   7812 0.06178000   1.008000   ; qtot 188.564843
 7813         h1    187    ccc    H19   7813 0.11278000   1.008000   ; qtot 188.677623
 7814         h2    187    ccc    H20   7814 0.12178000   1.008000   ; qtot 188.799403
 7815         oh    187    ccc     O1   7815 -0.56972000  16.000000   ; qtot 188.229683
 7816         oh    187    ccc     O6   7816 -0.57772000  16.000000   ; qtot 187.651963
 7817         c3    187    ccc    C16   7817 0.14548000  12.010000   ; qtot 187.797443
 7818         ho    187    ccc    H21   7818 0.40508000   1.008000   ; qtot 188.202523
 7819         hn    187    ccc    H22   7819 0.31758000   1.008000   ; qtot 188.520103
 7820         h1    187    ccc    H23   7820 0.06278000   1.008000   ; qtot 188.582883
 7821         h1    187    ccc    H24   7821 0.06278000   1.008000   ; qtot 188.645663
 7822         oh    187    ccc     O7   7822 -0.59472000  16.000000   ; qtot 188.050943
 7823         ho    187    ccc    H25   7823 0.41908000   1.008000   ; qtot 188.470023
 7824         os    187    ccc     O8   7824 -0.44552000  16.000000   ; qtot 188.024503
 7825         ho    187    ccc    H26   7825 0.41908000   1.008000   ; qtot 188.443583
 7826         h1    187    ccc    H27   7826 0.08578000   1.008000   ; qtot 188.529363
 7827         oh    187    ccc     O9   7827 -0.58672000  16.000000   ; qtot 187.942643
 7828         ho    187    ccc    H28   7828 0.41908000   1.008000   ; qtot 188.361723
 7829         n3    187    ccc     N3   7829 -0.54282000  14.010000   ; qtot 187.818903
 7830         c3    187    ccc    C17   7830 0.08518000  12.010000   ; qtot 187.904083
 7831         c3    187    ccc    C18   7831 0.07918000  12.010000   ; qtot 187.983263
 7832         h1    187    ccc    H29   7832 0.06978000   1.008000   ; qtot 188.053043
 7833         c3    187    ccc    C19   7833 0.07918000  12.010000   ; qtot 188.132223
 7834         c3    187    ccc    C20   7834 0.03578000  12.010000   ; qtot 188.168003
 7835         c3    187    ccc    C21   7835 0.33498000  12.010000   ; qtot 188.502983
 7836         h1    187    ccc    H30   7836 0.06178000   1.008000   ; qtot 188.564763
 7837         h1    187    ccc    H31   7837 0.11278000   1.008000   ; qtot 188.677543
 7838         h2    187    ccc    H32   7838 0.12178000   1.008000   ; qtot 188.799323
 7839         oh    187    ccc    O10   7839 -0.56972000  16.000000   ; qtot 188.229603
 7840         oh    187    ccc    O11   7840 -0.57772000  16.000000   ; qtot 187.651883
 7841         c3    187    ccc    C22   7841 0.14548000  12.010000   ; qtot 187.797363
 7842         ho    187    ccc    H33   7842 0.40508000   1.008000   ; qtot 188.202443
 7843         hn    187    ccc    H34   7843 0.31758000   1.008000   ; qtot 188.520023
 7844         h1    187    ccc    H35   7844 0.06278000   1.008000   ; qtot 188.582803
 7845         h1    187    ccc    H36   7845 0.06278000   1.008000   ; qtot 188.645583
 7846         oh    187    ccc    O12   7846 -0.59472000  16.000000   ; qtot 188.050863
 7847         ho    187    ccc    H37   7847 0.41908000   1.008000   ; qtot 188.469943
 7848         os    187    ccc    O13   7848 -0.44552000  16.000000   ; qtot 188.024423
 7849         ho    187    ccc    H38   7849 0.41908000   1.008000   ; qtot 188.443503
 7850         h1    187    ccc    H39   7850 0.08578000   1.008000   ; qtot 188.529283
 7851         oh    187    ccc     O5   7851 -0.58672000  16.000000   ; qtot 187.942563
 7852         ho    187    ccc    H40   7852 0.41908000   1.008000   ; qtot 188.361643
 7853         n3    187    ccc     N4   7853 -0.54282000  14.010000   ; qtot 187.818823
 7854         hn    187    ccc    H41   7854 0.17125500   1.008000   ; qtot 187.990078
; residue  188 ccc rtp ccc q 1.0
 7855          n    188    ccc     N1   7855 -0.33303000  14.010000   ; qtot 187.657048
 7856         hn    188    ccc     H4   7856 0.25916100   1.008000   ; qtot 187.916209
 7857         c3    188    ccc     C3   7857 -0.03328100  12.010000   ; qtot 187.882928
 7858         h1    188    ccc     H5   7858 0.10618100   1.008000   ; qtot 187.989109
 7859         c3    188    ccc     C4   7859 -0.02083000  12.010000   ; qtot 187.968279
 7860         h1    188    ccc     H6   7860 0.10618100   1.008000   ; qtot 188.074460
 7861         h1    188    ccc     H7   7861 0.07988000   1.008000   ; qtot 188.154340
 7862         h1    188    ccc     H8   7862 0.07988000   1.008000   ; qtot 188.234220
 7863         n4    188    ccc     N2   7863 -0.02747900  14.010000   ; qtot 188.206741
 7864         c3    188    ccc     C5   7864 -0.05097600  12.010000   ; qtot 188.155765
 7865         c3    188    ccc     C6   7865 -0.05097600  12.010000   ; qtot 188.104789
 7866         h1    188    ccc     H9   7866 0.11563300   1.008000   ; qtot 188.220422
 7867         c3    188    ccc     C7   7867 -0.18457900  12.010000   ; qtot 188.035843
 7868         h1    188    ccc    H10   7868 0.11563300   1.008000   ; qtot 188.151476
 7869         hc    188    ccc    H11   7869 0.08347900   1.008000   ; qtot 188.234955
 7870         hc    188    ccc    H12   7870 0.08347900   1.008000   ; qtot 188.318434
 7871          c    188    ccc     C8   7871 0.67254400  12.010000   ; qtot 188.990978
 7872          o    188    ccc     O2   7872 -0.52917200  16.000000   ; qtot 188.461806
 7873         h1    188    ccc    H13   7873 0.11563300   1.008000   ; qtot 188.577439
 7874         h1    188    ccc    H14   7874 0.11563300   1.008000   ; qtot 188.693072
 7875         c3    188    ccc     C9   7875 -0.18457900  12.010000   ; qtot 188.508493
 7876         hc    188    ccc    H15   7876 0.08347900   1.008000   ; qtot 188.591972
 7877         hc    188    ccc    H16   7877 0.08347900   1.008000   ; qtot 188.675451
 7878          c    188    ccc    C10   7878 0.67254400  12.010000   ; qtot 189.347995
 7879          o    188    ccc     O4   7879 -0.52917200  16.000000   ; qtot 188.818823
 7880         c3    188    ccc    C11   7880 0.08518000  12.010000   ; qtot 188.904003
 7881         c3    188    ccc    C12   7881 0.07918000  12.010000   ; qtot 188.983183
 7882         h1    188    ccc    H17   7882 0.06978000   1.008000   ; qtot 189.052963
 7883         c3    188    ccc    C13   7883 0.07918000  12.010000   ; qtot 189.132143
 7884         c3    188    ccc    C14   7884 0.03578000  12.010000   ; qtot 189.167923
 7885         c3    188    ccc    C15   7885 0.33498000  12.010000   ; qtot 189.502903
 7886         h1    188    ccc    H18   7886 0.06178000   1.008000   ; qtot 189.564683
 7887         h1    188    ccc    H19   7887 0.11278000   1.008000   ; qtot 189.677463
 7888         h2    188    ccc    H20   7888 0.12178000   1.008000   ; qtot 189.799243
 7889         oh    188    ccc     O1   7889 -0.56972000  16.000000   ; qtot 189.229523
 7890         oh    188    ccc     O6   7890 -0.57772000  16.000000   ; qtot 188.651803
 7891         c3    188    ccc    C16   7891 0.14548000  12.010000   ; qtot 188.797283
 7892         ho    188    ccc    H21   7892 0.40508000   1.008000   ; qtot 189.202363
 7893         hn    188    ccc    H22   7893 0.31758000   1.008000   ; qtot 189.519943
 7894         h1    188    ccc    H23   7894 0.06278000   1.008000   ; qtot 189.582723
 7895         h1    188    ccc    H24   7895 0.06278000   1.008000   ; qtot 189.645503
 7896         oh    188    ccc     O7   7896 -0.59472000  16.000000   ; qtot 189.050783
 7897         ho    188    ccc    H25   7897 0.41908000   1.008000   ; qtot 189.469863
 7898         os    188    ccc     O8   7898 -0.44552000  16.000000   ; qtot 189.024343
 7899         ho    188    ccc    H26   7899 0.41908000   1.008000   ; qtot 189.443423
 7900         h1    188    ccc    H27   7900 0.08578000   1.008000   ; qtot 189.529203
 7901         oh    188    ccc     O9   7901 -0.58672000  16.000000   ; qtot 188.942483
 7902         ho    188    ccc    H28   7902 0.41908000   1.008000   ; qtot 189.361563
 7903         n3    188    ccc     N3   7903 -0.54282000  14.010000   ; qtot 188.818743
 7904         c3    188    ccc    C17   7904 0.08518000  12.010000   ; qtot 188.903923
 7905         c3    188    ccc    C18   7905 0.07918000  12.010000   ; qtot 188.983103
 7906         h1    188    ccc    H29   7906 0.06978000   1.008000   ; qtot 189.052883
 7907         c3    188    ccc    C19   7907 0.07918000  12.010000   ; qtot 189.132063
 7908         c3    188    ccc    C20   7908 0.03578000  12.010000   ; qtot 189.167843
 7909         c3    188    ccc    C21   7909 0.33498000  12.010000   ; qtot 189.502823
 7910         h1    188    ccc    H30   7910 0.06178000   1.008000   ; qtot 189.564603
 7911         h1    188    ccc    H31   7911 0.11278000   1.008000   ; qtot 189.677383
 7912         h2    188    ccc    H32   7912 0.12178000   1.008000   ; qtot 189.799163
 7913         oh    188    ccc    O10   7913 -0.56972000  16.000000   ; qtot 189.229443
 7914         oh    188    ccc    O11   7914 -0.57772000  16.000000   ; qtot 188.651723
 7915         c3    188    ccc    C22   7915 0.14548000  12.010000   ; qtot 188.797203
 7916         ho    188    ccc    H33   7916 0.40508000   1.008000   ; qtot 189.202283
 7917         hn    188    ccc    H34   7917 0.31758000   1.008000   ; qtot 189.519863
 7918         h1    188    ccc    H35   7918 0.06278000   1.008000   ; qtot 189.582643
 7919         h1    188    ccc    H36   7919 0.06278000   1.008000   ; qtot 189.645423
 7920         oh    188    ccc    O12   7920 -0.59472000  16.000000   ; qtot 189.050703
 7921         ho    188    ccc    H37   7921 0.41908000   1.008000   ; qtot 189.469783
 7922         os    188    ccc    O13   7922 -0.44552000  16.000000   ; qtot 189.024263
 7923         ho    188    ccc    H38   7923 0.41908000   1.008000   ; qtot 189.443343
 7924         h1    188    ccc    H39   7924 0.08578000   1.008000   ; qtot 189.529123
 7925         oh    188    ccc     O5   7925 -0.58672000  16.000000   ; qtot 188.942403
 7926         ho    188    ccc    H40   7926 0.41908000   1.008000   ; qtot 189.361483
 7927         n3    188    ccc     N4   7927 -0.54282000  14.010000   ; qtot 188.818663
 7928         hn    188    ccc    H41   7928 0.17125500   1.008000   ; qtot 188.989918
; residue  189 ccc rtp ccc q 1.0
 7929          n    189    ccc     N1   7929 -0.33303000  14.010000   ; qtot 188.656888
 7930         hn    189    ccc     H4   7930 0.25916100   1.008000   ; qtot 188.916049
 7931         c3    189    ccc     C3   7931 -0.03328100  12.010000   ; qtot 188.882768
 7932         h1    189    ccc     H5   7932 0.10618100   1.008000   ; qtot 188.988949
 7933         c3    189    ccc     C4   7933 -0.02083000  12.010000   ; qtot 188.968119
 7934         h1    189    ccc     H6   7934 0.10618100   1.008000   ; qtot 189.074300
 7935         h1    189    ccc     H7   7935 0.07988000   1.008000   ; qtot 189.154180
 7936         h1    189    ccc     H8   7936 0.07988000   1.008000   ; qtot 189.234060
 7937         n4    189    ccc     N2   7937 -0.02747900  14.010000   ; qtot 189.206581
 7938         c3    189    ccc     C5   7938 -0.05097600  12.010000   ; qtot 189.155605
 7939         c3    189    ccc     C6   7939 -0.05097600  12.010000   ; qtot 189.104629
 7940         h1    189    ccc     H9   7940 0.11563300   1.008000   ; qtot 189.220262
 7941         c3    189    ccc     C7   7941 -0.18457900  12.010000   ; qtot 189.035683
 7942         h1    189    ccc    H10   7942 0.11563300   1.008000   ; qtot 189.151316
 7943         hc    189    ccc    H11   7943 0.08347900   1.008000   ; qtot 189.234795
 7944         hc    189    ccc    H12   7944 0.08347900   1.008000   ; qtot 189.318274
 7945          c    189    ccc     C8   7945 0.67254400  12.010000   ; qtot 189.990818
 7946          o    189    ccc     O2   7946 -0.52917200  16.000000   ; qtot 189.461646
 7947         h1    189    ccc    H13   7947 0.11563300   1.008000   ; qtot 189.577279
 7948         h1    189    ccc    H14   7948 0.11563300   1.008000   ; qtot 189.692912
 7949         c3    189    ccc     C9   7949 -0.18457900  12.010000   ; qtot 189.508333
 7950         hc    189    ccc    H15   7950 0.08347900   1.008000   ; qtot 189.591812
 7951         hc    189    ccc    H16   7951 0.08347900   1.008000   ; qtot 189.675291
 7952          c    189    ccc    C10   7952 0.67254400  12.010000   ; qtot 190.347835
 7953          o    189    ccc     O4   7953 -0.52917200  16.000000   ; qtot 189.818663
 7954         c3    189    ccc    C11   7954 0.08518000  12.010000   ; qtot 189.903843
 7955         c3    189    ccc    C12   7955 0.07918000  12.010000   ; qtot 189.983023
 7956         h1    189    ccc    H17   7956 0.06978000   1.008000   ; qtot 190.052803
 7957         c3    189    ccc    C13   7957 0.07918000  12.010000   ; qtot 190.131983
 7958         c3    189    ccc    C14   7958 0.03578000  12.010000   ; qtot 190.167763
 7959         c3    189    ccc    C15   7959 0.33498000  12.010000   ; qtot 190.502743
 7960         h1    189    ccc    H18   7960 0.06178000   1.008000   ; qtot 190.564523
 7961         h1    189    ccc    H19   7961 0.11278000   1.008000   ; qtot 190.677303
 7962         h2    189    ccc    H20   7962 0.12178000   1.008000   ; qtot 190.799083
 7963         oh    189    ccc     O1   7963 -0.56972000  16.000000   ; qtot 190.229363
 7964         oh    189    ccc     O6   7964 -0.57772000  16.000000   ; qtot 189.651643
 7965         c3    189    ccc    C16   7965 0.14548000  12.010000   ; qtot 189.797123
 7966         ho    189    ccc    H21   7966 0.40508000   1.008000   ; qtot 190.202203
 7967         hn    189    ccc    H22   7967 0.31758000   1.008000   ; qtot 190.519783
 7968         h1    189    ccc    H23   7968 0.06278000   1.008000   ; qtot 190.582563
 7969         h1    189    ccc    H24   7969 0.06278000   1.008000   ; qtot 190.645343
 7970         oh    189    ccc     O7   7970 -0.59472000  16.000000   ; qtot 190.050623
 7971         ho    189    ccc    H25   7971 0.41908000   1.008000   ; qtot 190.469703
 7972         os    189    ccc     O8   7972 -0.44552000  16.000000   ; qtot 190.024183
 7973         ho    189    ccc    H26   7973 0.41908000   1.008000   ; qtot 190.443263
 7974         h1    189    ccc    H27   7974 0.08578000   1.008000   ; qtot 190.529043
 7975         oh    189    ccc     O9   7975 -0.58672000  16.000000   ; qtot 189.942323
 7976         ho    189    ccc    H28   7976 0.41908000   1.008000   ; qtot 190.361403
 7977         n3    189    ccc     N3   7977 -0.54282000  14.010000   ; qtot 189.818583
 7978         c3    189    ccc    C17   7978 0.08518000  12.010000   ; qtot 189.903763
 7979         c3    189    ccc    C18   7979 0.07918000  12.010000   ; qtot 189.982943
 7980         h1    189    ccc    H29   7980 0.06978000   1.008000   ; qtot 190.052723
 7981         c3    189    ccc    C19   7981 0.07918000  12.010000   ; qtot 190.131903
 7982         c3    189    ccc    C20   7982 0.03578000  12.010000   ; qtot 190.167683
 7983         c3    189    ccc    C21   7983 0.33498000  12.010000   ; qtot 190.502663
 7984         h1    189    ccc    H30   7984 0.06178000   1.008000   ; qtot 190.564443
 7985         h1    189    ccc    H31   7985 0.11278000   1.008000   ; qtot 190.677223
 7986         h2    189    ccc    H32   7986 0.12178000   1.008000   ; qtot 190.799003
 7987         oh    189    ccc    O10   7987 -0.56972000  16.000000   ; qtot 190.229283
 7988         oh    189    ccc    O11   7988 -0.57772000  16.000000   ; qtot 189.651563
 7989         c3    189    ccc    C22   7989 0.14548000  12.010000   ; qtot 189.797043
 7990         ho    189    ccc    H33   7990 0.40508000   1.008000   ; qtot 190.202123
 7991         hn    189    ccc    H34   7991 0.31758000   1.008000   ; qtot 190.519703
 7992         h1    189    ccc    H35   7992 0.06278000   1.008000   ; qtot 190.582483
 7993         h1    189    ccc    H36   7993 0.06278000   1.008000   ; qtot 190.645263
 7994         oh    189    ccc    O12   7994 -0.59472000  16.000000   ; qtot 190.050543
 7995         ho    189    ccc    H37   7995 0.41908000   1.008000   ; qtot 190.469623
 7996         os    189    ccc    O13   7996 -0.44552000  16.000000   ; qtot 190.024103
 7997         ho    189    ccc    H38   7997 0.41908000   1.008000   ; qtot 190.443183
 7998         h1    189    ccc    H39   7998 0.08578000   1.008000   ; qtot 190.528963
 7999         oh    189    ccc     O5   7999 -0.58672000  16.000000   ; qtot 189.942243
 8000         ho    189    ccc    H40   8000 0.41908000   1.008000   ; qtot 190.361323
 8001         n3    189    ccc     N4   8001 -0.54282000  14.010000   ; qtot 189.818503
 8002         hn    189    ccc    H41   8002 0.17125500   1.008000   ; qtot 189.989758
; residue  190 ccc rtp ccc q 1.0
 8003          n    190    ccc     N1   8003 -0.33303000  14.010000   ; qtot 189.656728
 8004         hn    190    ccc     H4   8004 0.25916100   1.008000   ; qtot 189.915889
 8005         c3    190    ccc     C3   8005 -0.03328100  12.010000   ; qtot 189.882608
 8006         h1    190    ccc     H5   8006 0.10618100   1.008000   ; qtot 189.988789
 8007         c3    190    ccc     C4   8007 -0.02083000  12.010000   ; qtot 189.967959
 8008         h1    190    ccc     H6   8008 0.10618100   1.008000   ; qtot 190.074140
 8009         h1    190    ccc     H7   8009 0.07988000   1.008000   ; qtot 190.154020
 8010         h1    190    ccc     H8   8010 0.07988000   1.008000   ; qtot 190.233900
 8011         n4    190    ccc     N2   8011 -0.02747900  14.010000   ; qtot 190.206421
 8012         c3    190    ccc     C5   8012 -0.05097600  12.010000   ; qtot 190.155445
 8013         c3    190    ccc     C6   8013 -0.05097600  12.010000   ; qtot 190.104469
 8014         h1    190    ccc     H9   8014 0.11563300   1.008000   ; qtot 190.220102
 8015         c3    190    ccc     C7   8015 -0.18457900  12.010000   ; qtot 190.035523
 8016         h1    190    ccc    H10   8016 0.11563300   1.008000   ; qtot 190.151156
 8017         hc    190    ccc    H11   8017 0.08347900   1.008000   ; qtot 190.234635
 8018         hc    190    ccc    H12   8018 0.08347900   1.008000   ; qtot 190.318114
 8019          c    190    ccc     C8   8019 0.67254400  12.010000   ; qtot 190.990658
 8020          o    190    ccc     O2   8020 -0.52917200  16.000000   ; qtot 190.461486
 8021         h1    190    ccc    H13   8021 0.11563300   1.008000   ; qtot 190.577119
 8022         h1    190    ccc    H14   8022 0.11563300   1.008000   ; qtot 190.692752
 8023         c3    190    ccc     C9   8023 -0.18457900  12.010000   ; qtot 190.508173
 8024         hc    190    ccc    H15   8024 0.08347900   1.008000   ; qtot 190.591652
 8025         hc    190    ccc    H16   8025 0.08347900   1.008000   ; qtot 190.675131
 8026          c    190    ccc    C10   8026 0.67254400  12.010000   ; qtot 191.347675
 8027          o    190    ccc     O4   8027 -0.52917200  16.000000   ; qtot 190.818503
 8028         c3    190    ccc    C11   8028 0.08518000  12.010000   ; qtot 190.903683
 8029         c3    190    ccc    C12   8029 0.07918000  12.010000   ; qtot 190.982863
 8030         h1    190    ccc    H17   8030 0.06978000   1.008000   ; qtot 191.052643
 8031         c3    190    ccc    C13   8031 0.07918000  12.010000   ; qtot 191.131823
 8032         c3    190    ccc    C14   8032 0.03578000  12.010000   ; qtot 191.167603
 8033         c3    190    ccc    C15   8033 0.33498000  12.010000   ; qtot 191.502583
 8034         h1    190    ccc    H18   8034 0.06178000   1.008000   ; qtot 191.564363
 8035         h1    190    ccc    H19   8035 0.11278000   1.008000   ; qtot 191.677143
 8036         h2    190    ccc    H20   8036 0.12178000   1.008000   ; qtot 191.798923
 8037         oh    190    ccc     O1   8037 -0.56972000  16.000000   ; qtot 191.229203
 8038         oh    190    ccc     O6   8038 -0.57772000  16.000000   ; qtot 190.651483
 8039         c3    190    ccc    C16   8039 0.14548000  12.010000   ; qtot 190.796963
 8040         ho    190    ccc    H21   8040 0.40508000   1.008000   ; qtot 191.202043
 8041         hn    190    ccc    H22   8041 0.31758000   1.008000   ; qtot 191.519623
 8042         h1    190    ccc    H23   8042 0.06278000   1.008000   ; qtot 191.582403
 8043         h1    190    ccc    H24   8043 0.06278000   1.008000   ; qtot 191.645183
 8044         oh    190    ccc     O7   8044 -0.59472000  16.000000   ; qtot 191.050463
 8045         ho    190    ccc    H25   8045 0.41908000   1.008000   ; qtot 191.469543
 8046         os    190    ccc     O8   8046 -0.44552000  16.000000   ; qtot 191.024023
 8047         ho    190    ccc    H26   8047 0.41908000   1.008000   ; qtot 191.443103
 8048         h1    190    ccc    H27   8048 0.08578000   1.008000   ; qtot 191.528883
 8049         oh    190    ccc     O9   8049 -0.58672000  16.000000   ; qtot 190.942163
 8050         ho    190    ccc    H28   8050 0.41908000   1.008000   ; qtot 191.361243
 8051         n3    190    ccc     N3   8051 -0.54282000  14.010000   ; qtot 190.818423
 8052         c3    190    ccc    C17   8052 0.08518000  12.010000   ; qtot 190.903603
 8053         c3    190    ccc    C18   8053 0.07918000  12.010000   ; qtot 190.982783
 8054         h1    190    ccc    H29   8054 0.06978000   1.008000   ; qtot 191.052563
 8055         c3    190    ccc    C19   8055 0.07918000  12.010000   ; qtot 191.131743
 8056         c3    190    ccc    C20   8056 0.03578000  12.010000   ; qtot 191.167523
 8057         c3    190    ccc    C21   8057 0.33498000  12.010000   ; qtot 191.502503
 8058         h1    190    ccc    H30   8058 0.06178000   1.008000   ; qtot 191.564283
 8059         h1    190    ccc    H31   8059 0.11278000   1.008000   ; qtot 191.677063
 8060         h2    190    ccc    H32   8060 0.12178000   1.008000   ; qtot 191.798843
 8061         oh    190    ccc    O10   8061 -0.56972000  16.000000   ; qtot 191.229123
 8062         oh    190    ccc    O11   8062 -0.57772000  16.000000   ; qtot 190.651403
 8063         c3    190    ccc    C22   8063 0.14548000  12.010000   ; qtot 190.796883
 8064         ho    190    ccc    H33   8064 0.40508000   1.008000   ; qtot 191.201963
 8065         hn    190    ccc    H34   8065 0.31758000   1.008000   ; qtot 191.519543
 8066         h1    190    ccc    H35   8066 0.06278000   1.008000   ; qtot 191.582323
 8067         h1    190    ccc    H36   8067 0.06278000   1.008000   ; qtot 191.645103
 8068         oh    190    ccc    O12   8068 -0.59472000  16.000000   ; qtot 191.050383
 8069         ho    190    ccc    H37   8069 0.41908000   1.008000   ; qtot 191.469463
 8070         os    190    ccc    O13   8070 -0.44552000  16.000000   ; qtot 191.023943
 8071         ho    190    ccc    H38   8071 0.41908000   1.008000   ; qtot 191.443023
 8072         h1    190    ccc    H39   8072 0.08578000   1.008000   ; qtot 191.528803
 8073         oh    190    ccc     O5   8073 -0.58672000  16.000000   ; qtot 190.942083
 8074         ho    190    ccc    H40   8074 0.41908000   1.008000   ; qtot 191.361163
 8075         n3    190    ccc     N4   8075 -0.54282000  14.010000   ; qtot 190.818343
 8076         hn    190    ccc    H41   8076 0.17125500   1.008000   ; qtot 190.989598
; residue  191 ccc rtp ccc q 1.0
 8077          n    191    ccc     N1   8077 -0.33303000  14.010000   ; qtot 190.656568
 8078         hn    191    ccc     H4   8078 0.25916100   1.008000   ; qtot 190.915729
 8079         c3    191    ccc     C3   8079 -0.03328100  12.010000   ; qtot 190.882448
 8080         h1    191    ccc     H5   8080 0.10618100   1.008000   ; qtot 190.988629
 8081         c3    191    ccc     C4   8081 -0.02083000  12.010000   ; qtot 190.967799
 8082         h1    191    ccc     H6   8082 0.10618100   1.008000   ; qtot 191.073980
 8083         h1    191    ccc     H7   8083 0.07988000   1.008000   ; qtot 191.153860
 8084         h1    191    ccc     H8   8084 0.07988000   1.008000   ; qtot 191.233740
 8085         n4    191    ccc     N2   8085 -0.02747900  14.010000   ; qtot 191.206261
 8086         c3    191    ccc     C5   8086 -0.05097600  12.010000   ; qtot 191.155285
 8087         c3    191    ccc     C6   8087 -0.05097600  12.010000   ; qtot 191.104309
 8088         h1    191    ccc     H9   8088 0.11563300   1.008000   ; qtot 191.219942
 8089         c3    191    ccc     C7   8089 -0.18457900  12.010000   ; qtot 191.035363
 8090         h1    191    ccc    H10   8090 0.11563300   1.008000   ; qtot 191.150996
 8091         hc    191    ccc    H11   8091 0.08347900   1.008000   ; qtot 191.234475
 8092         hc    191    ccc    H12   8092 0.08347900   1.008000   ; qtot 191.317954
 8093          c    191    ccc     C8   8093 0.67254400  12.010000   ; qtot 191.990498
 8094          o    191    ccc     O2   8094 -0.52917200  16.000000   ; qtot 191.461326
 8095         h1    191    ccc    H13   8095 0.11563300   1.008000   ; qtot 191.576959
 8096         h1    191    ccc    H14   8096 0.11563300   1.008000   ; qtot 191.692592
 8097         c3    191    ccc     C9   8097 -0.18457900  12.010000   ; qtot 191.508013
 8098         hc    191    ccc    H15   8098 0.08347900   1.008000   ; qtot 191.591492
 8099         hc    191    ccc    H16   8099 0.08347900   1.008000   ; qtot 191.674971
 8100          c    191    ccc    C10   8100 0.67254400  12.010000   ; qtot 192.347515
 8101          o    191    ccc     O4   8101 -0.52917200  16.000000   ; qtot 191.818343
 8102         c3    191    ccc    C11   8102 0.08518000  12.010000   ; qtot 191.903523
 8103         c3    191    ccc    C12   8103 0.07918000  12.010000   ; qtot 191.982703
 8104         h1    191    ccc    H17   8104 0.06978000   1.008000   ; qtot 192.052483
 8105         c3    191    ccc    C13   8105 0.07918000  12.010000   ; qtot 192.131663
 8106         c3    191    ccc    C14   8106 0.03578000  12.010000   ; qtot 192.167443
 8107         c3    191    ccc    C15   8107 0.33498000  12.010000   ; qtot 192.502423
 8108         h1    191    ccc    H18   8108 0.06178000   1.008000   ; qtot 192.564203
 8109         h1    191    ccc    H19   8109 0.11278000   1.008000   ; qtot 192.676983
 8110         h2    191    ccc    H20   8110 0.12178000   1.008000   ; qtot 192.798763
 8111         oh    191    ccc     O1   8111 -0.56972000  16.000000   ; qtot 192.229043
 8112         oh    191    ccc     O6   8112 -0.57772000  16.000000   ; qtot 191.651323
 8113         c3    191    ccc    C16   8113 0.14548000  12.010000   ; qtot 191.796803
 8114         ho    191    ccc    H21   8114 0.40508000   1.008000   ; qtot 192.201883
 8115         hn    191    ccc    H22   8115 0.31758000   1.008000   ; qtot 192.519463
 8116         h1    191    ccc    H23   8116 0.06278000   1.008000   ; qtot 192.582243
 8117         h1    191    ccc    H24   8117 0.06278000   1.008000   ; qtot 192.645023
 8118         oh    191    ccc     O7   8118 -0.59472000  16.000000   ; qtot 192.050303
 8119         ho    191    ccc    H25   8119 0.41908000   1.008000   ; qtot 192.469383
 8120         os    191    ccc     O8   8120 -0.44552000  16.000000   ; qtot 192.023863
 8121         ho    191    ccc    H26   8121 0.41908000   1.008000   ; qtot 192.442943
 8122         h1    191    ccc    H27   8122 0.08578000   1.008000   ; qtot 192.528723
 8123         oh    191    ccc     O9   8123 -0.58672000  16.000000   ; qtot 191.942003
 8124         ho    191    ccc    H28   8124 0.41908000   1.008000   ; qtot 192.361083
 8125         n3    191    ccc     N3   8125 -0.54282000  14.010000   ; qtot 191.818263
 8126         c3    191    ccc    C17   8126 0.08518000  12.010000   ; qtot 191.903443
 8127         c3    191    ccc    C18   8127 0.07918000  12.010000   ; qtot 191.982623
 8128         h1    191    ccc    H29   8128 0.06978000   1.008000   ; qtot 192.052403
 8129         c3    191    ccc    C19   8129 0.07918000  12.010000   ; qtot 192.131583
 8130         c3    191    ccc    C20   8130 0.03578000  12.010000   ; qtot 192.167363
 8131         c3    191    ccc    C21   8131 0.33498000  12.010000   ; qtot 192.502343
 8132         h1    191    ccc    H30   8132 0.06178000   1.008000   ; qtot 192.564123
 8133         h1    191    ccc    H31   8133 0.11278000   1.008000   ; qtot 192.676903
 8134         h2    191    ccc    H32   8134 0.12178000   1.008000   ; qtot 192.798683
 8135         oh    191    ccc    O10   8135 -0.56972000  16.000000   ; qtot 192.228963
 8136         oh    191    ccc    O11   8136 -0.57772000  16.000000   ; qtot 191.651243
 8137         c3    191    ccc    C22   8137 0.14548000  12.010000   ; qtot 191.796723
 8138         ho    191    ccc    H33   8138 0.40508000   1.008000   ; qtot 192.201803
 8139         hn    191    ccc    H34   8139 0.31758000   1.008000   ; qtot 192.519383
 8140         h1    191    ccc    H35   8140 0.06278000   1.008000   ; qtot 192.582163
 8141         h1    191    ccc    H36   8141 0.06278000   1.008000   ; qtot 192.644943
 8142         oh    191    ccc    O12   8142 -0.59472000  16.000000   ; qtot 192.050223
 8143         ho    191    ccc    H37   8143 0.41908000   1.008000   ; qtot 192.469303
 8144         os    191    ccc    O13   8144 -0.44552000  16.000000   ; qtot 192.023783
 8145         ho    191    ccc    H38   8145 0.41908000   1.008000   ; qtot 192.442863
 8146         h1    191    ccc    H39   8146 0.08578000   1.008000   ; qtot 192.528643
 8147         oh    191    ccc     O5   8147 -0.58672000  16.000000   ; qtot 191.941923
 8148         ho    191    ccc    H40   8148 0.41908000   1.008000   ; qtot 192.361003
 8149         n3    191    ccc     N4   8149 -0.54282000  14.010000   ; qtot 191.818183
 8150         hn    191    ccc    H41   8150 0.17125500   1.008000   ; qtot 191.989438
; residue  192 ccc rtp ccc q 1.0
 8151          n    192    ccc     N1   8151 -0.33303000  14.010000   ; qtot 191.656408
 8152         hn    192    ccc     H4   8152 0.25916100   1.008000   ; qtot 191.915569
 8153         c3    192    ccc     C3   8153 -0.03328100  12.010000   ; qtot 191.882288
 8154         h1    192    ccc     H5   8154 0.10618100   1.008000   ; qtot 191.988469
 8155         c3    192    ccc     C4   8155 -0.02083000  12.010000   ; qtot 191.967639
 8156         h1    192    ccc     H6   8156 0.10618100   1.008000   ; qtot 192.073820
 8157         h1    192    ccc     H7   8157 0.07988000   1.008000   ; qtot 192.153700
 8158         h1    192    ccc     H8   8158 0.07988000   1.008000   ; qtot 192.233580
 8159         n4    192    ccc     N2   8159 -0.02747900  14.010000   ; qtot 192.206101
 8160         c3    192    ccc     C5   8160 -0.05097600  12.010000   ; qtot 192.155125
 8161         c3    192    ccc     C6   8161 -0.05097600  12.010000   ; qtot 192.104149
 8162         h1    192    ccc     H9   8162 0.11563300   1.008000   ; qtot 192.219782
 8163         c3    192    ccc     C7   8163 -0.18457900  12.010000   ; qtot 192.035203
 8164         h1    192    ccc    H10   8164 0.11563300   1.008000   ; qtot 192.150836
 8165         hc    192    ccc    H11   8165 0.08347900   1.008000   ; qtot 192.234315
 8166         hc    192    ccc    H12   8166 0.08347900   1.008000   ; qtot 192.317794
 8167          c    192    ccc     C8   8167 0.67254400  12.010000   ; qtot 192.990338
 8168          o    192    ccc     O2   8168 -0.52917200  16.000000   ; qtot 192.461166
 8169         h1    192    ccc    H13   8169 0.11563300   1.008000   ; qtot 192.576799
 8170         h1    192    ccc    H14   8170 0.11563300   1.008000   ; qtot 192.692432
 8171         c3    192    ccc     C9   8171 -0.18457900  12.010000   ; qtot 192.507853
 8172         hc    192    ccc    H15   8172 0.08347900   1.008000   ; qtot 192.591332
 8173         hc    192    ccc    H16   8173 0.08347900   1.008000   ; qtot 192.674811
 8174          c    192    ccc    C10   8174 0.67254400  12.010000   ; qtot 193.347355
 8175          o    192    ccc     O4   8175 -0.52917200  16.000000   ; qtot 192.818183
 8176         c3    192    ccc    C11   8176 0.08518000  12.010000   ; qtot 192.903363
 8177         c3    192    ccc    C12   8177 0.07918000  12.010000   ; qtot 192.982543
 8178         h1    192    ccc    H17   8178 0.06978000   1.008000   ; qtot 193.052323
 8179         c3    192    ccc    C13   8179 0.07918000  12.010000   ; qtot 193.131503
 8180         c3    192    ccc    C14   8180 0.03578000  12.010000   ; qtot 193.167283
 8181         c3    192    ccc    C15   8181 0.33498000  12.010000   ; qtot 193.502263
 8182         h1    192    ccc    H18   8182 0.06178000   1.008000   ; qtot 193.564043
 8183         h1    192    ccc    H19   8183 0.11278000   1.008000   ; qtot 193.676823
 8184         h2    192    ccc    H20   8184 0.12178000   1.008000   ; qtot 193.798603
 8185         oh    192    ccc     O1   8185 -0.56972000  16.000000   ; qtot 193.228883
 8186         oh    192    ccc     O6   8186 -0.57772000  16.000000   ; qtot 192.651163
 8187         c3    192    ccc    C16   8187 0.14548000  12.010000   ; qtot 192.796643
 8188         ho    192    ccc    H21   8188 0.40508000   1.008000   ; qtot 193.201723
 8189         hn    192    ccc    H22   8189 0.31758000   1.008000   ; qtot 193.519303
 8190         h1    192    ccc    H23   8190 0.06278000   1.008000   ; qtot 193.582083
 8191         h1    192    ccc    H24   8191 0.06278000   1.008000   ; qtot 193.644863
 8192         oh    192    ccc     O7   8192 -0.59472000  16.000000   ; qtot 193.050143
 8193         ho    192    ccc    H25   8193 0.41908000   1.008000   ; qtot 193.469223
 8194         os    192    ccc     O8   8194 -0.44552000  16.000000   ; qtot 193.023703
 8195         ho    192    ccc    H26   8195 0.41908000   1.008000   ; qtot 193.442783
 8196         h1    192    ccc    H27   8196 0.08578000   1.008000   ; qtot 193.528563
 8197         oh    192    ccc     O9   8197 -0.58672000  16.000000   ; qtot 192.941843
 8198         ho    192    ccc    H28   8198 0.41908000   1.008000   ; qtot 193.360923
 8199         n3    192    ccc     N3   8199 -0.54282000  14.010000   ; qtot 192.818103
 8200         c3    192    ccc    C17   8200 0.08518000  12.010000   ; qtot 192.903283
 8201         c3    192    ccc    C18   8201 0.07918000  12.010000   ; qtot 192.982463
 8202         h1    192    ccc    H29   8202 0.06978000   1.008000   ; qtot 193.052243
 8203         c3    192    ccc    C19   8203 0.07918000  12.010000   ; qtot 193.131423
 8204         c3    192    ccc    C20   8204 0.03578000  12.010000   ; qtot 193.167203
 8205         c3    192    ccc    C21   8205 0.33498000  12.010000   ; qtot 193.502183
 8206         h1    192    ccc    H30   8206 0.06178000   1.008000   ; qtot 193.563963
 8207         h1    192    ccc    H31   8207 0.11278000   1.008000   ; qtot 193.676743
 8208         h2    192    ccc    H32   8208 0.12178000   1.008000   ; qtot 193.798523
 8209         oh    192    ccc    O10   8209 -0.56972000  16.000000   ; qtot 193.228803
 8210         oh    192    ccc    O11   8210 -0.57772000  16.000000   ; qtot 192.651083
 8211         c3    192    ccc    C22   8211 0.14548000  12.010000   ; qtot 192.796563
 8212         ho    192    ccc    H33   8212 0.40508000   1.008000   ; qtot 193.201643
 8213         hn    192    ccc    H34   8213 0.31758000   1.008000   ; qtot 193.519223
 8214         h1    192    ccc    H35   8214 0.06278000   1.008000   ; qtot 193.582003
 8215         h1    192    ccc    H36   8215 0.06278000   1.008000   ; qtot 193.644783
 8216         oh    192    ccc    O12   8216 -0.59472000  16.000000   ; qtot 193.050063
 8217         ho    192    ccc    H37   8217 0.41908000   1.008000   ; qtot 193.469143
 8218         os    192    ccc    O13   8218 -0.44552000  16.000000   ; qtot 193.023623
 8219         ho    192    ccc    H38   8219 0.41908000   1.008000   ; qtot 193.442703
 8220         h1    192    ccc    H39   8220 0.08578000   1.008000   ; qtot 193.528483
 8221         oh    192    ccc     O5   8221 -0.58672000  16.000000   ; qtot 192.941763
 8222         ho    192    ccc    H40   8222 0.41908000   1.008000   ; qtot 193.360843
 8223         n3    192    ccc     N4   8223 -0.54282000  14.010000   ; qtot 192.818023
 8224         hn    192    ccc    H41   8224 0.17125500   1.008000   ; qtot 192.989278
; residue  193 ccc rtp ccc q 1.0
 8225          n    193    ccc     N1   8225 -0.33303000  14.010000   ; qtot 192.656248
 8226         hn    193    ccc     H4   8226 0.25916100   1.008000   ; qtot 192.915409
 8227         c3    193    ccc     C3   8227 -0.03328100  12.010000   ; qtot 192.882128
 8228         h1    193    ccc     H5   8228 0.10618100   1.008000   ; qtot 192.988309
 8229         c3    193    ccc     C4   8229 -0.02083000  12.010000   ; qtot 192.967479
 8230         h1    193    ccc     H6   8230 0.10618100   1.008000   ; qtot 193.073660
 8231         h1    193    ccc     H7   8231 0.07988000   1.008000   ; qtot 193.153540
 8232         h1    193    ccc     H8   8232 0.07988000   1.008000   ; qtot 193.233420
 8233         n4    193    ccc     N2   8233 -0.02747900  14.010000   ; qtot 193.205941
 8234         c3    193    ccc     C5   8234 -0.05097600  12.010000   ; qtot 193.154965
 8235         c3    193    ccc     C6   8235 -0.05097600  12.010000   ; qtot 193.103989
 8236         h1    193    ccc     H9   8236 0.11563300   1.008000   ; qtot 193.219622
 8237         c3    193    ccc     C7   8237 -0.18457900  12.010000   ; qtot 193.035043
 8238         h1    193    ccc    H10   8238 0.11563300   1.008000   ; qtot 193.150676
 8239         hc    193    ccc    H11   8239 0.08347900   1.008000   ; qtot 193.234155
 8240         hc    193    ccc    H12   8240 0.08347900   1.008000   ; qtot 193.317634
 8241          c    193    ccc     C8   8241 0.67254400  12.010000   ; qtot 193.990178
 8242          o    193    ccc     O2   8242 -0.52917200  16.000000   ; qtot 193.461006
 8243         h1    193    ccc    H13   8243 0.11563300   1.008000   ; qtot 193.576639
 8244         h1    193    ccc    H14   8244 0.11563300   1.008000   ; qtot 193.692272
 8245         c3    193    ccc     C9   8245 -0.18457900  12.010000   ; qtot 193.507693
 8246         hc    193    ccc    H15   8246 0.08347900   1.008000   ; qtot 193.591172
 8247         hc    193    ccc    H16   8247 0.08347900   1.008000   ; qtot 193.674651
 8248          c    193    ccc    C10   8248 0.67254400  12.010000   ; qtot 194.347195
 8249          o    193    ccc     O4   8249 -0.52917200  16.000000   ; qtot 193.818023
 8250         c3    193    ccc    C11   8250 0.08518000  12.010000   ; qtot 193.903203
 8251         c3    193    ccc    C12   8251 0.07918000  12.010000   ; qtot 193.982383
 8252         h1    193    ccc    H17   8252 0.06978000   1.008000   ; qtot 194.052163
 8253         c3    193    ccc    C13   8253 0.07918000  12.010000   ; qtot 194.131343
 8254         c3    193    ccc    C14   8254 0.03578000  12.010000   ; qtot 194.167123
 8255         c3    193    ccc    C15   8255 0.33498000  12.010000   ; qtot 194.502103
 8256         h1    193    ccc    H18   8256 0.06178000   1.008000   ; qtot 194.563883
 8257         h1    193    ccc    H19   8257 0.11278000   1.008000   ; qtot 194.676663
 8258         h2    193    ccc    H20   8258 0.12178000   1.008000   ; qtot 194.798443
 8259         oh    193    ccc     O1   8259 -0.56972000  16.000000   ; qtot 194.228723
 8260         oh    193    ccc     O6   8260 -0.57772000  16.000000   ; qtot 193.651003
 8261         c3    193    ccc    C16   8261 0.14548000  12.010000   ; qtot 193.796483
 8262         ho    193    ccc    H21   8262 0.40508000   1.008000   ; qtot 194.201563
 8263         hn    193    ccc    H22   8263 0.31758000   1.008000   ; qtot 194.519143
 8264         h1    193    ccc    H23   8264 0.06278000   1.008000   ; qtot 194.581923
 8265         h1    193    ccc    H24   8265 0.06278000   1.008000   ; qtot 194.644703
 8266         oh    193    ccc     O7   8266 -0.59472000  16.000000   ; qtot 194.049983
 8267         ho    193    ccc    H25   8267 0.41908000   1.008000   ; qtot 194.469063
 8268         os    193    ccc     O8   8268 -0.44552000  16.000000   ; qtot 194.023543
 8269         ho    193    ccc    H26   8269 0.41908000   1.008000   ; qtot 194.442623
 8270         h1    193    ccc    H27   8270 0.08578000   1.008000   ; qtot 194.528403
 8271         oh    193    ccc     O9   8271 -0.58672000  16.000000   ; qtot 193.941683
 8272         ho    193    ccc    H28   8272 0.41908000   1.008000   ; qtot 194.360763
 8273         n3    193    ccc     N3   8273 -0.54282000  14.010000   ; qtot 193.817943
 8274         c3    193    ccc    C17   8274 0.08518000  12.010000   ; qtot 193.903123
 8275         c3    193    ccc    C18   8275 0.07918000  12.010000   ; qtot 193.982303
 8276         h1    193    ccc    H29   8276 0.06978000   1.008000   ; qtot 194.052083
 8277         c3    193    ccc    C19   8277 0.07918000  12.010000   ; qtot 194.131263
 8278         c3    193    ccc    C20   8278 0.03578000  12.010000   ; qtot 194.167043
 8279         c3    193    ccc    C21   8279 0.33498000  12.010000   ; qtot 194.502023
 8280         h1    193    ccc    H30   8280 0.06178000   1.008000   ; qtot 194.563803
 8281         h1    193    ccc    H31   8281 0.11278000   1.008000   ; qtot 194.676583
 8282         h2    193    ccc    H32   8282 0.12178000   1.008000   ; qtot 194.798363
 8283         oh    193    ccc    O10   8283 -0.56972000  16.000000   ; qtot 194.228643
 8284         oh    193    ccc    O11   8284 -0.57772000  16.000000   ; qtot 193.650923
 8285         c3    193    ccc    C22   8285 0.14548000  12.010000   ; qtot 193.796403
 8286         ho    193    ccc    H33   8286 0.40508000   1.008000   ; qtot 194.201483
 8287         hn    193    ccc    H34   8287 0.31758000   1.008000   ; qtot 194.519063
 8288         h1    193    ccc    H35   8288 0.06278000   1.008000   ; qtot 194.581843
 8289         h1    193    ccc    H36   8289 0.06278000   1.008000   ; qtot 194.644623
 8290         oh    193    ccc    O12   8290 -0.59472000  16.000000   ; qtot 194.049903
 8291         ho    193    ccc    H37   8291 0.41908000   1.008000   ; qtot 194.468983
 8292         os    193    ccc    O13   8292 -0.44552000  16.000000   ; qtot 194.023463
 8293         ho    193    ccc    H38   8293 0.41908000   1.008000   ; qtot 194.442543
 8294         h1    193    ccc    H39   8294 0.08578000   1.008000   ; qtot 194.528323
 8295         oh    193    ccc     O5   8295 -0.58672000  16.000000   ; qtot 193.941603
 8296         ho    193    ccc    H40   8296 0.41908000   1.008000   ; qtot 194.360683
 8297         n3    193    ccc     N4   8297 -0.54282000  14.010000   ; qtot 193.817863
 8298         hn    193    ccc    H41   8298 0.17125500   1.008000   ; qtot 193.989118
; residue  194 ccc rtp ccc q 1.0
 8299          n    194    ccc     N1   8299 -0.33303000  14.010000   ; qtot 193.656088
 8300         hn    194    ccc     H4   8300 0.25916100   1.008000   ; qtot 193.915249
 8301         c3    194    ccc     C3   8301 -0.03328100  12.010000   ; qtot 193.881968
 8302         h1    194    ccc     H5   8302 0.10618100   1.008000   ; qtot 193.988149
 8303         c3    194    ccc     C4   8303 -0.02083000  12.010000   ; qtot 193.967319
 8304         h1    194    ccc     H6   8304 0.10618100   1.008000   ; qtot 194.073500
 8305         h1    194    ccc     H7   8305 0.07988000   1.008000   ; qtot 194.153380
 8306         h1    194    ccc     H8   8306 0.07988000   1.008000   ; qtot 194.233260
 8307         n4    194    ccc     N2   8307 -0.02747900  14.010000   ; qtot 194.205781
 8308         c3    194    ccc     C5   8308 -0.05097600  12.010000   ; qtot 194.154805
 8309         c3    194    ccc     C6   8309 -0.05097600  12.010000   ; qtot 194.103829
 8310         h1    194    ccc     H9   8310 0.11563300   1.008000   ; qtot 194.219462
 8311         c3    194    ccc     C7   8311 -0.18457900  12.010000   ; qtot 194.034883
 8312         h1    194    ccc    H10   8312 0.11563300   1.008000   ; qtot 194.150516
 8313         hc    194    ccc    H11   8313 0.08347900   1.008000   ; qtot 194.233995
 8314         hc    194    ccc    H12   8314 0.08347900   1.008000   ; qtot 194.317474
 8315          c    194    ccc     C8   8315 0.67254400  12.010000   ; qtot 194.990018
 8316          o    194    ccc     O2   8316 -0.52917200  16.000000   ; qtot 194.460846
 8317         h1    194    ccc    H13   8317 0.11563300   1.008000   ; qtot 194.576479
 8318         h1    194    ccc    H14   8318 0.11563300   1.008000   ; qtot 194.692112
 8319         c3    194    ccc     C9   8319 -0.18457900  12.010000   ; qtot 194.507533
 8320         hc    194    ccc    H15   8320 0.08347900   1.008000   ; qtot 194.591012
 8321         hc    194    ccc    H16   8321 0.08347900   1.008000   ; qtot 194.674491
 8322          c    194    ccc    C10   8322 0.67254400  12.010000   ; qtot 195.347035
 8323          o    194    ccc     O4   8323 -0.52917200  16.000000   ; qtot 194.817863
 8324         c3    194    ccc    C11   8324 0.08518000  12.010000   ; qtot 194.903043
 8325         c3    194    ccc    C12   8325 0.07918000  12.010000   ; qtot 194.982223
 8326         h1    194    ccc    H17   8326 0.06978000   1.008000   ; qtot 195.052003
 8327         c3    194    ccc    C13   8327 0.07918000  12.010000   ; qtot 195.131183
 8328         c3    194    ccc    C14   8328 0.03578000  12.010000   ; qtot 195.166963
 8329         c3    194    ccc    C15   8329 0.33498000  12.010000   ; qtot 195.501943
 8330         h1    194    ccc    H18   8330 0.06178000   1.008000   ; qtot 195.563723
 8331         h1    194    ccc    H19   8331 0.11278000   1.008000   ; qtot 195.676502
 8332         h2    194    ccc    H20   8332 0.12178000   1.008000   ; qtot 195.798282
 8333         oh    194    ccc     O1   8333 -0.56972000  16.000000   ; qtot 195.228562
 8334         oh    194    ccc     O6   8334 -0.57772000  16.000000   ; qtot 194.650842
 8335         c3    194    ccc    C16   8335 0.14548000  12.010000   ; qtot 194.796322
 8336         ho    194    ccc    H21   8336 0.40508000   1.008000   ; qtot 195.201402
 8337         hn    194    ccc    H22   8337 0.31758000   1.008000   ; qtot 195.518982
 8338         h1    194    ccc    H23   8338 0.06278000   1.008000   ; qtot 195.581762
 8339         h1    194    ccc    H24   8339 0.06278000   1.008000   ; qtot 195.644542
 8340         oh    194    ccc     O7   8340 -0.59472000  16.000000   ; qtot 195.049822
 8341         ho    194    ccc    H25   8341 0.41908000   1.008000   ; qtot 195.468902
 8342         os    194    ccc     O8   8342 -0.44552000  16.000000   ; qtot 195.023382
 8343         ho    194    ccc    H26   8343 0.41908000   1.008000   ; qtot 195.442462
 8344         h1    194    ccc    H27   8344 0.08578000   1.008000   ; qtot 195.528242
 8345         oh    194    ccc     O9   8345 -0.58672000  16.000000   ; qtot 194.941522
 8346         ho    194    ccc    H28   8346 0.41908000   1.008000   ; qtot 195.360602
 8347         n3    194    ccc     N3   8347 -0.54282000  14.010000   ; qtot 194.817782
 8348         c3    194    ccc    C17   8348 0.08518000  12.010000   ; qtot 194.902962
 8349         c3    194    ccc    C18   8349 0.07918000  12.010000   ; qtot 194.982142
 8350         h1    194    ccc    H29   8350 0.06978000   1.008000   ; qtot 195.051922
 8351         c3    194    ccc    C19   8351 0.07918000  12.010000   ; qtot 195.131102
 8352         c3    194    ccc    C20   8352 0.03578000  12.010000   ; qtot 195.166882
 8353         c3    194    ccc    C21   8353 0.33498000  12.010000   ; qtot 195.501862
 8354         h1    194    ccc    H30   8354 0.06178000   1.008000   ; qtot 195.563642
 8355         h1    194    ccc    H31   8355 0.11278000   1.008000   ; qtot 195.676422
 8356         h2    194    ccc    H32   8356 0.12178000   1.008000   ; qtot 195.798202
 8357         oh    194    ccc    O10   8357 -0.56972000  16.000000   ; qtot 195.228482
 8358         oh    194    ccc    O11   8358 -0.57772000  16.000000   ; qtot 194.650762
 8359         c3    194    ccc    C22   8359 0.14548000  12.010000   ; qtot 194.796242
 8360         ho    194    ccc    H33   8360 0.40508000   1.008000   ; qtot 195.201322
 8361         hn    194    ccc    H34   8361 0.31758000   1.008000   ; qtot 195.518902
 8362         h1    194    ccc    H35   8362 0.06278000   1.008000   ; qtot 195.581682
 8363         h1    194    ccc    H36   8363 0.06278000   1.008000   ; qtot 195.644462
 8364         oh    194    ccc    O12   8364 -0.59472000  16.000000   ; qtot 195.049742
 8365         ho    194    ccc    H37   8365 0.41908000   1.008000   ; qtot 195.468822
 8366         os    194    ccc    O13   8366 -0.44552000  16.000000   ; qtot 195.023302
 8367         ho    194    ccc    H38   8367 0.41908000   1.008000   ; qtot 195.442382
 8368         h1    194    ccc    H39   8368 0.08578000   1.008000   ; qtot 195.528162
 8369         oh    194    ccc     O5   8369 -0.58672000  16.000000   ; qtot 194.941442
 8370         ho    194    ccc    H40   8370 0.41908000   1.008000   ; qtot 195.360522
 8371         n3    194    ccc     N4   8371 -0.54282000  14.010000   ; qtot 194.817702
 8372         hn    194    ccc    H41   8372 0.17125500   1.008000   ; qtot 194.988957
; residue  195 ccc rtp ccc q 1.0
 8373          n    195    ccc     N1   8373 -0.33303000  14.010000   ; qtot 194.655927
 8374         hn    195    ccc     H4   8374 0.25916100   1.008000   ; qtot 194.915088
 8375         c3    195    ccc     C3   8375 -0.03328100  12.010000   ; qtot 194.881807
 8376         h1    195    ccc     H5   8376 0.10618100   1.008000   ; qtot 194.987988
 8377         c3    195    ccc     C4   8377 -0.02083000  12.010000   ; qtot 194.967158
 8378         h1    195    ccc     H6   8378 0.10618100   1.008000   ; qtot 195.073339
 8379         h1    195    ccc     H7   8379 0.07988000   1.008000   ; qtot 195.153219
 8380         h1    195    ccc     H8   8380 0.07988000   1.008000   ; qtot 195.233099
 8381         n4    195    ccc     N2   8381 -0.02747900  14.010000   ; qtot 195.205620
 8382         c3    195    ccc     C5   8382 -0.05097600  12.010000   ; qtot 195.154644
 8383         c3    195    ccc     C6   8383 -0.05097600  12.010000   ; qtot 195.103668
 8384         h1    195    ccc     H9   8384 0.11563300   1.008000   ; qtot 195.219301
 8385         c3    195    ccc     C7   8385 -0.18457900  12.010000   ; qtot 195.034722
 8386         h1    195    ccc    H10   8386 0.11563300   1.008000   ; qtot 195.150355
 8387         hc    195    ccc    H11   8387 0.08347900   1.008000   ; qtot 195.233834
 8388         hc    195    ccc    H12   8388 0.08347900   1.008000   ; qtot 195.317313
 8389          c    195    ccc     C8   8389 0.67254400  12.010000   ; qtot 195.989857
 8390          o    195    ccc     O2   8390 -0.52917200  16.000000   ; qtot 195.460685
 8391         h1    195    ccc    H13   8391 0.11563300   1.008000   ; qtot 195.576318
 8392         h1    195    ccc    H14   8392 0.11563300   1.008000   ; qtot 195.691951
 8393         c3    195    ccc     C9   8393 -0.18457900  12.010000   ; qtot 195.507372
 8394         hc    195    ccc    H15   8394 0.08347900   1.008000   ; qtot 195.590851
 8395         hc    195    ccc    H16   8395 0.08347900   1.008000   ; qtot 195.674330
 8396          c    195    ccc    C10   8396 0.67254400  12.010000   ; qtot 196.346874
 8397          o    195    ccc     O4   8397 -0.52917200  16.000000   ; qtot 195.817702
 8398         c3    195    ccc    C11   8398 0.08518000  12.010000   ; qtot 195.902882
 8399         c3    195    ccc    C12   8399 0.07918000  12.010000   ; qtot 195.982062
 8400         h1    195    ccc    H17   8400 0.06978000   1.008000   ; qtot 196.051842
 8401         c3    195    ccc    C13   8401 0.07918000  12.010000   ; qtot 196.131022
 8402         c3    195    ccc    C14   8402 0.03578000  12.010000   ; qtot 196.166802
 8403         c3    195    ccc    C15   8403 0.33498000  12.010000   ; qtot 196.501782
 8404         h1    195    ccc    H18   8404 0.06178000   1.008000   ; qtot 196.563562
 8405         h1    195    ccc    H19   8405 0.11278000   1.008000   ; qtot 196.676342
 8406         h2    195    ccc    H20   8406 0.12178000   1.008000   ; qtot 196.798122
 8407         oh    195    ccc     O1   8407 -0.56972000  16.000000   ; qtot 196.228402
 8408         oh    195    ccc     O6   8408 -0.57772000  16.000000   ; qtot 195.650682
 8409         c3    195    ccc    C16   8409 0.14548000  12.010000   ; qtot 195.796162
 8410         ho    195    ccc    H21   8410 0.40508000   1.008000   ; qtot 196.201242
 8411         hn    195    ccc    H22   8411 0.31758000   1.008000   ; qtot 196.518822
 8412         h1    195    ccc    H23   8412 0.06278000   1.008000   ; qtot 196.581602
 8413         h1    195    ccc    H24   8413 0.06278000   1.008000   ; qtot 196.644382
 8414         oh    195    ccc     O7   8414 -0.59472000  16.000000   ; qtot 196.049662
 8415         ho    195    ccc    H25   8415 0.41908000   1.008000   ; qtot 196.468742
 8416         os    195    ccc     O8   8416 -0.44552000  16.000000   ; qtot 196.023222
 8417         ho    195    ccc    H26   8417 0.41908000   1.008000   ; qtot 196.442302
 8418         h1    195    ccc    H27   8418 0.08578000   1.008000   ; qtot 196.528082
 8419         oh    195    ccc     O9   8419 -0.58672000  16.000000   ; qtot 195.941362
 8420         ho    195    ccc    H28   8420 0.41908000   1.008000   ; qtot 196.360442
 8421         n3    195    ccc     N3   8421 -0.54282000  14.010000   ; qtot 195.817622
 8422         c3    195    ccc    C17   8422 0.08518000  12.010000   ; qtot 195.902802
 8423         c3    195    ccc    C18   8423 0.07918000  12.010000   ; qtot 195.981982
 8424         h1    195    ccc    H29   8424 0.06978000   1.008000   ; qtot 196.051762
 8425         c3    195    ccc    C19   8425 0.07918000  12.010000   ; qtot 196.130942
 8426         c3    195    ccc    C20   8426 0.03578000  12.010000   ; qtot 196.166722
 8427         c3    195    ccc    C21   8427 0.33498000  12.010000   ; qtot 196.501702
 8428         h1    195    ccc    H30   8428 0.06178000   1.008000   ; qtot 196.563482
 8429         h1    195    ccc    H31   8429 0.11278000   1.008000   ; qtot 196.676262
 8430         h2    195    ccc    H32   8430 0.12178000   1.008000   ; qtot 196.798042
 8431         oh    195    ccc    O10   8431 -0.56972000  16.000000   ; qtot 196.228322
 8432         oh    195    ccc    O11   8432 -0.57772000  16.000000   ; qtot 195.650602
 8433         c3    195    ccc    C22   8433 0.14548000  12.010000   ; qtot 195.796082
 8434         ho    195    ccc    H33   8434 0.40508000   1.008000   ; qtot 196.201162
 8435         hn    195    ccc    H34   8435 0.31758000   1.008000   ; qtot 196.518742
 8436         h1    195    ccc    H35   8436 0.06278000   1.008000   ; qtot 196.581522
 8437         h1    195    ccc    H36   8437 0.06278000   1.008000   ; qtot 196.644302
 8438         oh    195    ccc    O12   8438 -0.59472000  16.000000   ; qtot 196.049582
 8439         ho    195    ccc    H37   8439 0.41908000   1.008000   ; qtot 196.468662
 8440         os    195    ccc    O13   8440 -0.44552000  16.000000   ; qtot 196.023142
 8441         ho    195    ccc    H38   8441 0.41908000   1.008000   ; qtot 196.442222
 8442         h1    195    ccc    H39   8442 0.08578000   1.008000   ; qtot 196.528002
 8443         oh    195    ccc     O5   8443 -0.58672000  16.000000   ; qtot 195.941282
 8444         ho    195    ccc    H40   8444 0.41908000   1.008000   ; qtot 196.360362
 8445         n3    195    ccc     N4   8445 -0.54282000  14.010000   ; qtot 195.817542
 8446         hn    195    ccc    H41   8446 0.17125500   1.008000   ; qtot 195.988797
; residue  196 ccc rtp ccc q 1.0
 8447          n    196    ccc     N1   8447 -0.33303000  14.010000   ; qtot 195.655767
 8448         hn    196    ccc     H4   8448 0.25916100   1.008000   ; qtot 195.914928
 8449         c3    196    ccc     C3   8449 -0.03328100  12.010000   ; qtot 195.881647
 8450         h1    196    ccc     H5   8450 0.10618100   1.008000   ; qtot 195.987828
 8451         c3    196    ccc     C4   8451 -0.02083000  12.010000   ; qtot 195.966998
 8452         h1    196    ccc     H6   8452 0.10618100   1.008000   ; qtot 196.073179
 8453         h1    196    ccc     H7   8453 0.07988000   1.008000   ; qtot 196.153059
 8454         h1    196    ccc     H8   8454 0.07988000   1.008000   ; qtot 196.232939
 8455         n4    196    ccc     N2   8455 -0.02747900  14.010000   ; qtot 196.205460
 8456         c3    196    ccc     C5   8456 -0.05097600  12.010000   ; qtot 196.154484
 8457         c3    196    ccc     C6   8457 -0.05097600  12.010000   ; qtot 196.103508
 8458         h1    196    ccc     H9   8458 0.11563300   1.008000   ; qtot 196.219141
 8459         c3    196    ccc     C7   8459 -0.18457900  12.010000   ; qtot 196.034562
 8460         h1    196    ccc    H10   8460 0.11563300   1.008000   ; qtot 196.150195
 8461         hc    196    ccc    H11   8461 0.08347900   1.008000   ; qtot 196.233674
 8462         hc    196    ccc    H12   8462 0.08347900   1.008000   ; qtot 196.317153
 8463          c    196    ccc     C8   8463 0.67254400  12.010000   ; qtot 196.989697
 8464          o    196    ccc     O2   8464 -0.52917200  16.000000   ; qtot 196.460525
 8465         h1    196    ccc    H13   8465 0.11563300   1.008000   ; qtot 196.576158
 8466         h1    196    ccc    H14   8466 0.11563300   1.008000   ; qtot 196.691791
 8467         c3    196    ccc     C9   8467 -0.18457900  12.010000   ; qtot 196.507212
 8468         hc    196    ccc    H15   8468 0.08347900   1.008000   ; qtot 196.590691
 8469         hc    196    ccc    H16   8469 0.08347900   1.008000   ; qtot 196.674170
 8470          c    196    ccc    C10   8470 0.67254400  12.010000   ; qtot 197.346714
 8471          o    196    ccc     O4   8471 -0.52917200  16.000000   ; qtot 196.817542
 8472         c3    196    ccc    C11   8472 0.08518000  12.010000   ; qtot 196.902722
 8473         c3    196    ccc    C12   8473 0.07918000  12.010000   ; qtot 196.981902
 8474         h1    196    ccc    H17   8474 0.06978000   1.008000   ; qtot 197.051682
 8475         c3    196    ccc    C13   8475 0.07918000  12.010000   ; qtot 197.130862
 8476         c3    196    ccc    C14   8476 0.03578000  12.010000   ; qtot 197.166642
 8477         c3    196    ccc    C15   8477 0.33498000  12.010000   ; qtot 197.501622
 8478         h1    196    ccc    H18   8478 0.06178000   1.008000   ; qtot 197.563402
 8479         h1    196    ccc    H19   8479 0.11278000   1.008000   ; qtot 197.676182
 8480         h2    196    ccc    H20   8480 0.12178000   1.008000   ; qtot 197.797962
 8481         oh    196    ccc     O1   8481 -0.56972000  16.000000   ; qtot 197.228242
 8482         oh    196    ccc     O6   8482 -0.57772000  16.000000   ; qtot 196.650522
 8483         c3    196    ccc    C16   8483 0.14548000  12.010000   ; qtot 196.796002
 8484         ho    196    ccc    H21   8484 0.40508000   1.008000   ; qtot 197.201082
 8485         hn    196    ccc    H22   8485 0.31758000   1.008000   ; qtot 197.518662
 8486         h1    196    ccc    H23   8486 0.06278000   1.008000   ; qtot 197.581442
 8487         h1    196    ccc    H24   8487 0.06278000   1.008000   ; qtot 197.644222
 8488         oh    196    ccc     O7   8488 -0.59472000  16.000000   ; qtot 197.049502
 8489         ho    196    ccc    H25   8489 0.41908000   1.008000   ; qtot 197.468582
 8490         os    196    ccc     O8   8490 -0.44552000  16.000000   ; qtot 197.023062
 8491         ho    196    ccc    H26   8491 0.41908000   1.008000   ; qtot 197.442142
 8492         h1    196    ccc    H27   8492 0.08578000   1.008000   ; qtot 197.527922
 8493         oh    196    ccc     O9   8493 -0.58672000  16.000000   ; qtot 196.941202
 8494         ho    196    ccc    H28   8494 0.41908000   1.008000   ; qtot 197.360282
 8495         n3    196    ccc     N3   8495 -0.54282000  14.010000   ; qtot 196.817462
 8496         c3    196    ccc    C17   8496 0.08518000  12.010000   ; qtot 196.902642
 8497         c3    196    ccc    C18   8497 0.07918000  12.010000   ; qtot 196.981822
 8498         h1    196    ccc    H29   8498 0.06978000   1.008000   ; qtot 197.051602
 8499         c3    196    ccc    C19   8499 0.07918000  12.010000   ; qtot 197.130782
 8500         c3    196    ccc    C20   8500 0.03578000  12.010000   ; qtot 197.166562
 8501         c3    196    ccc    C21   8501 0.33498000  12.010000   ; qtot 197.501542
 8502         h1    196    ccc    H30   8502 0.06178000   1.008000   ; qtot 197.563322
 8503         h1    196    ccc    H31   8503 0.11278000   1.008000   ; qtot 197.676102
 8504         h2    196    ccc    H32   8504 0.12178000   1.008000   ; qtot 197.797882
 8505         oh    196    ccc    O10   8505 -0.56972000  16.000000   ; qtot 197.228162
 8506         oh    196    ccc    O11   8506 -0.57772000  16.000000   ; qtot 196.650442
 8507         c3    196    ccc    C22   8507 0.14548000  12.010000   ; qtot 196.795922
 8508         ho    196    ccc    H33   8508 0.40508000   1.008000   ; qtot 197.201002
 8509         hn    196    ccc    H34   8509 0.31758000   1.008000   ; qtot 197.518582
 8510         h1    196    ccc    H35   8510 0.06278000   1.008000   ; qtot 197.581362
 8511         h1    196    ccc    H36   8511 0.06278000   1.008000   ; qtot 197.644142
 8512         oh    196    ccc    O12   8512 -0.59472000  16.000000   ; qtot 197.049422
 8513         ho    196    ccc    H37   8513 0.41908000   1.008000   ; qtot 197.468502
 8514         os    196    ccc    O13   8514 -0.44552000  16.000000   ; qtot 197.022982
 8515         ho    196    ccc    H38   8515 0.41908000   1.008000   ; qtot 197.442062
 8516         h1    196    ccc    H39   8516 0.08578000   1.008000   ; qtot 197.527842
 8517         oh    196    ccc     O5   8517 -0.58672000  16.000000   ; qtot 196.941122
 8518         ho    196    ccc    H40   8518 0.41908000   1.008000   ; qtot 197.360202
 8519         n3    196    ccc     N4   8519 -0.54282000  14.010000   ; qtot 196.817382
 8520         hn    196    ccc    H41   8520 0.17125500   1.008000   ; qtot 196.988637
; residue  197 ccc rtp ccc q 1.0
 8521          n    197    ccc     N1   8521 -0.33303000  14.010000   ; qtot 196.655607
 8522         hn    197    ccc     H4   8522 0.25916100   1.008000   ; qtot 196.914768
 8523         c3    197    ccc     C3   8523 -0.03328100  12.010000   ; qtot 196.881487
 8524         h1    197    ccc     H5   8524 0.10618100   1.008000   ; qtot 196.987668
 8525         c3    197    ccc     C4   8525 -0.02083000  12.010000   ; qtot 196.966838
 8526         h1    197    ccc     H6   8526 0.10618100   1.008000   ; qtot 197.073019
 8527         h1    197    ccc     H7   8527 0.07988000   1.008000   ; qtot 197.152899
 8528         h1    197    ccc     H8   8528 0.07988000   1.008000   ; qtot 197.232779
 8529         n4    197    ccc     N2   8529 -0.02747900  14.010000   ; qtot 197.205300
 8530         c3    197    ccc     C5   8530 -0.05097600  12.010000   ; qtot 197.154324
 8531         c3    197    ccc     C6   8531 -0.05097600  12.010000   ; qtot 197.103348
 8532         h1    197    ccc     H9   8532 0.11563300   1.008000   ; qtot 197.218981
 8533         c3    197    ccc     C7   8533 -0.18457900  12.010000   ; qtot 197.034402
 8534         h1    197    ccc    H10   8534 0.11563300   1.008000   ; qtot 197.150035
 8535         hc    197    ccc    H11   8535 0.08347900   1.008000   ; qtot 197.233514
 8536         hc    197    ccc    H12   8536 0.08347900   1.008000   ; qtot 197.316993
 8537          c    197    ccc     C8   8537 0.67254400  12.010000   ; qtot 197.989537
 8538          o    197    ccc     O2   8538 -0.52917200  16.000000   ; qtot 197.460365
 8539         h1    197    ccc    H13   8539 0.11563300   1.008000   ; qtot 197.575998
 8540         h1    197    ccc    H14   8540 0.11563300   1.008000   ; qtot 197.691631
 8541         c3    197    ccc     C9   8541 -0.18457900  12.010000   ; qtot 197.507052
 8542         hc    197    ccc    H15   8542 0.08347900   1.008000   ; qtot 197.590531
 8543         hc    197    ccc    H16   8543 0.08347900   1.008000   ; qtot 197.674010
 8544          c    197    ccc    C10   8544 0.67254400  12.010000   ; qtot 198.346554
 8545          o    197    ccc     O4   8545 -0.52917200  16.000000   ; qtot 197.817382
 8546         c3    197    ccc    C11   8546 0.08518000  12.010000   ; qtot 197.902562
 8547         c3    197    ccc    C12   8547 0.07918000  12.010000   ; qtot 197.981742
 8548         h1    197    ccc    H17   8548 0.06978000   1.008000   ; qtot 198.051522
 8549         c3    197    ccc    C13   8549 0.07918000  12.010000   ; qtot 198.130702
 8550         c3    197    ccc    C14   8550 0.03578000  12.010000   ; qtot 198.166482
 8551         c3    197    ccc    C15   8551 0.33498000  12.010000   ; qtot 198.501462
 8552         h1    197    ccc    H18   8552 0.06178000   1.008000   ; qtot 198.563242
 8553         h1    197    ccc    H19   8553 0.11278000   1.008000   ; qtot 198.676022
 8554         h2    197    ccc    H20   8554 0.12178000   1.008000   ; qtot 198.797802
 8555         oh    197    ccc     O1   8555 -0.56972000  16.000000   ; qtot 198.228082
 8556         oh    197    ccc     O6   8556 -0.57772000  16.000000   ; qtot 197.650362
 8557         c3    197    ccc    C16   8557 0.14548000  12.010000   ; qtot 197.795842
 8558         ho    197    ccc    H21   8558 0.40508000   1.008000   ; qtot 198.200922
 8559         hn    197    ccc    H22   8559 0.31758000   1.008000   ; qtot 198.518502
 8560         h1    197    ccc    H23   8560 0.06278000   1.008000   ; qtot 198.581282
 8561         h1    197    ccc    H24   8561 0.06278000   1.008000   ; qtot 198.644062
 8562         oh    197    ccc     O7   8562 -0.59472000  16.000000   ; qtot 198.049342
 8563         ho    197    ccc    H25   8563 0.41908000   1.008000   ; qtot 198.468422
 8564         os    197    ccc     O8   8564 -0.44552000  16.000000   ; qtot 198.022902
 8565         ho    197    ccc    H26   8565 0.41908000   1.008000   ; qtot 198.441982
 8566         h1    197    ccc    H27   8566 0.08578000   1.008000   ; qtot 198.527762
 8567         oh    197    ccc     O9   8567 -0.58672000  16.000000   ; qtot 197.941042
 8568         ho    197    ccc    H28   8568 0.41908000   1.008000   ; qtot 198.360122
 8569         n3    197    ccc     N3   8569 -0.54282000  14.010000   ; qtot 197.817302
 8570         c3    197    ccc    C17   8570 0.08518000  12.010000   ; qtot 197.902482
 8571         c3    197    ccc    C18   8571 0.07918000  12.010000   ; qtot 197.981662
 8572         h1    197    ccc    H29   8572 0.06978000   1.008000   ; qtot 198.051442
 8573         c3    197    ccc    C19   8573 0.07918000  12.010000   ; qtot 198.130622
 8574         c3    197    ccc    C20   8574 0.03578000  12.010000   ; qtot 198.166402
 8575         c3    197    ccc    C21   8575 0.33498000  12.010000   ; qtot 198.501382
 8576         h1    197    ccc    H30   8576 0.06178000   1.008000   ; qtot 198.563162
 8577         h1    197    ccc    H31   8577 0.11278000   1.008000   ; qtot 198.675942
 8578         h2    197    ccc    H32   8578 0.12178000   1.008000   ; qtot 198.797722
 8579         oh    197    ccc    O10   8579 -0.56972000  16.000000   ; qtot 198.228002
 8580         oh    197    ccc    O11   8580 -0.57772000  16.000000   ; qtot 197.650282
 8581         c3    197    ccc    C22   8581 0.14548000  12.010000   ; qtot 197.795762
 8582         ho    197    ccc    H33   8582 0.40508000   1.008000   ; qtot 198.200842
 8583         hn    197    ccc    H34   8583 0.31758000   1.008000   ; qtot 198.518422
 8584         h1    197    ccc    H35   8584 0.06278000   1.008000   ; qtot 198.581202
 8585         h1    197    ccc    H36   8585 0.06278000   1.008000   ; qtot 198.643982
 8586         oh    197    ccc    O12   8586 -0.59472000  16.000000   ; qtot 198.049262
 8587         ho    197    ccc    H37   8587 0.41908000   1.008000   ; qtot 198.468342
 8588         os    197    ccc    O13   8588 -0.44552000  16.000000   ; qtot 198.022822
 8589         ho    197    ccc    H38   8589 0.41908000   1.008000   ; qtot 198.441902
 8590         h1    197    ccc    H39   8590 0.08578000   1.008000   ; qtot 198.527682
 8591         oh    197    ccc     O5   8591 -0.58672000  16.000000   ; qtot 197.940962
 8592         ho    197    ccc    H40   8592 0.41908000   1.008000   ; qtot 198.360042
 8593         n3    197    ccc     N4   8593 -0.54282000  14.010000   ; qtot 197.817222
 8594         hn    197    ccc    H41   8594 0.17125500   1.008000   ; qtot 197.988477
; residue  198 ccc rtp ccc q 1.0
 8595          n    198    ccc     N1   8595 -0.33303000  14.010000   ; qtot 197.655447
 8596         hn    198    ccc     H4   8596 0.25916100   1.008000   ; qtot 197.914608
 8597         c3    198    ccc     C3   8597 -0.03328100  12.010000   ; qtot 197.881327
 8598         h1    198    ccc     H5   8598 0.10618100   1.008000   ; qtot 197.987508
 8599         c3    198    ccc     C4   8599 -0.02083000  12.010000   ; qtot 197.966678
 8600         h1    198    ccc     H6   8600 0.10618100   1.008000   ; qtot 198.072859
 8601         h1    198    ccc     H7   8601 0.07988000   1.008000   ; qtot 198.152739
 8602         h1    198    ccc     H8   8602 0.07988000   1.008000   ; qtot 198.232619
 8603         n4    198    ccc     N2   8603 -0.02747900  14.010000   ; qtot 198.205140
 8604         c3    198    ccc     C5   8604 -0.05097600  12.010000   ; qtot 198.154164
 8605         c3    198    ccc     C6   8605 -0.05097600  12.010000   ; qtot 198.103188
 8606         h1    198    ccc     H9   8606 0.11563300   1.008000   ; qtot 198.218821
 8607         c3    198    ccc     C7   8607 -0.18457900  12.010000   ; qtot 198.034242
 8608         h1    198    ccc    H10   8608 0.11563300   1.008000   ; qtot 198.149875
 8609         hc    198    ccc    H11   8609 0.08347900   1.008000   ; qtot 198.233354
 8610         hc    198    ccc    H12   8610 0.08347900   1.008000   ; qtot 198.316833
 8611          c    198    ccc     C8   8611 0.67254400  12.010000   ; qtot 198.989377
 8612          o    198    ccc     O2   8612 -0.52917200  16.000000   ; qtot 198.460205
 8613         h1    198    ccc    H13   8613 0.11563300   1.008000   ; qtot 198.575838
 8614         h1    198    ccc    H14   8614 0.11563300   1.008000   ; qtot 198.691471
 8615         c3    198    ccc     C9   8615 -0.18457900  12.010000   ; qtot 198.506892
 8616         hc    198    ccc    H15   8616 0.08347900   1.008000   ; qtot 198.590371
 8617         hc    198    ccc    H16   8617 0.08347900   1.008000   ; qtot 198.673850
 8618          c    198    ccc    C10   8618 0.67254400  12.010000   ; qtot 199.346394
 8619          o    198    ccc     O4   8619 -0.52917200  16.000000   ; qtot 198.817222
 8620         c3    198    ccc    C11   8620 0.08518000  12.010000   ; qtot 198.902402
 8621         c3    198    ccc    C12   8621 0.07918000  12.010000   ; qtot 198.981582
 8622         h1    198    ccc    H17   8622 0.06978000   1.008000   ; qtot 199.051362
 8623         c3    198    ccc    C13   8623 0.07918000  12.010000   ; qtot 199.130542
 8624         c3    198    ccc    C14   8624 0.03578000  12.010000   ; qtot 199.166322
 8625         c3    198    ccc    C15   8625 0.33498000  12.010000   ; qtot 199.501302
 8626         h1    198    ccc    H18   8626 0.06178000   1.008000   ; qtot 199.563082
 8627         h1    198    ccc    H19   8627 0.11278000   1.008000   ; qtot 199.675862
 8628         h2    198    ccc    H20   8628 0.12178000   1.008000   ; qtot 199.797642
 8629         oh    198    ccc     O1   8629 -0.56972000  16.000000   ; qtot 199.227922
 8630         oh    198    ccc     O6   8630 -0.57772000  16.000000   ; qtot 198.650202
 8631         c3    198    ccc    C16   8631 0.14548000  12.010000   ; qtot 198.795682
 8632         ho    198    ccc    H21   8632 0.40508000   1.008000   ; qtot 199.200762
 8633         hn    198    ccc    H22   8633 0.31758000   1.008000   ; qtot 199.518342
 8634         h1    198    ccc    H23   8634 0.06278000   1.008000   ; qtot 199.581122
 8635         h1    198    ccc    H24   8635 0.06278000   1.008000   ; qtot 199.643902
 8636         oh    198    ccc     O7   8636 -0.59472000  16.000000   ; qtot 199.049182
 8637         ho    198    ccc    H25   8637 0.41908000   1.008000   ; qtot 199.468262
 8638         os    198    ccc     O8   8638 -0.44552000  16.000000   ; qtot 199.022742
 8639         ho    198    ccc    H26   8639 0.41908000   1.008000   ; qtot 199.441822
 8640         h1    198    ccc    H27   8640 0.08578000   1.008000   ; qtot 199.527602
 8641         oh    198    ccc     O9   8641 -0.58672000  16.000000   ; qtot 198.940882
 8642         ho    198    ccc    H28   8642 0.41908000   1.008000   ; qtot 199.359962
 8643         n3    198    ccc     N3   8643 -0.54282000  14.010000   ; qtot 198.817142
 8644         c3    198    ccc    C17   8644 0.08518000  12.010000   ; qtot 198.902322
 8645         c3    198    ccc    C18   8645 0.07918000  12.010000   ; qtot 198.981502
 8646         h1    198    ccc    H29   8646 0.06978000   1.008000   ; qtot 199.051282
 8647         c3    198    ccc    C19   8647 0.07918000  12.010000   ; qtot 199.130462
 8648         c3    198    ccc    C20   8648 0.03578000  12.010000   ; qtot 199.166242
 8649         c3    198    ccc    C21   8649 0.33498000  12.010000   ; qtot 199.501222
 8650         h1    198    ccc    H30   8650 0.06178000   1.008000   ; qtot 199.563002
 8651         h1    198    ccc    H31   8651 0.11278000   1.008000   ; qtot 199.675782
 8652         h2    198    ccc    H32   8652 0.12178000   1.008000   ; qtot 199.797562
 8653         oh    198    ccc    O10   8653 -0.56972000  16.000000   ; qtot 199.227842
 8654         oh    198    ccc    O11   8654 -0.57772000  16.000000   ; qtot 198.650122
 8655         c3    198    ccc    C22   8655 0.14548000  12.010000   ; qtot 198.795602
 8656         ho    198    ccc    H33   8656 0.40508000   1.008000   ; qtot 199.200682
 8657         hn    198    ccc    H34   8657 0.31758000   1.008000   ; qtot 199.518262
 8658         h1    198    ccc    H35   8658 0.06278000   1.008000   ; qtot 199.581042
 8659         h1    198    ccc    H36   8659 0.06278000   1.008000   ; qtot 199.643822
 8660         oh    198    ccc    O12   8660 -0.59472000  16.000000   ; qtot 199.049102
 8661         ho    198    ccc    H37   8661 0.41908000   1.008000   ; qtot 199.468182
 8662         os    198    ccc    O13   8662 -0.44552000  16.000000   ; qtot 199.022662
 8663         ho    198    ccc    H38   8663 0.41908000   1.008000   ; qtot 199.441742
 8664         h1    198    ccc    H39   8664 0.08578000   1.008000   ; qtot 199.527522
 8665         oh    198    ccc     O5   8665 -0.58672000  16.000000   ; qtot 198.940802
 8666         ho    198    ccc    H40   8666 0.41908000   1.008000   ; qtot 199.359882
 8667         n3    198    ccc     N4   8667 -0.54282000  14.010000   ; qtot 198.817062
 8668         hn    198    ccc    H41   8668 0.17125500   1.008000   ; qtot 198.988317
; residue  199 ccc rtp ccc q 1.0
 8669          n    199    ccc     N1   8669 -0.33303000  14.010000   ; qtot 198.655287
 8670         hn    199    ccc     H4   8670 0.25916100   1.008000   ; qtot 198.914448
 8671         c3    199    ccc     C3   8671 -0.03328100  12.010000   ; qtot 198.881167
 8672         h1    199    ccc     H5   8672 0.10618100   1.008000   ; qtot 198.987348
 8673         c3    199    ccc     C4   8673 -0.02083000  12.010000   ; qtot 198.966518
 8674         h1    199    ccc     H6   8674 0.10618100   1.008000   ; qtot 199.072699
 8675         h1    199    ccc     H7   8675 0.07988000   1.008000   ; qtot 199.152579
 8676         h1    199    ccc     H8   8676 0.07988000   1.008000   ; qtot 199.232459
 8677         n4    199    ccc     N2   8677 -0.02747900  14.010000   ; qtot 199.204980
 8678         c3    199    ccc     C5   8678 -0.05097600  12.010000   ; qtot 199.154004
 8679         c3    199    ccc     C6   8679 -0.05097600  12.010000   ; qtot 199.103028
 8680         h1    199    ccc     H9   8680 0.11563300   1.008000   ; qtot 199.218661
 8681         c3    199    ccc     C7   8681 -0.18457900  12.010000   ; qtot 199.034082
 8682         h1    199    ccc    H10   8682 0.11563300   1.008000   ; qtot 199.149715
 8683         hc    199    ccc    H11   8683 0.08347900   1.008000   ; qtot 199.233194
 8684         hc    199    ccc    H12   8684 0.08347900   1.008000   ; qtot 199.316673
 8685          c    199    ccc     C8   8685 0.67254400  12.010000   ; qtot 199.989217
 8686          o    199    ccc     O2   8686 -0.52917200  16.000000   ; qtot 199.460045
 8687         h1    199    ccc    H13   8687 0.11563300   1.008000   ; qtot 199.575678
 8688         h1    199    ccc    H14   8688 0.11563300   1.008000   ; qtot 199.691311
 8689         c3    199    ccc     C9   8689 -0.18457900  12.010000   ; qtot 199.506732
 8690         hc    199    ccc    H15   8690 0.08347900   1.008000   ; qtot 199.590211
 8691         hc    199    ccc    H16   8691 0.08347900   1.008000   ; qtot 199.673690
 8692          c    199    ccc    C10   8692 0.67254400  12.010000   ; qtot 200.346234
 8693          o    199    ccc     O4   8693 -0.52917200  16.000000   ; qtot 199.817062
 8694         c3    199    ccc    C11   8694 0.08518000  12.010000   ; qtot 199.902242
 8695         c3    199    ccc    C12   8695 0.07918000  12.010000   ; qtot 199.981422
 8696         h1    199    ccc    H17   8696 0.06978000   1.008000   ; qtot 200.051202
 8697         c3    199    ccc    C13   8697 0.07918000  12.010000   ; qtot 200.130382
 8698         c3    199    ccc    C14   8698 0.03578000  12.010000   ; qtot 200.166162
 8699         c3    199    ccc    C15   8699 0.33498000  12.010000   ; qtot 200.501142
 8700         h1    199    ccc    H18   8700 0.06178000   1.008000   ; qtot 200.562922
 8701         h1    199    ccc    H19   8701 0.11278000   1.008000   ; qtot 200.675702
 8702         h2    199    ccc    H20   8702 0.12178000   1.008000   ; qtot 200.797482
 8703         oh    199    ccc     O1   8703 -0.56972000  16.000000   ; qtot 200.227762
 8704         oh    199    ccc     O6   8704 -0.57772000  16.000000   ; qtot 199.650042
 8705         c3    199    ccc    C16   8705 0.14548000  12.010000   ; qtot 199.795522
 8706         ho    199    ccc    H21   8706 0.40508000   1.008000   ; qtot 200.200602
 8707         hn    199    ccc    H22   8707 0.31758000   1.008000   ; qtot 200.518182
 8708         h1    199    ccc    H23   8708 0.06278000   1.008000   ; qtot 200.580962
 8709         h1    199    ccc    H24   8709 0.06278000   1.008000   ; qtot 200.643742
 8710         oh    199    ccc     O7   8710 -0.59472000  16.000000   ; qtot 200.049022
 8711         ho    199    ccc    H25   8711 0.41908000   1.008000   ; qtot 200.468102
 8712         os    199    ccc     O8   8712 -0.44552000  16.000000   ; qtot 200.022582
 8713         ho    199    ccc    H26   8713 0.41908000   1.008000   ; qtot 200.441662
 8714         h1    199    ccc    H27   8714 0.08578000   1.008000   ; qtot 200.527442
 8715         oh    199    ccc     O9   8715 -0.58672000  16.000000   ; qtot 199.940722
 8716         ho    199    ccc    H28   8716 0.41908000   1.008000   ; qtot 200.359802
 8717         n3    199    ccc     N3   8717 -0.54282000  14.010000   ; qtot 199.816982
 8718         c3    199    ccc    C17   8718 0.08518000  12.010000   ; qtot 199.902162
 8719         c3    199    ccc    C18   8719 0.07918000  12.010000   ; qtot 199.981342
 8720         h1    199    ccc    H29   8720 0.06978000   1.008000   ; qtot 200.051122
 8721         c3    199    ccc    C19   8721 0.07918000  12.010000   ; qtot 200.130302
 8722         c3    199    ccc    C20   8722 0.03578000  12.010000   ; qtot 200.166082
 8723         c3    199    ccc    C21   8723 0.33498000  12.010000   ; qtot 200.501062
 8724         h1    199    ccc    H30   8724 0.06178000   1.008000   ; qtot 200.562842
 8725         h1    199    ccc    H31   8725 0.11278000   1.008000   ; qtot 200.675622
 8726         h2    199    ccc    H32   8726 0.12178000   1.008000   ; qtot 200.797402
 8727         oh    199    ccc    O10   8727 -0.56972000  16.000000   ; qtot 200.227682
 8728         oh    199    ccc    O11   8728 -0.57772000  16.000000   ; qtot 199.649962
 8729         c3    199    ccc    C22   8729 0.14548000  12.010000   ; qtot 199.795442
 8730         ho    199    ccc    H33   8730 0.40508000   1.008000   ; qtot 200.200522
 8731         hn    199    ccc    H34   8731 0.31758000   1.008000   ; qtot 200.518102
 8732         h1    199    ccc    H35   8732 0.06278000   1.008000   ; qtot 200.580882
 8733         h1    199    ccc    H36   8733 0.06278000   1.008000   ; qtot 200.643662
 8734         oh    199    ccc    O12   8734 -0.59472000  16.000000   ; qtot 200.048942
 8735         ho    199    ccc    H37   8735 0.41908000   1.008000   ; qtot 200.468022
 8736         os    199    ccc    O13   8736 -0.44552000  16.000000   ; qtot 200.022502
 8737         ho    199    ccc    H38   8737 0.41908000   1.008000   ; qtot 200.441582
 8738         h1    199    ccc    H39   8738 0.08578000   1.008000   ; qtot 200.527362
 8739         oh    199    ccc     O5   8739 -0.58672000  16.000000   ; qtot 199.940642
 8740         ho    199    ccc    H40   8740 0.41908000   1.008000   ; qtot 200.359722
 8741         n3    199    ccc     N4   8741 -0.54282000  14.010000   ; qtot 199.816902
 8742         hn    199    ccc    H41   8742 0.17125500   1.008000   ; qtot 199.988157
; residue  200 ccc rtp ccc q 1.0
 8743          n    200    ccc     N1   8743 -0.33303000  14.010000   ; qtot 199.655127
 8744         hn    200    ccc     H4   8744 0.25916100   1.008000   ; qtot 199.914288
 8745         c3    200    ccc     C3   8745 -0.03328100  12.010000   ; qtot 199.881007
 8746         h1    200    ccc     H5   8746 0.10618100   1.008000   ; qtot 199.987188
 8747         c3    200    ccc     C4   8747 -0.02083000  12.010000   ; qtot 199.966358
 8748         h1    200    ccc     H6   8748 0.10618100   1.008000   ; qtot 200.072539
 8749         h1    200    ccc     H7   8749 0.07988000   1.008000   ; qtot 200.152419
 8750         h1    200    ccc     H8   8750 0.07988000   1.008000   ; qtot 200.232299
 8751         n4    200    ccc     N2   8751 -0.02747900  14.010000   ; qtot 200.204820
 8752         c3    200    ccc     C5   8752 -0.05097600  12.010000   ; qtot 200.153844
 8753         c3    200    ccc     C6   8753 -0.05097600  12.010000   ; qtot 200.102868
 8754         h1    200    ccc     H9   8754 0.11563300   1.008000   ; qtot 200.218501
 8755         c3    200    ccc     C7   8755 -0.18457900  12.010000   ; qtot 200.033922
 8756         h1    200    ccc    H10   8756 0.11563300   1.008000   ; qtot 200.149555
 8757         hc    200    ccc    H11   8757 0.08347900   1.008000   ; qtot 200.233034
 8758         hc    200    ccc    H12   8758 0.08347900   1.008000   ; qtot 200.316513
 8759          c    200    ccc     C8   8759 0.67254400  12.010000   ; qtot 200.989057
 8760          o    200    ccc     O2   8760 -0.52917200  16.000000   ; qtot 200.459885
 8761         h1    200    ccc    H13   8761 0.11563300   1.008000   ; qtot 200.575518
 8762         h1    200    ccc    H14   8762 0.11563300   1.008000   ; qtot 200.691151
 8763         c3    200    ccc     C9   8763 -0.18457900  12.010000   ; qtot 200.506572
 8764         hc    200    ccc    H15   8764 0.08347900   1.008000   ; qtot 200.590051
 8765         hc    200    ccc    H16   8765 0.08347900   1.008000   ; qtot 200.673530
 8766          c    200    ccc    C10   8766 0.67254400  12.010000   ; qtot 201.346074
 8767          o    200    ccc     O4   8767 -0.52917200  16.000000   ; qtot 200.816902
 8768         c3    200    ccc    C11   8768 0.08518000  12.010000   ; qtot 200.902082
 8769         c3    200    ccc    C12   8769 0.07918000  12.010000   ; qtot 200.981262
 8770         h1    200    ccc    H17   8770 0.06978000   1.008000   ; qtot 201.051042
 8771         c3    200    ccc    C13   8771 0.07918000  12.010000   ; qtot 201.130222
 8772         c3    200    ccc    C14   8772 0.03578000  12.010000   ; qtot 201.166002
 8773         c3    200    ccc    C15   8773 0.33498000  12.010000   ; qtot 201.500982
 8774         h1    200    ccc    H18   8774 0.06178000   1.008000   ; qtot 201.562762
 8775         h1    200    ccc    H19   8775 0.11278000   1.008000   ; qtot 201.675542
 8776         h2    200    ccc    H20   8776 0.12178000   1.008000   ; qtot 201.797322
 8777         oh    200    ccc     O1   8777 -0.56972000  16.000000   ; qtot 201.227602
 8778         oh    200    ccc     O6   8778 -0.57772000  16.000000   ; qtot 200.649882
 8779         c3    200    ccc    C16   8779 0.14548000  12.010000   ; qtot 200.795362
 8780         ho    200    ccc    H21   8780 0.40508000   1.008000   ; qtot 201.200442
 8781         hn    200    ccc    H22   8781 0.31758000   1.008000   ; qtot 201.518022
 8782         h1    200    ccc    H23   8782 0.06278000   1.008000   ; qtot 201.580802
 8783         h1    200    ccc    H24   8783 0.06278000   1.008000   ; qtot 201.643582
 8784         oh    200    ccc     O7   8784 -0.59472000  16.000000   ; qtot 201.048862
 8785         ho    200    ccc    H25   8785 0.41908000   1.008000   ; qtot 201.467942
 8786         os    200    ccc     O8   8786 -0.44552000  16.000000   ; qtot 201.022422
 8787         ho    200    ccc    H26   8787 0.41908000   1.008000   ; qtot 201.441502
 8788         h1    200    ccc    H27   8788 0.08578000   1.008000   ; qtot 201.527282
 8789         oh    200    ccc     O9   8789 -0.58672000  16.000000   ; qtot 200.940562
 8790         ho    200    ccc    H28   8790 0.41908000   1.008000   ; qtot 201.359642
 8791         n3    200    ccc     N3   8791 -0.54282000  14.010000   ; qtot 200.816822
 8792         c3    200    ccc    C17   8792 0.08518000  12.010000   ; qtot 200.902002
 8793         c3    200    ccc    C18   8793 0.07918000  12.010000   ; qtot 200.981182
 8794         h1    200    ccc    H29   8794 0.06978000   1.008000   ; qtot 201.050962
 8795         c3    200    ccc    C19   8795 0.07918000  12.010000   ; qtot 201.130142
 8796         c3    200    ccc    C20   8796 0.03578000  12.010000   ; qtot 201.165922
 8797         c3    200    ccc    C21   8797 0.33498000  12.010000   ; qtot 201.500902
 8798         h1    200    ccc    H30   8798 0.06178000   1.008000   ; qtot 201.562682
 8799         h1    200    ccc    H31   8799 0.11278000   1.008000   ; qtot 201.675462
 8800         h2    200    ccc    H32   8800 0.12178000   1.008000   ; qtot 201.797242
 8801         oh    200    ccc    O10   8801 -0.56972000  16.000000   ; qtot 201.227522
 8802         oh    200    ccc    O11   8802 -0.57772000  16.000000   ; qtot 200.649802
 8803         c3    200    ccc    C22   8803 0.14548000  12.010000   ; qtot 200.795282
 8804         ho    200    ccc    H33   8804 0.40508000   1.008000   ; qtot 201.200362
 8805         hn    200    ccc    H34   8805 0.31758000   1.008000   ; qtot 201.517942
 8806         h1    200    ccc    H35   8806 0.06278000   1.008000   ; qtot 201.580722
 8807         h1    200    ccc    H36   8807 0.06278000   1.008000   ; qtot 201.643502
 8808         oh    200    ccc    O12   8808 -0.59472000  16.000000   ; qtot 201.048782
 8809         ho    200    ccc    H37   8809 0.41908000   1.008000   ; qtot 201.467862
 8810         os    200    ccc    O13   8810 -0.44552000  16.000000   ; qtot 201.022342
 8811         ho    200    ccc    H38   8811 0.41908000   1.008000   ; qtot 201.441422
 8812         h1    200    ccc    H39   8812 0.08578000   1.008000   ; qtot 201.527202
 8813         oh    200    ccc     O5   8813 -0.58672000  16.000000   ; qtot 200.940482
 8814         ho    200    ccc    H40   8814 0.41908000   1.008000   ; qtot 201.359562
 8815         n3    200    ccc     N4   8815 -0.54282000  14.010000   ; qtot 200.816742
 8816         hn    200    ccc    H41   8816 0.17125500   1.008000   ; qtot 200.987997
; residue  201 ccc rtp ccc q 1.0
 8817          n    201    ccc     N1   8817 -0.33303000  14.010000   ; qtot 200.654967
 8818         hn    201    ccc     H4   8818 0.25916100   1.008000   ; qtot 200.914128
 8819         c3    201    ccc     C3   8819 -0.03328100  12.010000   ; qtot 200.880847
 8820         h1    201    ccc     H5   8820 0.10618100   1.008000   ; qtot 200.987028
 8821         c3    201    ccc     C4   8821 -0.02083000  12.010000   ; qtot 200.966198
 8822         h1    201    ccc     H6   8822 0.10618100   1.008000   ; qtot 201.072379
 8823         h1    201    ccc     H7   8823 0.07988000   1.008000   ; qtot 201.152259
 8824         h1    201    ccc     H8   8824 0.07988000   1.008000   ; qtot 201.232139
 8825         n4    201    ccc     N2   8825 -0.02747900  14.010000   ; qtot 201.204660
 8826         c3    201    ccc     C5   8826 -0.05097600  12.010000   ; qtot 201.153684
 8827         c3    201    ccc     C6   8827 -0.05097600  12.010000   ; qtot 201.102708
 8828         h1    201    ccc     H9   8828 0.11563300   1.008000   ; qtot 201.218341
 8829         c3    201    ccc     C7   8829 -0.18457900  12.010000   ; qtot 201.033762
 8830         h1    201    ccc    H10   8830 0.11563300   1.008000   ; qtot 201.149395
 8831         hc    201    ccc    H11   8831 0.08347900   1.008000   ; qtot 201.232874
 8832         hc    201    ccc    H12   8832 0.08347900   1.008000   ; qtot 201.316353
 8833          c    201    ccc     C8   8833 0.67254400  12.010000   ; qtot 201.988897
 8834          o    201    ccc     O2   8834 -0.52917200  16.000000   ; qtot 201.459725
 8835         h1    201    ccc    H13   8835 0.11563300   1.008000   ; qtot 201.575358
 8836         h1    201    ccc    H14   8836 0.11563300   1.008000   ; qtot 201.690991
 8837         c3    201    ccc     C9   8837 -0.18457900  12.010000   ; qtot 201.506412
 8838         hc    201    ccc    H15   8838 0.08347900   1.008000   ; qtot 201.589891
 8839         hc    201    ccc    H16   8839 0.08347900   1.008000   ; qtot 201.673370
 8840          c    201    ccc    C10   8840 0.67254400  12.010000   ; qtot 202.345914
 8841          o    201    ccc     O4   8841 -0.52917200  16.000000   ; qtot 201.816742
 8842         c3    201    ccc    C11   8842 0.08518000  12.010000   ; qtot 201.901922
 8843         c3    201    ccc    C12   8843 0.07918000  12.010000   ; qtot 201.981102
 8844         h1    201    ccc    H17   8844 0.06978000   1.008000   ; qtot 202.050882
 8845         c3    201    ccc    C13   8845 0.07918000  12.010000   ; qtot 202.130062
 8846         c3    201    ccc    C14   8846 0.03578000  12.010000   ; qtot 202.165842
 8847         c3    201    ccc    C15   8847 0.33498000  12.010000   ; qtot 202.500822
 8848         h1    201    ccc    H18   8848 0.06178000   1.008000   ; qtot 202.562602
 8849         h1    201    ccc    H19   8849 0.11278000   1.008000   ; qtot 202.675382
 8850         h2    201    ccc    H20   8850 0.12178000   1.008000   ; qtot 202.797162
 8851         oh    201    ccc     O1   8851 -0.56972000  16.000000   ; qtot 202.227442
 8852         oh    201    ccc     O6   8852 -0.57772000  16.000000   ; qtot 201.649722
 8853         c3    201    ccc    C16   8853 0.14548000  12.010000   ; qtot 201.795202
 8854         ho    201    ccc    H21   8854 0.40508000   1.008000   ; qtot 202.200282
 8855         hn    201    ccc    H22   8855 0.31758000   1.008000   ; qtot 202.517862
 8856         h1    201    ccc    H23   8856 0.06278000   1.008000   ; qtot 202.580642
 8857         h1    201    ccc    H24   8857 0.06278000   1.008000   ; qtot 202.643422
 8858         oh    201    ccc     O7   8858 -0.59472000  16.000000   ; qtot 202.048702
 8859         ho    201    ccc    H25   8859 0.41908000   1.008000   ; qtot 202.467782
 8860         os    201    ccc     O8   8860 -0.44552000  16.000000   ; qtot 202.022262
 8861         ho    201    ccc    H26   8861 0.41908000   1.008000   ; qtot 202.441342
 8862         h1    201    ccc    H27   8862 0.08578000   1.008000   ; qtot 202.527122
 8863         oh    201    ccc     O9   8863 -0.58672000  16.000000   ; qtot 201.940402
 8864         ho    201    ccc    H28   8864 0.41908000   1.008000   ; qtot 202.359482
 8865         n3    201    ccc     N3   8865 -0.54282000  14.010000   ; qtot 201.816662
 8866         c3    201    ccc    C17   8866 0.08518000  12.010000   ; qtot 201.901842
 8867         c3    201    ccc    C18   8867 0.07918000  12.010000   ; qtot 201.981022
 8868         h1    201    ccc    H29   8868 0.06978000   1.008000   ; qtot 202.050802
 8869         c3    201    ccc    C19   8869 0.07918000  12.010000   ; qtot 202.129982
 8870         c3    201    ccc    C20   8870 0.03578000  12.010000   ; qtot 202.165762
 8871         c3    201    ccc    C21   8871 0.33498000  12.010000   ; qtot 202.500742
 8872         h1    201    ccc    H30   8872 0.06178000   1.008000   ; qtot 202.562522
 8873         h1    201    ccc    H31   8873 0.11278000   1.008000   ; qtot 202.675302
 8874         h2    201    ccc    H32   8874 0.12178000   1.008000   ; qtot 202.797082
 8875         oh    201    ccc    O10   8875 -0.56972000  16.000000   ; qtot 202.227362
 8876         oh    201    ccc    O11   8876 -0.57772000  16.000000   ; qtot 201.649642
 8877         c3    201    ccc    C22   8877 0.14548000  12.010000   ; qtot 201.795122
 8878         ho    201    ccc    H33   8878 0.40508000   1.008000   ; qtot 202.200202
 8879         hn    201    ccc    H34   8879 0.31758000   1.008000   ; qtot 202.517782
 8880         h1    201    ccc    H35   8880 0.06278000   1.008000   ; qtot 202.580562
 8881         h1    201    ccc    H36   8881 0.06278000   1.008000   ; qtot 202.643342
 8882         oh    201    ccc    O12   8882 -0.59472000  16.000000   ; qtot 202.048622
 8883         ho    201    ccc    H37   8883 0.41908000   1.008000   ; qtot 202.467702
 8884         os    201    ccc    O13   8884 -0.44552000  16.000000   ; qtot 202.022182
 8885         ho    201    ccc    H38   8885 0.41908000   1.008000   ; qtot 202.441262
 8886         h1    201    ccc    H39   8886 0.08578000   1.008000   ; qtot 202.527042
 8887         oh    201    ccc     O5   8887 -0.58672000  16.000000   ; qtot 201.940322
 8888         ho    201    ccc    H40   8888 0.41908000   1.008000   ; qtot 202.359402
 8889         n3    201    ccc     N4   8889 -0.54282000  14.010000   ; qtot 201.816582
 8890         hn    201    ccc    H41   8890 0.17125500   1.008000   ; qtot 201.987837
; residue  202 ccc rtp ccc q 1.0
 8891          n    202    ccc     N1   8891 -0.33303000  14.010000   ; qtot 201.654807
 8892         hn    202    ccc     H4   8892 0.25916100   1.008000   ; qtot 201.913968
 8893         c3    202    ccc     C3   8893 -0.03328100  12.010000   ; qtot 201.880687
 8894         h1    202    ccc     H5   8894 0.10618100   1.008000   ; qtot 201.986868
 8895         c3    202    ccc     C4   8895 -0.02083000  12.010000   ; qtot 201.966038
 8896         h1    202    ccc     H6   8896 0.10618100   1.008000   ; qtot 202.072219
 8897         h1    202    ccc     H7   8897 0.07988000   1.008000   ; qtot 202.152099
 8898         h1    202    ccc     H8   8898 0.07988000   1.008000   ; qtot 202.231979
 8899         n4    202    ccc     N2   8899 -0.02747900  14.010000   ; qtot 202.204500
 8900         c3    202    ccc     C5   8900 -0.05097600  12.010000   ; qtot 202.153524
 8901         c3    202    ccc     C6   8901 -0.05097600  12.010000   ; qtot 202.102548
 8902         h1    202    ccc     H9   8902 0.11563300   1.008000   ; qtot 202.218181
 8903         c3    202    ccc     C7   8903 -0.18457900  12.010000   ; qtot 202.033602
 8904         h1    202    ccc    H10   8904 0.11563300   1.008000   ; qtot 202.149235
 8905         hc    202    ccc    H11   8905 0.08347900   1.008000   ; qtot 202.232714
 8906         hc    202    ccc    H12   8906 0.08347900   1.008000   ; qtot 202.316193
 8907          c    202    ccc     C8   8907 0.67254400  12.010000   ; qtot 202.988737
 8908          o    202    ccc     O2   8908 -0.52917200  16.000000   ; qtot 202.459565
 8909         h1    202    ccc    H13   8909 0.11563300   1.008000   ; qtot 202.575198
 8910         h1    202    ccc    H14   8910 0.11563300   1.008000   ; qtot 202.690831
 8911         c3    202    ccc     C9   8911 -0.18457900  12.010000   ; qtot 202.506252
 8912         hc    202    ccc    H15   8912 0.08347900   1.008000   ; qtot 202.589731
 8913         hc    202    ccc    H16   8913 0.08347900   1.008000   ; qtot 202.673210
 8914          c    202    ccc    C10   8914 0.67254400  12.010000   ; qtot 203.345754
 8915          o    202    ccc     O4   8915 -0.52917200  16.000000   ; qtot 202.816582
 8916         c3    202    ccc    C11   8916 0.08518000  12.010000   ; qtot 202.901762
 8917         c3    202    ccc    C12   8917 0.07918000  12.010000   ; qtot 202.980942
 8918         h1    202    ccc    H17   8918 0.06978000   1.008000   ; qtot 203.050722
 8919         c3    202    ccc    C13   8919 0.07918000  12.010000   ; qtot 203.129902
 8920         c3    202    ccc    C14   8920 0.03578000  12.010000   ; qtot 203.165682
 8921         c3    202    ccc    C15   8921 0.33498000  12.010000   ; qtot 203.500662
 8922         h1    202    ccc    H18   8922 0.06178000   1.008000   ; qtot 203.562442
 8923         h1    202    ccc    H19   8923 0.11278000   1.008000   ; qtot 203.675222
 8924         h2    202    ccc    H20   8924 0.12178000   1.008000   ; qtot 203.797002
 8925         oh    202    ccc     O1   8925 -0.56972000  16.000000   ; qtot 203.227282
 8926         oh    202    ccc     O6   8926 -0.57772000  16.000000   ; qtot 202.649562
 8927         c3    202    ccc    C16   8927 0.14548000  12.010000   ; qtot 202.795042
 8928         ho    202    ccc    H21   8928 0.40508000   1.008000   ; qtot 203.200122
 8929         hn    202    ccc    H22   8929 0.31758000   1.008000   ; qtot 203.517702
 8930         h1    202    ccc    H23   8930 0.06278000   1.008000   ; qtot 203.580482
 8931         h1    202    ccc    H24   8931 0.06278000   1.008000   ; qtot 203.643262
 8932         oh    202    ccc     O7   8932 -0.59472000  16.000000   ; qtot 203.048542
 8933         ho    202    ccc    H25   8933 0.41908000   1.008000   ; qtot 203.467622
 8934         os    202    ccc     O8   8934 -0.44552000  16.000000   ; qtot 203.022102
 8935         ho    202    ccc    H26   8935 0.41908000   1.008000   ; qtot 203.441182
 8936         h1    202    ccc    H27   8936 0.08578000   1.008000   ; qtot 203.526962
 8937         oh    202    ccc     O9   8937 -0.58672000  16.000000   ; qtot 202.940242
 8938         ho    202    ccc    H28   8938 0.41908000   1.008000   ; qtot 203.359322
 8939         n3    202    ccc     N3   8939 -0.54282000  14.010000   ; qtot 202.816502
 8940         c3    202    ccc    C17   8940 0.08518000  12.010000   ; qtot 202.901682
 8941         c3    202    ccc    C18   8941 0.07918000  12.010000   ; qtot 202.980862
 8942         h1    202    ccc    H29   8942 0.06978000   1.008000   ; qtot 203.050642
 8943         c3    202    ccc    C19   8943 0.07918000  12.010000   ; qtot 203.129822
 8944         c3    202    ccc    C20   8944 0.03578000  12.010000   ; qtot 203.165602
 8945         c3    202    ccc    C21   8945 0.33498000  12.010000   ; qtot 203.500582
 8946         h1    202    ccc    H30   8946 0.06178000   1.008000   ; qtot 203.562362
 8947         h1    202    ccc    H31   8947 0.11278000   1.008000   ; qtot 203.675142
 8948         h2    202    ccc    H32   8948 0.12178000   1.008000   ; qtot 203.796922
 8949         oh    202    ccc    O10   8949 -0.56972000  16.000000   ; qtot 203.227202
 8950         oh    202    ccc    O11   8950 -0.57772000  16.000000   ; qtot 202.649482
 8951         c3    202    ccc    C22   8951 0.14548000  12.010000   ; qtot 202.794962
 8952         ho    202    ccc    H33   8952 0.40508000   1.008000   ; qtot 203.200042
 8953         hn    202    ccc    H34   8953 0.31758000   1.008000   ; qtot 203.517622
 8954         h1    202    ccc    H35   8954 0.06278000   1.008000   ; qtot 203.580402
 8955         h1    202    ccc    H36   8955 0.06278000   1.008000   ; qtot 203.643182
 8956         oh    202    ccc    O12   8956 -0.59472000  16.000000   ; qtot 203.048462
 8957         ho    202    ccc    H37   8957 0.41908000   1.008000   ; qtot 203.467542
 8958         os    202    ccc    O13   8958 -0.44552000  16.000000   ; qtot 203.022022
 8959         ho    202    ccc    H38   8959 0.41908000   1.008000   ; qtot 203.441102
 8960         h1    202    ccc    H39   8960 0.08578000   1.008000   ; qtot 203.526882
 8961         oh    202    ccc     O5   8961 -0.58672000  16.000000   ; qtot 202.940162
 8962         ho    202    ccc    H40   8962 0.41908000   1.008000   ; qtot 203.359242
 8963         n3    202    ccc     N4   8963 -0.54282000  14.010000   ; qtot 202.816422
 8964         hn    202    ccc    H41   8964 0.17125500   1.008000   ; qtot 202.987677
; residue  203 ccc rtp ccc q 1.0
 8965          n    203    ccc     N1   8965 -0.33303000  14.010000   ; qtot 202.654647
 8966         hn    203    ccc     H4   8966 0.25916100   1.008000   ; qtot 202.913808
 8967         c3    203    ccc     C3   8967 -0.03328100  12.010000   ; qtot 202.880527
 8968         h1    203    ccc     H5   8968 0.10618100   1.008000   ; qtot 202.986708
 8969         c3    203    ccc     C4   8969 -0.02083000  12.010000   ; qtot 202.965878
 8970         h1    203    ccc     H6   8970 0.10618100   1.008000   ; qtot 203.072059
 8971         h1    203    ccc     H7   8971 0.07988000   1.008000   ; qtot 203.151939
 8972         h1    203    ccc     H8   8972 0.07988000   1.008000   ; qtot 203.231819
 8973         n4    203    ccc     N2   8973 -0.02747900  14.010000   ; qtot 203.204340
 8974         c3    203    ccc     C5   8974 -0.05097600  12.010000   ; qtot 203.153364
 8975         c3    203    ccc     C6   8975 -0.05097600  12.010000   ; qtot 203.102388
 8976         h1    203    ccc     H9   8976 0.11563300   1.008000   ; qtot 203.218021
 8977         c3    203    ccc     C7   8977 -0.18457900  12.010000   ; qtot 203.033442
 8978         h1    203    ccc    H10   8978 0.11563300   1.008000   ; qtot 203.149075
 8979         hc    203    ccc    H11   8979 0.08347900   1.008000   ; qtot 203.232554
 8980         hc    203    ccc    H12   8980 0.08347900   1.008000   ; qtot 203.316033
 8981          c    203    ccc     C8   8981 0.67254400  12.010000   ; qtot 203.988577
 8982          o    203    ccc     O2   8982 -0.52917200  16.000000   ; qtot 203.459405
 8983         h1    203    ccc    H13   8983 0.11563300   1.008000   ; qtot 203.575038
 8984         h1    203    ccc    H14   8984 0.11563300   1.008000   ; qtot 203.690671
 8985         c3    203    ccc     C9   8985 -0.18457900  12.010000   ; qtot 203.506092
 8986         hc    203    ccc    H15   8986 0.08347900   1.008000   ; qtot 203.589571
 8987         hc    203    ccc    H16   8987 0.08347900   1.008000   ; qtot 203.673050
 8988          c    203    ccc    C10   8988 0.67254400  12.010000   ; qtot 204.345594
 8989          o    203    ccc     O4   8989 -0.52917200  16.000000   ; qtot 203.816422
 8990         c3    203    ccc    C11   8990 0.08518000  12.010000   ; qtot 203.901602
 8991         c3    203    ccc    C12   8991 0.07918000  12.010000   ; qtot 203.980782
 8992         h1    203    ccc    H17   8992 0.06978000   1.008000   ; qtot 204.050562
 8993         c3    203    ccc    C13   8993 0.07918000  12.010000   ; qtot 204.129742
 8994         c3    203    ccc    C14   8994 0.03578000  12.010000   ; qtot 204.165522
 8995         c3    203    ccc    C15   8995 0.33498000  12.010000   ; qtot 204.500502
 8996         h1    203    ccc    H18   8996 0.06178000   1.008000   ; qtot 204.562282
 8997         h1    203    ccc    H19   8997 0.11278000   1.008000   ; qtot 204.675062
 8998         h2    203    ccc    H20   8998 0.12178000   1.008000   ; qtot 204.796842
 8999         oh    203    ccc     O1   8999 -0.56972000  16.000000   ; qtot 204.227122
 9000         oh    203    ccc     O6   9000 -0.57772000  16.000000   ; qtot 203.649402
 9001         c3    203    ccc    C16   9001 0.14548000  12.010000   ; qtot 203.794882
 9002         ho    203    ccc    H21   9002 0.40508000   1.008000   ; qtot 204.199962
 9003         hn    203    ccc    H22   9003 0.31758000   1.008000   ; qtot 204.517542
 9004         h1    203    ccc    H23   9004 0.06278000   1.008000   ; qtot 204.580322
 9005         h1    203    ccc    H24   9005 0.06278000   1.008000   ; qtot 204.643102
 9006         oh    203    ccc     O7   9006 -0.59472000  16.000000   ; qtot 204.048382
 9007         ho    203    ccc    H25   9007 0.41908000   1.008000   ; qtot 204.467462
 9008         os    203    ccc     O8   9008 -0.44552000  16.000000   ; qtot 204.021942
 9009         ho    203    ccc    H26   9009 0.41908000   1.008000   ; qtot 204.441022
 9010         h1    203    ccc    H27   9010 0.08578000   1.008000   ; qtot 204.526802
 9011         oh    203    ccc     O9   9011 -0.58672000  16.000000   ; qtot 203.940082
 9012         ho    203    ccc    H28   9012 0.41908000   1.008000   ; qtot 204.359162
 9013         n3    203    ccc     N3   9013 -0.54282000  14.010000   ; qtot 203.816342
 9014         c3    203    ccc    C17   9014 0.08518000  12.010000   ; qtot 203.901522
 9015         c3    203    ccc    C18   9015 0.07918000  12.010000   ; qtot 203.980702
 9016         h1    203    ccc    H29   9016 0.06978000   1.008000   ; qtot 204.050482
 9017         c3    203    ccc    C19   9017 0.07918000  12.010000   ; qtot 204.129662
 9018         c3    203    ccc    C20   9018 0.03578000  12.010000   ; qtot 204.165442
 9019         c3    203    ccc    C21   9019 0.33498000  12.010000   ; qtot 204.500422
 9020         h1    203    ccc    H30   9020 0.06178000   1.008000   ; qtot 204.562202
 9021         h1    203    ccc    H31   9021 0.11278000   1.008000   ; qtot 204.674982
 9022         h2    203    ccc    H32   9022 0.12178000   1.008000   ; qtot 204.796762
 9023         oh    203    ccc    O10   9023 -0.56972000  16.000000   ; qtot 204.227042
 9024         oh    203    ccc    O11   9024 -0.57772000  16.000000   ; qtot 203.649322
 9025         c3    203    ccc    C22   9025 0.14548000  12.010000   ; qtot 203.794802
 9026         ho    203    ccc    H33   9026 0.40508000   1.008000   ; qtot 204.199882
 9027         hn    203    ccc    H34   9027 0.31758000   1.008000   ; qtot 204.517462
 9028         h1    203    ccc    H35   9028 0.06278000   1.008000   ; qtot 204.580242
 9029         h1    203    ccc    H36   9029 0.06278000   1.008000   ; qtot 204.643022
 9030         oh    203    ccc    O12   9030 -0.59472000  16.000000   ; qtot 204.048302
 9031         ho    203    ccc    H37   9031 0.41908000   1.008000   ; qtot 204.467382
 9032         os    203    ccc    O13   9032 -0.44552000  16.000000   ; qtot 204.021862
 9033         ho    203    ccc    H38   9033 0.41908000   1.008000   ; qtot 204.440942
 9034         h1    203    ccc    H39   9034 0.08578000   1.008000   ; qtot 204.526722
 9035         oh    203    ccc     O5   9035 -0.58672000  16.000000   ; qtot 203.940002
 9036         ho    203    ccc    H40   9036 0.41908000   1.008000   ; qtot 204.359082
 9037         n3    203    ccc     N4   9037 -0.54282000  14.010000   ; qtot 203.816262
 9038         hn    203    ccc    H41   9038 0.17125500   1.008000   ; qtot 203.987517
; residue  204 ccc rtp ccc q 1.0
 9039          n    204    ccc     N1   9039 -0.33303000  14.010000   ; qtot 203.654487
 9040         hn    204    ccc     H4   9040 0.25916100   1.008000   ; qtot 203.913648
 9041         c3    204    ccc     C3   9041 -0.03328100  12.010000   ; qtot 203.880367
 9042         h1    204    ccc     H5   9042 0.10618100   1.008000   ; qtot 203.986548
 9043         c3    204    ccc     C4   9043 -0.02083000  12.010000   ; qtot 203.965718
 9044         h1    204    ccc     H6   9044 0.10618100   1.008000   ; qtot 204.071899
 9045         h1    204    ccc     H7   9045 0.07988000   1.008000   ; qtot 204.151779
 9046         h1    204    ccc     H8   9046 0.07988000   1.008000   ; qtot 204.231659
 9047         n4    204    ccc     N2   9047 -0.02747900  14.010000   ; qtot 204.204180
 9048         c3    204    ccc     C5   9048 -0.05097600  12.010000   ; qtot 204.153204
 9049         c3    204    ccc     C6   9049 -0.05097600  12.010000   ; qtot 204.102228
 9050         h1    204    ccc     H9   9050 0.11563300   1.008000   ; qtot 204.217861
 9051         c3    204    ccc     C7   9051 -0.18457900  12.010000   ; qtot 204.033282
 9052         h1    204    ccc    H10   9052 0.11563300   1.008000   ; qtot 204.148915
 9053         hc    204    ccc    H11   9053 0.08347900   1.008000   ; qtot 204.232394
 9054         hc    204    ccc    H12   9054 0.08347900   1.008000   ; qtot 204.315873
 9055          c    204    ccc     C8   9055 0.67254400  12.010000   ; qtot 204.988417
 9056          o    204    ccc     O2   9056 -0.52917200  16.000000   ; qtot 204.459245
 9057         h1    204    ccc    H13   9057 0.11563300   1.008000   ; qtot 204.574878
 9058         h1    204    ccc    H14   9058 0.11563300   1.008000   ; qtot 204.690511
 9059         c3    204    ccc     C9   9059 -0.18457900  12.010000   ; qtot 204.505932
 9060         hc    204    ccc    H15   9060 0.08347900   1.008000   ; qtot 204.589411
 9061         hc    204    ccc    H16   9061 0.08347900   1.008000   ; qtot 204.672890
 9062          c    204    ccc    C10   9062 0.67254400  12.010000   ; qtot 205.345434
 9063          o    204    ccc     O4   9063 -0.52917200  16.000000   ; qtot 204.816262
 9064         c3    204    ccc    C11   9064 0.08518000  12.010000   ; qtot 204.901442
 9065         c3    204    ccc    C12   9065 0.07918000  12.010000   ; qtot 204.980622
 9066         h1    204    ccc    H17   9066 0.06978000   1.008000   ; qtot 205.050402
 9067         c3    204    ccc    C13   9067 0.07918000  12.010000   ; qtot 205.129582
 9068         c3    204    ccc    C14   9068 0.03578000  12.010000   ; qtot 205.165362
 9069         c3    204    ccc    C15   9069 0.33498000  12.010000   ; qtot 205.500342
 9070         h1    204    ccc    H18   9070 0.06178000   1.008000   ; qtot 205.562122
 9071         h1    204    ccc    H19   9071 0.11278000   1.008000   ; qtot 205.674902
 9072         h2    204    ccc    H20   9072 0.12178000   1.008000   ; qtot 205.796682
 9073         oh    204    ccc     O1   9073 -0.56972000  16.000000   ; qtot 205.226962
 9074         oh    204    ccc     O6   9074 -0.57772000  16.000000   ; qtot 204.649242
 9075         c3    204    ccc    C16   9075 0.14548000  12.010000   ; qtot 204.794722
 9076         ho    204    ccc    H21   9076 0.40508000   1.008000   ; qtot 205.199802
 9077         hn    204    ccc    H22   9077 0.31758000   1.008000   ; qtot 205.517382
 9078         h1    204    ccc    H23   9078 0.06278000   1.008000   ; qtot 205.580162
 9079         h1    204    ccc    H24   9079 0.06278000   1.008000   ; qtot 205.642942
 9080         oh    204    ccc     O7   9080 -0.59472000  16.000000   ; qtot 205.048222
 9081         ho    204    ccc    H25   9081 0.41908000   1.008000   ; qtot 205.467302
 9082         os    204    ccc     O8   9082 -0.44552000  16.000000   ; qtot 205.021782
 9083         ho    204    ccc    H26   9083 0.41908000   1.008000   ; qtot 205.440862
 9084         h1    204    ccc    H27   9084 0.08578000   1.008000   ; qtot 205.526642
 9085         oh    204    ccc     O9   9085 -0.58672000  16.000000   ; qtot 204.939922
 9086         ho    204    ccc    H28   9086 0.41908000   1.008000   ; qtot 205.359002
 9087         n3    204    ccc     N3   9087 -0.54282000  14.010000   ; qtot 204.816182
 9088         c3    204    ccc    C17   9088 0.08518000  12.010000   ; qtot 204.901362
 9089         c3    204    ccc    C18   9089 0.07918000  12.010000   ; qtot 204.980542
 9090         h1    204    ccc    H29   9090 0.06978000   1.008000   ; qtot 205.050322
 9091         c3    204    ccc    C19   9091 0.07918000  12.010000   ; qtot 205.129502
 9092         c3    204    ccc    C20   9092 0.03578000  12.010000   ; qtot 205.165282
 9093         c3    204    ccc    C21   9093 0.33498000  12.010000   ; qtot 205.500262
 9094         h1    204    ccc    H30   9094 0.06178000   1.008000   ; qtot 205.562042
 9095         h1    204    ccc    H31   9095 0.11278000   1.008000   ; qtot 205.674822
 9096         h2    204    ccc    H32   9096 0.12178000   1.008000   ; qtot 205.796602
 9097         oh    204    ccc    O10   9097 -0.56972000  16.000000   ; qtot 205.226882
 9098         oh    204    ccc    O11   9098 -0.57772000  16.000000   ; qtot 204.649162
 9099         c3    204    ccc    C22   9099 0.14548000  12.010000   ; qtot 204.794642
 9100         ho    204    ccc    H33   9100 0.40508000   1.008000   ; qtot 205.199722
 9101         hn    204    ccc    H34   9101 0.31758000   1.008000   ; qtot 205.517302
 9102         h1    204    ccc    H35   9102 0.06278000   1.008000   ; qtot 205.580082
 9103         h1    204    ccc    H36   9103 0.06278000   1.008000   ; qtot 205.642862
 9104         oh    204    ccc    O12   9104 -0.59472000  16.000000   ; qtot 205.048142
 9105         ho    204    ccc    H37   9105 0.41908000   1.008000   ; qtot 205.467222
 9106         os    204    ccc    O13   9106 -0.44552000  16.000000   ; qtot 205.021702
 9107         ho    204    ccc    H38   9107 0.41908000   1.008000   ; qtot 205.440782
 9108         h1    204    ccc    H39   9108 0.08578000   1.008000   ; qtot 205.526562
 9109         oh    204    ccc     O5   9109 -0.58672000  16.000000   ; qtot 204.939842
 9110         ho    204    ccc    H40   9110 0.41908000   1.008000   ; qtot 205.358922
 9111         n3    204    ccc     N4   9111 -0.54282000  14.010000   ; qtot 204.816102
 9112         hn    204    ccc    H41   9112 0.17125500   1.008000   ; qtot 204.987357
; residue  205 ccc rtp ccc q 1.0
 9113          n    205    ccc     N1   9113 -0.33303000  14.010000   ; qtot 204.654327
 9114         hn    205    ccc     H4   9114 0.25916100   1.008000   ; qtot 204.913488
 9115         c3    205    ccc     C3   9115 -0.03328100  12.010000   ; qtot 204.880207
 9116         h1    205    ccc     H5   9116 0.10618100   1.008000   ; qtot 204.986388
 9117         c3    205    ccc     C4   9117 -0.02083000  12.010000   ; qtot 204.965558
 9118         h1    205    ccc     H6   9118 0.10618100   1.008000   ; qtot 205.071739
 9119         h1    205    ccc     H7   9119 0.07988000   1.008000   ; qtot 205.151619
 9120         h1    205    ccc     H8   9120 0.07988000   1.008000   ; qtot 205.231499
 9121         n4    205    ccc     N2   9121 -0.02747900  14.010000   ; qtot 205.204020
 9122         c3    205    ccc     C5   9122 -0.05097600  12.010000   ; qtot 205.153044
 9123         c3    205    ccc     C6   9123 -0.05097600  12.010000   ; qtot 205.102068
 9124         h1    205    ccc     H9   9124 0.11563300   1.008000   ; qtot 205.217701
 9125         c3    205    ccc     C7   9125 -0.18457900  12.010000   ; qtot 205.033122
 9126         h1    205    ccc    H10   9126 0.11563300   1.008000   ; qtot 205.148755
 9127         hc    205    ccc    H11   9127 0.08347900   1.008000   ; qtot 205.232234
 9128         hc    205    ccc    H12   9128 0.08347900   1.008000   ; qtot 205.315713
 9129          c    205    ccc     C8   9129 0.67254400  12.010000   ; qtot 205.988257
 9130          o    205    ccc     O2   9130 -0.52917200  16.000000   ; qtot 205.459085
 9131         h1    205    ccc    H13   9131 0.11563300   1.008000   ; qtot 205.574718
 9132         h1    205    ccc    H14   9132 0.11563300   1.008000   ; qtot 205.690351
 9133         c3    205    ccc     C9   9133 -0.18457900  12.010000   ; qtot 205.505772
 9134         hc    205    ccc    H15   9134 0.08347900   1.008000   ; qtot 205.589251
 9135         hc    205    ccc    H16   9135 0.08347900   1.008000   ; qtot 205.672730
 9136          c    205    ccc    C10   9136 0.67254400  12.010000   ; qtot 206.345274
 9137          o    205    ccc     O4   9137 -0.52917200  16.000000   ; qtot 205.816102
 9138         c3    205    ccc    C11   9138 0.08518000  12.010000   ; qtot 205.901282
 9139         c3    205    ccc    C12   9139 0.07918000  12.010000   ; qtot 205.980462
 9140         h1    205    ccc    H17   9140 0.06978000   1.008000   ; qtot 206.050242
 9141         c3    205    ccc    C13   9141 0.07918000  12.010000   ; qtot 206.129422
 9142         c3    205    ccc    C14   9142 0.03578000  12.010000   ; qtot 206.165202
 9143         c3    205    ccc    C15   9143 0.33498000  12.010000   ; qtot 206.500182
 9144         h1    205    ccc    H18   9144 0.06178000   1.008000   ; qtot 206.561962
 9145         h1    205    ccc    H19   9145 0.11278000   1.008000   ; qtot 206.674742
 9146         h2    205    ccc    H20   9146 0.12178000   1.008000   ; qtot 206.796522
 9147         oh    205    ccc     O1   9147 -0.56972000  16.000000   ; qtot 206.226802
 9148         oh    205    ccc     O6   9148 -0.57772000  16.000000   ; qtot 205.649082
 9149         c3    205    ccc    C16   9149 0.14548000  12.010000   ; qtot 205.794562
 9150         ho    205    ccc    H21   9150 0.40508000   1.008000   ; qtot 206.199642
 9151         hn    205    ccc    H22   9151 0.31758000   1.008000   ; qtot 206.517222
 9152         h1    205    ccc    H23   9152 0.06278000   1.008000   ; qtot 206.580002
 9153         h1    205    ccc    H24   9153 0.06278000   1.008000   ; qtot 206.642782
 9154         oh    205    ccc     O7   9154 -0.59472000  16.000000   ; qtot 206.048062
 9155         ho    205    ccc    H25   9155 0.41908000   1.008000   ; qtot 206.467142
 9156         os    205    ccc     O8   9156 -0.44552000  16.000000   ; qtot 206.021622
 9157         ho    205    ccc    H26   9157 0.41908000   1.008000   ; qtot 206.440702
 9158         h1    205    ccc    H27   9158 0.08578000   1.008000   ; qtot 206.526482
 9159         oh    205    ccc     O9   9159 -0.58672000  16.000000   ; qtot 205.939762
 9160         ho    205    ccc    H28   9160 0.41908000   1.008000   ; qtot 206.358842
 9161         n3    205    ccc     N3   9161 -0.54282000  14.010000   ; qtot 205.816022
 9162         c3    205    ccc    C17   9162 0.08518000  12.010000   ; qtot 205.901202
 9163         c3    205    ccc    C18   9163 0.07918000  12.010000   ; qtot 205.980382
 9164         h1    205    ccc    H29   9164 0.06978000   1.008000   ; qtot 206.050162
 9165         c3    205    ccc    C19   9165 0.07918000  12.010000   ; qtot 206.129342
 9166         c3    205    ccc    C20   9166 0.03578000  12.010000   ; qtot 206.165122
 9167         c3    205    ccc    C21   9167 0.33498000  12.010000   ; qtot 206.500102
 9168         h1    205    ccc    H30   9168 0.06178000   1.008000   ; qtot 206.561882
 9169         h1    205    ccc    H31   9169 0.11278000   1.008000   ; qtot 206.674662
 9170         h2    205    ccc    H32   9170 0.12178000   1.008000   ; qtot 206.796442
 9171         oh    205    ccc    O10   9171 -0.56972000  16.000000   ; qtot 206.226722
 9172         oh    205    ccc    O11   9172 -0.57772000  16.000000   ; qtot 205.649002
 9173         c3    205    ccc    C22   9173 0.14548000  12.010000   ; qtot 205.794482
 9174         ho    205    ccc    H33   9174 0.40508000   1.008000   ; qtot 206.199562
 9175         hn    205    ccc    H34   9175 0.31758000   1.008000   ; qtot 206.517142
 9176         h1    205    ccc    H35   9176 0.06278000   1.008000   ; qtot 206.579922
 9177         h1    205    ccc    H36   9177 0.06278000   1.008000   ; qtot 206.642702
 9178         oh    205    ccc    O12   9178 -0.59472000  16.000000   ; qtot 206.047982
 9179         ho    205    ccc    H37   9179 0.41908000   1.008000   ; qtot 206.467062
 9180         os    205    ccc    O13   9180 -0.44552000  16.000000   ; qtot 206.021542
 9181         ho    205    ccc    H38   9181 0.41908000   1.008000   ; qtot 206.440622
 9182         h1    205    ccc    H39   9182 0.08578000   1.008000   ; qtot 206.526402
 9183         oh    205    ccc     O5   9183 -0.58672000  16.000000   ; qtot 205.939682
 9184         ho    205    ccc    H40   9184 0.41908000   1.008000   ; qtot 206.358762
 9185         n3    205    ccc     N4   9185 -0.54282000  14.010000   ; qtot 205.815942
 9186         hn    205    ccc    H41   9186 0.17125500   1.008000   ; qtot 205.987197
; residue  206 ccc rtp ccc q 1.0
 9187          n    206    ccc     N1   9187 -0.33303000  14.010000   ; qtot 205.654167
 9188         hn    206    ccc     H4   9188 0.25916100   1.008000   ; qtot 205.913328
 9189         c3    206    ccc     C3   9189 -0.03328100  12.010000   ; qtot 205.880047
 9190         h1    206    ccc     H5   9190 0.10618100   1.008000   ; qtot 205.986228
 9191         c3    206    ccc     C4   9191 -0.02083000  12.010000   ; qtot 205.965398
 9192         h1    206    ccc     H6   9192 0.10618100   1.008000   ; qtot 206.071579
 9193         h1    206    ccc     H7   9193 0.07988000   1.008000   ; qtot 206.151459
 9194         h1    206    ccc     H8   9194 0.07988000   1.008000   ; qtot 206.231339
 9195         n4    206    ccc     N2   9195 -0.02747900  14.010000   ; qtot 206.203860
 9196         c3    206    ccc     C5   9196 -0.05097600  12.010000   ; qtot 206.152884
 9197         c3    206    ccc     C6   9197 -0.05097600  12.010000   ; qtot 206.101908
 9198         h1    206    ccc     H9   9198 0.11563300   1.008000   ; qtot 206.217541
 9199         c3    206    ccc     C7   9199 -0.18457900  12.010000   ; qtot 206.032962
 9200         h1    206    ccc    H10   9200 0.11563300   1.008000   ; qtot 206.148595
 9201         hc    206    ccc    H11   9201 0.08347900   1.008000   ; qtot 206.232074
 9202         hc    206    ccc    H12   9202 0.08347900   1.008000   ; qtot 206.315553
 9203          c    206    ccc     C8   9203 0.67254400  12.010000   ; qtot 206.988097
 9204          o    206    ccc     O2   9204 -0.52917200  16.000000   ; qtot 206.458925
 9205         h1    206    ccc    H13   9205 0.11563300   1.008000   ; qtot 206.574558
 9206         h1    206    ccc    H14   9206 0.11563300   1.008000   ; qtot 206.690191
 9207         c3    206    ccc     C9   9207 -0.18457900  12.010000   ; qtot 206.505612
 9208         hc    206    ccc    H15   9208 0.08347900   1.008000   ; qtot 206.589091
 9209         hc    206    ccc    H16   9209 0.08347900   1.008000   ; qtot 206.672570
 9210          c    206    ccc    C10   9210 0.67254400  12.010000   ; qtot 207.345114
 9211          o    206    ccc     O4   9211 -0.52917200  16.000000   ; qtot 206.815942
 9212         c3    206    ccc    C11   9212 0.08518000  12.010000   ; qtot 206.901122
 9213         c3    206    ccc    C12   9213 0.07918000  12.010000   ; qtot 206.980302
 9214         h1    206    ccc    H17   9214 0.06978000   1.008000   ; qtot 207.050082
 9215         c3    206    ccc    C13   9215 0.07918000  12.010000   ; qtot 207.129262
 9216         c3    206    ccc    C14   9216 0.03578000  12.010000   ; qtot 207.165042
 9217         c3    206    ccc    C15   9217 0.33498000  12.010000   ; qtot 207.500022
 9218         h1    206    ccc    H18   9218 0.06178000   1.008000   ; qtot 207.561802
 9219         h1    206    ccc    H19   9219 0.11278000   1.008000   ; qtot 207.674582
 9220         h2    206    ccc    H20   9220 0.12178000   1.008000   ; qtot 207.796362
 9221         oh    206    ccc     O1   9221 -0.56972000  16.000000   ; qtot 207.226642
 9222         oh    206    ccc     O6   9222 -0.57772000  16.000000   ; qtot 206.648922
 9223         c3    206    ccc    C16   9223 0.14548000  12.010000   ; qtot 206.794402
 9224         ho    206    ccc    H21   9224 0.40508000   1.008000   ; qtot 207.199482
 9225         hn    206    ccc    H22   9225 0.31758000   1.008000   ; qtot 207.517062
 9226         h1    206    ccc    H23   9226 0.06278000   1.008000   ; qtot 207.579842
 9227         h1    206    ccc    H24   9227 0.06278000   1.008000   ; qtot 207.642622
 9228         oh    206    ccc     O7   9228 -0.59472000  16.000000   ; qtot 207.047902
 9229         ho    206    ccc    H25   9229 0.41908000   1.008000   ; qtot 207.466982
 9230         os    206    ccc     O8   9230 -0.44552000  16.000000   ; qtot 207.021462
 9231         ho    206    ccc    H26   9231 0.41908000   1.008000   ; qtot 207.440542
 9232         h1    206    ccc    H27   9232 0.08578000   1.008000   ; qtot 207.526322
 9233         oh    206    ccc     O9   9233 -0.58672000  16.000000   ; qtot 206.939602
 9234         ho    206    ccc    H28   9234 0.41908000   1.008000   ; qtot 207.358682
 9235         n3    206    ccc     N3   9235 -0.54282000  14.010000   ; qtot 206.815862
 9236         c3    206    ccc    C17   9236 0.08518000  12.010000   ; qtot 206.901042
 9237         c3    206    ccc    C18   9237 0.07918000  12.010000   ; qtot 206.980222
 9238         h1    206    ccc    H29   9238 0.06978000   1.008000   ; qtot 207.050002
 9239         c3    206    ccc    C19   9239 0.07918000  12.010000   ; qtot 207.129182
 9240         c3    206    ccc    C20   9240 0.03578000  12.010000   ; qtot 207.164962
 9241         c3    206    ccc    C21   9241 0.33498000  12.010000   ; qtot 207.499942
 9242         h1    206    ccc    H30   9242 0.06178000   1.008000   ; qtot 207.561722
 9243         h1    206    ccc    H31   9243 0.11278000   1.008000   ; qtot 207.674502
 9244         h2    206    ccc    H32   9244 0.12178000   1.008000   ; qtot 207.796282
 9245         oh    206    ccc    O10   9245 -0.56972000  16.000000   ; qtot 207.226562
 9246         oh    206    ccc    O11   9246 -0.57772000  16.000000   ; qtot 206.648842
 9247         c3    206    ccc    C22   9247 0.14548000  12.010000   ; qtot 206.794322
 9248         ho    206    ccc    H33   9248 0.40508000   1.008000   ; qtot 207.199402
 9249         hn    206    ccc    H34   9249 0.31758000   1.008000   ; qtot 207.516982
 9250         h1    206    ccc    H35   9250 0.06278000   1.008000   ; qtot 207.579762
 9251         h1    206    ccc    H36   9251 0.06278000   1.008000   ; qtot 207.642542
 9252         oh    206    ccc    O12   9252 -0.59472000  16.000000   ; qtot 207.047822
 9253         ho    206    ccc    H37   9253 0.41908000   1.008000   ; qtot 207.466902
 9254         os    206    ccc    O13   9254 -0.44552000  16.000000   ; qtot 207.021382
 9255         ho    206    ccc    H38   9255 0.41908000   1.008000   ; qtot 207.440462
 9256         h1    206    ccc    H39   9256 0.08578000   1.008000   ; qtot 207.526242
 9257         oh    206    ccc     O5   9257 -0.58672000  16.000000   ; qtot 206.939522
 9258         ho    206    ccc    H40   9258 0.41908000   1.008000   ; qtot 207.358602
 9259         n3    206    ccc     N4   9259 -0.54282000  14.010000   ; qtot 206.815782
 9260         hn    206    ccc    H41   9260 0.17125500   1.008000   ; qtot 206.987037
; residue  207 ccc rtp ccc q 1.0
 9261          n    207    ccc     N1   9261 -0.33303000  14.010000   ; qtot 206.654007
 9262         hn    207    ccc     H4   9262 0.25916100   1.008000   ; qtot 206.913168
 9263         c3    207    ccc     C3   9263 -0.03328100  12.010000   ; qtot 206.879887
 9264         h1    207    ccc     H5   9264 0.10618100   1.008000   ; qtot 206.986068
 9265         c3    207    ccc     C4   9265 -0.02083000  12.010000   ; qtot 206.965238
 9266         h1    207    ccc     H6   9266 0.10618100   1.008000   ; qtot 207.071419
 9267         h1    207    ccc     H7   9267 0.07988000   1.008000   ; qtot 207.151299
 9268         h1    207    ccc     H8   9268 0.07988000   1.008000   ; qtot 207.231179
 9269         n4    207    ccc     N2   9269 -0.02747900  14.010000   ; qtot 207.203700
 9270         c3    207    ccc     C5   9270 -0.05097600  12.010000   ; qtot 207.152724
 9271         c3    207    ccc     C6   9271 -0.05097600  12.010000   ; qtot 207.101748
 9272         h1    207    ccc     H9   9272 0.11563300   1.008000   ; qtot 207.217381
 9273         c3    207    ccc     C7   9273 -0.18457900  12.010000   ; qtot 207.032802
 9274         h1    207    ccc    H10   9274 0.11563300   1.008000   ; qtot 207.148435
 9275         hc    207    ccc    H11   9275 0.08347900   1.008000   ; qtot 207.231914
 9276         hc    207    ccc    H12   9276 0.08347900   1.008000   ; qtot 207.315393
 9277          c    207    ccc     C8   9277 0.67254400  12.010000   ; qtot 207.987937
 9278          o    207    ccc     O2   9278 -0.52917200  16.000000   ; qtot 207.458765
 9279         h1    207    ccc    H13   9279 0.11563300   1.008000   ; qtot 207.574398
 9280         h1    207    ccc    H14   9280 0.11563300   1.008000   ; qtot 207.690031
 9281         c3    207    ccc     C9   9281 -0.18457900  12.010000   ; qtot 207.505452
 9282         hc    207    ccc    H15   9282 0.08347900   1.008000   ; qtot 207.588931
 9283         hc    207    ccc    H16   9283 0.08347900   1.008000   ; qtot 207.672410
 9284          c    207    ccc    C10   9284 0.67254400  12.010000   ; qtot 208.344954
 9285          o    207    ccc     O4   9285 -0.52917200  16.000000   ; qtot 207.815782
 9286         c3    207    ccc    C11   9286 0.08518000  12.010000   ; qtot 207.900962
 9287         c3    207    ccc    C12   9287 0.07918000  12.010000   ; qtot 207.980142
 9288         h1    207    ccc    H17   9288 0.06978000   1.008000   ; qtot 208.049922
 9289         c3    207    ccc    C13   9289 0.07918000  12.010000   ; qtot 208.129102
 9290         c3    207    ccc    C14   9290 0.03578000  12.010000   ; qtot 208.164882
 9291         c3    207    ccc    C15   9291 0.33498000  12.010000   ; qtot 208.499862
 9292         h1    207    ccc    H18   9292 0.06178000   1.008000   ; qtot 208.561642
 9293         h1    207    ccc    H19   9293 0.11278000   1.008000   ; qtot 208.674422
 9294         h2    207    ccc    H20   9294 0.12178000   1.008000   ; qtot 208.796202
 9295         oh    207    ccc     O1   9295 -0.56972000  16.000000   ; qtot 208.226482
 9296         oh    207    ccc     O6   9296 -0.57772000  16.000000   ; qtot 207.648762
 9297         c3    207    ccc    C16   9297 0.14548000  12.010000   ; qtot 207.794242
 9298         ho    207    ccc    H21   9298 0.40508000   1.008000   ; qtot 208.199322
 9299         hn    207    ccc    H22   9299 0.31758000   1.008000   ; qtot 208.516902
 9300         h1    207    ccc    H23   9300 0.06278000   1.008000   ; qtot 208.579682
 9301         h1    207    ccc    H24   9301 0.06278000   1.008000   ; qtot 208.642462
 9302         oh    207    ccc     O7   9302 -0.59472000  16.000000   ; qtot 208.047742
 9303         ho    207    ccc    H25   9303 0.41908000   1.008000   ; qtot 208.466822
 9304         os    207    ccc     O8   9304 -0.44552000  16.000000   ; qtot 208.021302
 9305         ho    207    ccc    H26   9305 0.41908000   1.008000   ; qtot 208.440382
 9306         h1    207    ccc    H27   9306 0.08578000   1.008000   ; qtot 208.526162
 9307         oh    207    ccc     O9   9307 -0.58672000  16.000000   ; qtot 207.939442
 9308         ho    207    ccc    H28   9308 0.41908000   1.008000   ; qtot 208.358522
 9309         n3    207    ccc     N3   9309 -0.54282000  14.010000   ; qtot 207.815702
 9310         c3    207    ccc    C17   9310 0.08518000  12.010000   ; qtot 207.900882
 9311         c3    207    ccc    C18   9311 0.07918000  12.010000   ; qtot 207.980062
 9312         h1    207    ccc    H29   9312 0.06978000   1.008000   ; qtot 208.049842
 9313         c3    207    ccc    C19   9313 0.07918000  12.010000   ; qtot 208.129022
 9314         c3    207    ccc    C20   9314 0.03578000  12.010000   ; qtot 208.164802
 9315         c3    207    ccc    C21   9315 0.33498000  12.010000   ; qtot 208.499782
 9316         h1    207    ccc    H30   9316 0.06178000   1.008000   ; qtot 208.561562
 9317         h1    207    ccc    H31   9317 0.11278000   1.008000   ; qtot 208.674342
 9318         h2    207    ccc    H32   9318 0.12178000   1.008000   ; qtot 208.796122
 9319         oh    207    ccc    O10   9319 -0.56972000  16.000000   ; qtot 208.226402
 9320         oh    207    ccc    O11   9320 -0.57772000  16.000000   ; qtot 207.648682
 9321         c3    207    ccc    C22   9321 0.14548000  12.010000   ; qtot 207.794162
 9322         ho    207    ccc    H33   9322 0.40508000   1.008000   ; qtot 208.199242
 9323         hn    207    ccc    H34   9323 0.31758000   1.008000   ; qtot 208.516822
 9324         h1    207    ccc    H35   9324 0.06278000   1.008000   ; qtot 208.579602
 9325         h1    207    ccc    H36   9325 0.06278000   1.008000   ; qtot 208.642382
 9326         oh    207    ccc    O12   9326 -0.59472000  16.000000   ; qtot 208.047662
 9327         ho    207    ccc    H37   9327 0.41908000   1.008000   ; qtot 208.466742
 9328         os    207    ccc    O13   9328 -0.44552000  16.000000   ; qtot 208.021222
 9329         ho    207    ccc    H38   9329 0.41908000   1.008000   ; qtot 208.440302
 9330         h1    207    ccc    H39   9330 0.08578000   1.008000   ; qtot 208.526082
 9331         oh    207    ccc     O5   9331 -0.58672000  16.000000   ; qtot 207.939362
 9332         ho    207    ccc    H40   9332 0.41908000   1.008000   ; qtot 208.358442
 9333         n3    207    ccc     N4   9333 -0.54282000  14.010000   ; qtot 207.815622
 9334         hn    207    ccc    H41   9334 0.17125500   1.008000   ; qtot 207.986877
; residue  208 ccc rtp ccc q 1.0
 9335          n    208    ccc     N1   9335 -0.33303000  14.010000   ; qtot 207.653847
 9336         hn    208    ccc     H4   9336 0.25916100   1.008000   ; qtot 207.913008
 9337         c3    208    ccc     C3   9337 -0.03328100  12.010000   ; qtot 207.879727
 9338         h1    208    ccc     H5   9338 0.10618100   1.008000   ; qtot 207.985908
 9339         c3    208    ccc     C4   9339 -0.02083000  12.010000   ; qtot 207.965078
 9340         h1    208    ccc     H6   9340 0.10618100   1.008000   ; qtot 208.071259
 9341         h1    208    ccc     H7   9341 0.07988000   1.008000   ; qtot 208.151139
 9342         h1    208    ccc     H8   9342 0.07988000   1.008000   ; qtot 208.231019
 9343         n4    208    ccc     N2   9343 -0.02747900  14.010000   ; qtot 208.203540
 9344         c3    208    ccc     C5   9344 -0.05097600  12.010000   ; qtot 208.152564
 9345         c3    208    ccc     C6   9345 -0.05097600  12.010000   ; qtot 208.101588
 9346         h1    208    ccc     H9   9346 0.11563300   1.008000   ; qtot 208.217221
 9347         c3    208    ccc     C7   9347 -0.18457900  12.010000   ; qtot 208.032642
 9348         h1    208    ccc    H10   9348 0.11563300   1.008000   ; qtot 208.148275
 9349         hc    208    ccc    H11   9349 0.08347900   1.008000   ; qtot 208.231754
 9350         hc    208    ccc    H12   9350 0.08347900   1.008000   ; qtot 208.315233
 9351          c    208    ccc     C8   9351 0.67254400  12.010000   ; qtot 208.987777
 9352          o    208    ccc     O2   9352 -0.52917200  16.000000   ; qtot 208.458605
 9353         h1    208    ccc    H13   9353 0.11563300   1.008000   ; qtot 208.574238
 9354         h1    208    ccc    H14   9354 0.11563300   1.008000   ; qtot 208.689871
 9355         c3    208    ccc     C9   9355 -0.18457900  12.010000   ; qtot 208.505292
 9356         hc    208    ccc    H15   9356 0.08347900   1.008000   ; qtot 208.588771
 9357         hc    208    ccc    H16   9357 0.08347900   1.008000   ; qtot 208.672250
 9358          c    208    ccc    C10   9358 0.67254400  12.010000   ; qtot 209.344794
 9359          o    208    ccc     O4   9359 -0.52917200  16.000000   ; qtot 208.815622
 9360         c3    208    ccc    C11   9360 0.08518000  12.010000   ; qtot 208.900802
 9361         c3    208    ccc    C12   9361 0.07918000  12.010000   ; qtot 208.979982
 9362         h1    208    ccc    H17   9362 0.06978000   1.008000   ; qtot 209.049762
 9363         c3    208    ccc    C13   9363 0.07918000  12.010000   ; qtot 209.128942
 9364         c3    208    ccc    C14   9364 0.03578000  12.010000   ; qtot 209.164722
 9365         c3    208    ccc    C15   9365 0.33498000  12.010000   ; qtot 209.499702
 9366         h1    208    ccc    H18   9366 0.06178000   1.008000   ; qtot 209.561482
 9367         h1    208    ccc    H19   9367 0.11278000   1.008000   ; qtot 209.674262
 9368         h2    208    ccc    H20   9368 0.12178000   1.008000   ; qtot 209.796042
 9369         oh    208    ccc     O1   9369 -0.56972000  16.000000   ; qtot 209.226322
 9370         oh    208    ccc     O6   9370 -0.57772000  16.000000   ; qtot 208.648602
 9371         c3    208    ccc    C16   9371 0.14548000  12.010000   ; qtot 208.794082
 9372         ho    208    ccc    H21   9372 0.40508000   1.008000   ; qtot 209.199162
 9373         hn    208    ccc    H22   9373 0.31758000   1.008000   ; qtot 209.516742
 9374         h1    208    ccc    H23   9374 0.06278000   1.008000   ; qtot 209.579522
 9375         h1    208    ccc    H24   9375 0.06278000   1.008000   ; qtot 209.642302
 9376         oh    208    ccc     O7   9376 -0.59472000  16.000000   ; qtot 209.047582
 9377         ho    208    ccc    H25   9377 0.41908000   1.008000   ; qtot 209.466662
 9378         os    208    ccc     O8   9378 -0.44552000  16.000000   ; qtot 209.021142
 9379         ho    208    ccc    H26   9379 0.41908000   1.008000   ; qtot 209.440222
 9380         h1    208    ccc    H27   9380 0.08578000   1.008000   ; qtot 209.526002
 9381         oh    208    ccc     O9   9381 -0.58672000  16.000000   ; qtot 208.939282
 9382         ho    208    ccc    H28   9382 0.41908000   1.008000   ; qtot 209.358362
 9383         n3    208    ccc     N3   9383 -0.54282000  14.010000   ; qtot 208.815542
 9384         c3    208    ccc    C17   9384 0.08518000  12.010000   ; qtot 208.900722
 9385         c3    208    ccc    C18   9385 0.07918000  12.010000   ; qtot 208.979902
 9386         h1    208    ccc    H29   9386 0.06978000   1.008000   ; qtot 209.049682
 9387         c3    208    ccc    C19   9387 0.07918000  12.010000   ; qtot 209.128862
 9388         c3    208    ccc    C20   9388 0.03578000  12.010000   ; qtot 209.164642
 9389         c3    208    ccc    C21   9389 0.33498000  12.010000   ; qtot 209.499622
 9390         h1    208    ccc    H30   9390 0.06178000   1.008000   ; qtot 209.561402
 9391         h1    208    ccc    H31   9391 0.11278000   1.008000   ; qtot 209.674182
 9392         h2    208    ccc    H32   9392 0.12178000   1.008000   ; qtot 209.795962
 9393         oh    208    ccc    O10   9393 -0.56972000  16.000000   ; qtot 209.226242
 9394         oh    208    ccc    O11   9394 -0.57772000  16.000000   ; qtot 208.648522
 9395         c3    208    ccc    C22   9395 0.14548000  12.010000   ; qtot 208.794002
 9396         ho    208    ccc    H33   9396 0.40508000   1.008000   ; qtot 209.199082
 9397         hn    208    ccc    H34   9397 0.31758000   1.008000   ; qtot 209.516662
 9398         h1    208    ccc    H35   9398 0.06278000   1.008000   ; qtot 209.579442
 9399         h1    208    ccc    H36   9399 0.06278000   1.008000   ; qtot 209.642222
 9400         oh    208    ccc    O12   9400 -0.59472000  16.000000   ; qtot 209.047502
 9401         ho    208    ccc    H37   9401 0.41908000   1.008000   ; qtot 209.466582
 9402         os    208    ccc    O13   9402 -0.44552000  16.000000   ; qtot 209.021062
 9403         ho    208    ccc    H38   9403 0.41908000   1.008000   ; qtot 209.440142
 9404         h1    208    ccc    H39   9404 0.08578000   1.008000   ; qtot 209.525922
 9405         oh    208    ccc     O5   9405 -0.58672000  16.000000   ; qtot 208.939202
 9406         ho    208    ccc    H40   9406 0.41908000   1.008000   ; qtot 209.358282
 9407         n3    208    ccc     N4   9407 -0.54282000  14.010000   ; qtot 208.815462
 9408         hn    208    ccc    H41   9408 0.17125500   1.008000   ; qtot 208.986717
; residue  209 ccc rtp ccc q 1.0
 9409          n    209    ccc     N1   9409 -0.33303000  14.010000   ; qtot 208.653687
 9410         hn    209    ccc     H4   9410 0.25916100   1.008000   ; qtot 208.912848
 9411         c3    209    ccc     C3   9411 -0.03328100  12.010000   ; qtot 208.879567
 9412         h1    209    ccc     H5   9412 0.10618100   1.008000   ; qtot 208.985748
 9413         c3    209    ccc     C4   9413 -0.02083000  12.010000   ; qtot 208.964918
 9414         h1    209    ccc     H6   9414 0.10618100   1.008000   ; qtot 209.071099
 9415         h1    209    ccc     H7   9415 0.07988000   1.008000   ; qtot 209.150979
 9416         h1    209    ccc     H8   9416 0.07988000   1.008000   ; qtot 209.230859
 9417         n4    209    ccc     N2   9417 -0.02747900  14.010000   ; qtot 209.203380
 9418         c3    209    ccc     C5   9418 -0.05097600  12.010000   ; qtot 209.152404
 9419         c3    209    ccc     C6   9419 -0.05097600  12.010000   ; qtot 209.101428
 9420         h1    209    ccc     H9   9420 0.11563300   1.008000   ; qtot 209.217061
 9421         c3    209    ccc     C7   9421 -0.18457900  12.010000   ; qtot 209.032482
 9422         h1    209    ccc    H10   9422 0.11563300   1.008000   ; qtot 209.148115
 9423         hc    209    ccc    H11   9423 0.08347900   1.008000   ; qtot 209.231594
 9424         hc    209    ccc    H12   9424 0.08347900   1.008000   ; qtot 209.315073
 9425          c    209    ccc     C8   9425 0.67254400  12.010000   ; qtot 209.987617
 9426          o    209    ccc     O2   9426 -0.52917200  16.000000   ; qtot 209.458445
 9427         h1    209    ccc    H13   9427 0.11563300   1.008000   ; qtot 209.574078
 9428         h1    209    ccc    H14   9428 0.11563300   1.008000   ; qtot 209.689711
 9429         c3    209    ccc     C9   9429 -0.18457900  12.010000   ; qtot 209.505132
 9430         hc    209    ccc    H15   9430 0.08347900   1.008000   ; qtot 209.588611
 9431         hc    209    ccc    H16   9431 0.08347900   1.008000   ; qtot 209.672090
 9432          c    209    ccc    C10   9432 0.67254400  12.010000   ; qtot 210.344634
 9433          o    209    ccc     O4   9433 -0.52917200  16.000000   ; qtot 209.815462
 9434         c3    209    ccc    C11   9434 0.08518000  12.010000   ; qtot 209.900642
 9435         c3    209    ccc    C12   9435 0.07918000  12.010000   ; qtot 209.979822
 9436         h1    209    ccc    H17   9436 0.06978000   1.008000   ; qtot 210.049602
 9437         c3    209    ccc    C13   9437 0.07918000  12.010000   ; qtot 210.128782
 9438         c3    209    ccc    C14   9438 0.03578000  12.010000   ; qtot 210.164562
 9439         c3    209    ccc    C15   9439 0.33498000  12.010000   ; qtot 210.499542
 9440         h1    209    ccc    H18   9440 0.06178000   1.008000   ; qtot 210.561322
 9441         h1    209    ccc    H19   9441 0.11278000   1.008000   ; qtot 210.674102
 9442         h2    209    ccc    H20   9442 0.12178000   1.008000   ; qtot 210.795882
 9443         oh    209    ccc     O1   9443 -0.56972000  16.000000   ; qtot 210.226162
 9444         oh    209    ccc     O6   9444 -0.57772000  16.000000   ; qtot 209.648442
 9445         c3    209    ccc    C16   9445 0.14548000  12.010000   ; qtot 209.793922
 9446         ho    209    ccc    H21   9446 0.40508000   1.008000   ; qtot 210.199002
 9447         hn    209    ccc    H22   9447 0.31758000   1.008000   ; qtot 210.516582
 9448         h1    209    ccc    H23   9448 0.06278000   1.008000   ; qtot 210.579362
 9449         h1    209    ccc    H24   9449 0.06278000   1.008000   ; qtot 210.642142
 9450         oh    209    ccc     O7   9450 -0.59472000  16.000000   ; qtot 210.047422
 9451         ho    209    ccc    H25   9451 0.41908000   1.008000   ; qtot 210.466502
 9452         os    209    ccc     O8   9452 -0.44552000  16.000000   ; qtot 210.020982
 9453         ho    209    ccc    H26   9453 0.41908000   1.008000   ; qtot 210.440062
 9454         h1    209    ccc    H27   9454 0.08578000   1.008000   ; qtot 210.525842
 9455         oh    209    ccc     O9   9455 -0.58672000  16.000000   ; qtot 209.939122
 9456         ho    209    ccc    H28   9456 0.41908000   1.008000   ; qtot 210.358202
 9457         n3    209    ccc     N3   9457 -0.54282000  14.010000   ; qtot 209.815382
 9458         c3    209    ccc    C17   9458 0.08518000  12.010000   ; qtot 209.900562
 9459         c3    209    ccc    C18   9459 0.07918000  12.010000   ; qtot 209.979742
 9460         h1    209    ccc    H29   9460 0.06978000   1.008000   ; qtot 210.049522
 9461         c3    209    ccc    C19   9461 0.07918000  12.010000   ; qtot 210.128702
 9462         c3    209    ccc    C20   9462 0.03578000  12.010000   ; qtot 210.164482
 9463         c3    209    ccc    C21   9463 0.33498000  12.010000   ; qtot 210.499462
 9464         h1    209    ccc    H30   9464 0.06178000   1.008000   ; qtot 210.561242
 9465         h1    209    ccc    H31   9465 0.11278000   1.008000   ; qtot 210.674022
 9466         h2    209    ccc    H32   9466 0.12178000   1.008000   ; qtot 210.795802
 9467         oh    209    ccc    O10   9467 -0.56972000  16.000000   ; qtot 210.226082
 9468         oh    209    ccc    O11   9468 -0.57772000  16.000000   ; qtot 209.648362
 9469         c3    209    ccc    C22   9469 0.14548000  12.010000   ; qtot 209.793842
 9470         ho    209    ccc    H33   9470 0.40508000   1.008000   ; qtot 210.198922
 9471         hn    209    ccc    H34   9471 0.31758000   1.008000   ; qtot 210.516502
 9472         h1    209    ccc    H35   9472 0.06278000   1.008000   ; qtot 210.579282
 9473         h1    209    ccc    H36   9473 0.06278000   1.008000   ; qtot 210.642062
 9474         oh    209    ccc    O12   9474 -0.59472000  16.000000   ; qtot 210.047342
 9475         ho    209    ccc    H37   9475 0.41908000   1.008000   ; qtot 210.466422
 9476         os    209    ccc    O13   9476 -0.44552000  16.000000   ; qtot 210.020902
 9477         ho    209    ccc    H38   9477 0.41908000   1.008000   ; qtot 210.439982
 9478         h1    209    ccc    H39   9478 0.08578000   1.008000   ; qtot 210.525762
 9479         oh    209    ccc     O5   9479 -0.58672000  16.000000   ; qtot 209.939042
 9480         ho    209    ccc    H40   9480 0.41908000   1.008000   ; qtot 210.358122
 9481         n3    209    ccc     N4   9481 -0.54282000  14.010000   ; qtot 209.815302
 9482         hn    209    ccc    H41   9482 0.17125500   1.008000   ; qtot 209.986557
; residue  210 ccc rtp ccc q 1.0
 9483          n    210    ccc     N1   9483 -0.33303000  14.010000   ; qtot 209.653527
 9484         hn    210    ccc     H4   9484 0.25916100   1.008000   ; qtot 209.912688
 9485         c3    210    ccc     C3   9485 -0.03328100  12.010000   ; qtot 209.879407
 9486         h1    210    ccc     H5   9486 0.10618100   1.008000   ; qtot 209.985588
 9487         c3    210    ccc     C4   9487 -0.02083000  12.010000   ; qtot 209.964758
 9488         h1    210    ccc     H6   9488 0.10618100   1.008000   ; qtot 210.070939
 9489         h1    210    ccc     H7   9489 0.07988000   1.008000   ; qtot 210.150819
 9490         h1    210    ccc     H8   9490 0.07988000   1.008000   ; qtot 210.230699
 9491         n4    210    ccc     N2   9491 -0.02747900  14.010000   ; qtot 210.203220
 9492         c3    210    ccc     C5   9492 -0.05097600  12.010000   ; qtot 210.152244
 9493         c3    210    ccc     C6   9493 -0.05097600  12.010000   ; qtot 210.101268
 9494         h1    210    ccc     H9   9494 0.11563300   1.008000   ; qtot 210.216901
 9495         c3    210    ccc     C7   9495 -0.18457900  12.010000   ; qtot 210.032322
 9496         h1    210    ccc    H10   9496 0.11563300   1.008000   ; qtot 210.147955
 9497         hc    210    ccc    H11   9497 0.08347900   1.008000   ; qtot 210.231434
 9498         hc    210    ccc    H12   9498 0.08347900   1.008000   ; qtot 210.314913
 9499          c    210    ccc     C8   9499 0.67254400  12.010000   ; qtot 210.987457
 9500          o    210    ccc     O2   9500 -0.52917200  16.000000   ; qtot 210.458285
 9501         h1    210    ccc    H13   9501 0.11563300   1.008000   ; qtot 210.573918
 9502         h1    210    ccc    H14   9502 0.11563300   1.008000   ; qtot 210.689551
 9503         c3    210    ccc     C9   9503 -0.18457900  12.010000   ; qtot 210.504972
 9504         hc    210    ccc    H15   9504 0.08347900   1.008000   ; qtot 210.588451
 9505         hc    210    ccc    H16   9505 0.08347900   1.008000   ; qtot 210.671930
 9506          c    210    ccc    C10   9506 0.67254400  12.010000   ; qtot 211.344474
 9507          o    210    ccc     O4   9507 -0.52917200  16.000000   ; qtot 210.815302
 9508         c3    210    ccc    C11   9508 0.08518000  12.010000   ; qtot 210.900482
 9509         c3    210    ccc    C12   9509 0.07918000  12.010000   ; qtot 210.979662
 9510         h1    210    ccc    H17   9510 0.06978000   1.008000   ; qtot 211.049442
 9511         c3    210    ccc    C13   9511 0.07918000  12.010000   ; qtot 211.128622
 9512         c3    210    ccc    C14   9512 0.03578000  12.010000   ; qtot 211.164402
 9513         c3    210    ccc    C15   9513 0.33498000  12.010000   ; qtot 211.499382
 9514         h1    210    ccc    H18   9514 0.06178000   1.008000   ; qtot 211.561162
 9515         h1    210    ccc    H19   9515 0.11278000   1.008000   ; qtot 211.673942
 9516         h2    210    ccc    H20   9516 0.12178000   1.008000   ; qtot 211.795722
 9517         oh    210    ccc     O1   9517 -0.56972000  16.000000   ; qtot 211.226002
 9518         oh    210    ccc     O6   9518 -0.57772000  16.000000   ; qtot 210.648282
 9519         c3    210    ccc    C16   9519 0.14548000  12.010000   ; qtot 210.793762
 9520         ho    210    ccc    H21   9520 0.40508000   1.008000   ; qtot 211.198842
 9521         hn    210    ccc    H22   9521 0.31758000   1.008000   ; qtot 211.516422
 9522         h1    210    ccc    H23   9522 0.06278000   1.008000   ; qtot 211.579202
 9523         h1    210    ccc    H24   9523 0.06278000   1.008000   ; qtot 211.641982
 9524         oh    210    ccc     O7   9524 -0.59472000  16.000000   ; qtot 211.047262
 9525         ho    210    ccc    H25   9525 0.41908000   1.008000   ; qtot 211.466342
 9526         os    210    ccc     O8   9526 -0.44552000  16.000000   ; qtot 211.020822
 9527         ho    210    ccc    H26   9527 0.41908000   1.008000   ; qtot 211.439902
 9528         h1    210    ccc    H27   9528 0.08578000   1.008000   ; qtot 211.525682
 9529         oh    210    ccc     O9   9529 -0.58672000  16.000000   ; qtot 210.938962
 9530         ho    210    ccc    H28   9530 0.41908000   1.008000   ; qtot 211.358042
 9531         n3    210    ccc     N3   9531 -0.54282000  14.010000   ; qtot 210.815222
 9532         c3    210    ccc    C17   9532 0.08518000  12.010000   ; qtot 210.900402
 9533         c3    210    ccc    C18   9533 0.07918000  12.010000   ; qtot 210.979582
 9534         h1    210    ccc    H29   9534 0.06978000   1.008000   ; qtot 211.049362
 9535         c3    210    ccc    C19   9535 0.07918000  12.010000   ; qtot 211.128542
 9536         c3    210    ccc    C20   9536 0.03578000  12.010000   ; qtot 211.164322
 9537         c3    210    ccc    C21   9537 0.33498000  12.010000   ; qtot 211.499302
 9538         h1    210    ccc    H30   9538 0.06178000   1.008000   ; qtot 211.561082
 9539         h1    210    ccc    H31   9539 0.11278000   1.008000   ; qtot 211.673862
 9540         h2    210    ccc    H32   9540 0.12178000   1.008000   ; qtot 211.795642
 9541         oh    210    ccc    O10   9541 -0.56972000  16.000000   ; qtot 211.225922
 9542         oh    210    ccc    O11   9542 -0.57772000  16.000000   ; qtot 210.648202
 9543         c3    210    ccc    C22   9543 0.14548000  12.010000   ; qtot 210.793682
 9544         ho    210    ccc    H33   9544 0.40508000   1.008000   ; qtot 211.198762
 9545         hn    210    ccc    H34   9545 0.31758000   1.008000   ; qtot 211.516342
 9546         h1    210    ccc    H35   9546 0.06278000   1.008000   ; qtot 211.579122
 9547         h1    210    ccc    H36   9547 0.06278000   1.008000   ; qtot 211.641902
 9548         oh    210    ccc    O12   9548 -0.59472000  16.000000   ; qtot 211.047182
 9549         ho    210    ccc    H37   9549 0.41908000   1.008000   ; qtot 211.466262
 9550         os    210    ccc    O13   9550 -0.44552000  16.000000   ; qtot 211.020742
 9551         ho    210    ccc    H38   9551 0.41908000   1.008000   ; qtot 211.439822
 9552         h1    210    ccc    H39   9552 0.08578000   1.008000   ; qtot 211.525602
 9553         oh    210    ccc     O5   9553 -0.58672000  16.000000   ; qtot 210.938882
 9554         ho    210    ccc    H40   9554 0.41908000   1.008000   ; qtot 211.357962
 9555         n3    210    ccc     N4   9555 -0.54282000  14.010000   ; qtot 210.815142
 9556         hn    210    ccc    H41   9556 0.17125500   1.008000   ; qtot 210.986397
; residue  211 ccc rtp ccc q 1.0
 9557          n    211    ccc     N1   9557 -0.33303000  14.010000   ; qtot 210.653367
 9558         hn    211    ccc     H4   9558 0.25916100   1.008000   ; qtot 210.912528
 9559         c3    211    ccc     C3   9559 -0.03328100  12.010000   ; qtot 210.879247
 9560         h1    211    ccc     H5   9560 0.10618100   1.008000   ; qtot 210.985428
 9561         c3    211    ccc     C4   9561 -0.02083000  12.010000   ; qtot 210.964598
 9562         h1    211    ccc     H6   9562 0.10618100   1.008000   ; qtot 211.070779
 9563         h1    211    ccc     H7   9563 0.07988000   1.008000   ; qtot 211.150659
 9564         h1    211    ccc     H8   9564 0.07988000   1.008000   ; qtot 211.230539
 9565         n4    211    ccc     N2   9565 -0.02747900  14.010000   ; qtot 211.203060
 9566         c3    211    ccc     C5   9566 -0.05097600  12.010000   ; qtot 211.152084
 9567         c3    211    ccc     C6   9567 -0.05097600  12.010000   ; qtot 211.101108
 9568         h1    211    ccc     H9   9568 0.11563300   1.008000   ; qtot 211.216741
 9569         c3    211    ccc     C7   9569 -0.18457900  12.010000   ; qtot 211.032162
 9570         h1    211    ccc    H10   9570 0.11563300   1.008000   ; qtot 211.147795
 9571         hc    211    ccc    H11   9571 0.08347900   1.008000   ; qtot 211.231274
 9572         hc    211    ccc    H12   9572 0.08347900   1.008000   ; qtot 211.314753
 9573          c    211    ccc     C8   9573 0.67254400  12.010000   ; qtot 211.987297
 9574          o    211    ccc     O2   9574 -0.52917200  16.000000   ; qtot 211.458125
 9575         h1    211    ccc    H13   9575 0.11563300   1.008000   ; qtot 211.573758
 9576         h1    211    ccc    H14   9576 0.11563300   1.008000   ; qtot 211.689391
 9577         c3    211    ccc     C9   9577 -0.18457900  12.010000   ; qtot 211.504812
 9578         hc    211    ccc    H15   9578 0.08347900   1.008000   ; qtot 211.588291
 9579         hc    211    ccc    H16   9579 0.08347900   1.008000   ; qtot 211.671770
 9580          c    211    ccc    C10   9580 0.67254400  12.010000   ; qtot 212.344314
 9581          o    211    ccc     O4   9581 -0.52917200  16.000000   ; qtot 211.815142
 9582         c3    211    ccc    C11   9582 0.08518000  12.010000   ; qtot 211.900322
 9583         c3    211    ccc    C12   9583 0.07918000  12.010000   ; qtot 211.979502
 9584         h1    211    ccc    H17   9584 0.06978000   1.008000   ; qtot 212.049282
 9585         c3    211    ccc    C13   9585 0.07918000  12.010000   ; qtot 212.128462
 9586         c3    211    ccc    C14   9586 0.03578000  12.010000   ; qtot 212.164242
 9587         c3    211    ccc    C15   9587 0.33498000  12.010000   ; qtot 212.499222
 9588         h1    211    ccc    H18   9588 0.06178000   1.008000   ; qtot 212.561002
 9589         h1    211    ccc    H19   9589 0.11278000   1.008000   ; qtot 212.673782
 9590         h2    211    ccc    H20   9590 0.12178000   1.008000   ; qtot 212.795562
 9591         oh    211    ccc     O1   9591 -0.56972000  16.000000   ; qtot 212.225842
 9592         oh    211    ccc     O6   9592 -0.57772000  16.000000   ; qtot 211.648122
 9593         c3    211    ccc    C16   9593 0.14548000  12.010000   ; qtot 211.793602
 9594         ho    211    ccc    H21   9594 0.40508000   1.008000   ; qtot 212.198682
 9595         hn    211    ccc    H22   9595 0.31758000   1.008000   ; qtot 212.516262
 9596         h1    211    ccc    H23   9596 0.06278000   1.008000   ; qtot 212.579042
 9597         h1    211    ccc    H24   9597 0.06278000   1.008000   ; qtot 212.641822
 9598         oh    211    ccc     O7   9598 -0.59472000  16.000000   ; qtot 212.047102
 9599         ho    211    ccc    H25   9599 0.41908000   1.008000   ; qtot 212.466182
 9600         os    211    ccc     O8   9600 -0.44552000  16.000000   ; qtot 212.020662
 9601         ho    211    ccc    H26   9601 0.41908000   1.008000   ; qtot 212.439742
 9602         h1    211    ccc    H27   9602 0.08578000   1.008000   ; qtot 212.525522
 9603         oh    211    ccc     O9   9603 -0.58672000  16.000000   ; qtot 211.938802
 9604         ho    211    ccc    H28   9604 0.41908000   1.008000   ; qtot 212.357882
 9605         n3    211    ccc     N3   9605 -0.54282000  14.010000   ; qtot 211.815062
 9606         c3    211    ccc    C17   9606 0.08518000  12.010000   ; qtot 211.900242
 9607         c3    211    ccc    C18   9607 0.07918000  12.010000   ; qtot 211.979422
 9608         h1    211    ccc    H29   9608 0.06978000   1.008000   ; qtot 212.049202
 9609         c3    211    ccc    C19   9609 0.07918000  12.010000   ; qtot 212.128382
 9610         c3    211    ccc    C20   9610 0.03578000  12.010000   ; qtot 212.164162
 9611         c3    211    ccc    C21   9611 0.33498000  12.010000   ; qtot 212.499142
 9612         h1    211    ccc    H30   9612 0.06178000   1.008000   ; qtot 212.560922
 9613         h1    211    ccc    H31   9613 0.11278000   1.008000   ; qtot 212.673702
 9614         h2    211    ccc    H32   9614 0.12178000   1.008000   ; qtot 212.795482
 9615         oh    211    ccc    O10   9615 -0.56972000  16.000000   ; qtot 212.225762
 9616         oh    211    ccc    O11   9616 -0.57772000  16.000000   ; qtot 211.648042
 9617         c3    211    ccc    C22   9617 0.14548000  12.010000   ; qtot 211.793522
 9618         ho    211    ccc    H33   9618 0.40508000   1.008000   ; qtot 212.198602
 9619         hn    211    ccc    H34   9619 0.31758000   1.008000   ; qtot 212.516182
 9620         h1    211    ccc    H35   9620 0.06278000   1.008000   ; qtot 212.578962
 9621         h1    211    ccc    H36   9621 0.06278000   1.008000   ; qtot 212.641742
 9622         oh    211    ccc    O12   9622 -0.59472000  16.000000   ; qtot 212.047022
 9623         ho    211    ccc    H37   9623 0.41908000   1.008000   ; qtot 212.466102
 9624         os    211    ccc    O13   9624 -0.44552000  16.000000   ; qtot 212.020582
 9625         ho    211    ccc    H38   9625 0.41908000   1.008000   ; qtot 212.439662
 9626         h1    211    ccc    H39   9626 0.08578000   1.008000   ; qtot 212.525442
 9627         oh    211    ccc     O5   9627 -0.58672000  16.000000   ; qtot 211.938722
 9628         ho    211    ccc    H40   9628 0.41908000   1.008000   ; qtot 212.357802
 9629         n3    211    ccc     N4   9629 -0.54282000  14.010000   ; qtot 211.814982
 9630         hn    211    ccc    H41   9630 0.17125500   1.008000   ; qtot 211.986237
; residue  212 ccc rtp ccc q 1.0
 9631          n    212    ccc     N1   9631 -0.33303000  14.010000   ; qtot 211.653207
 9632         hn    212    ccc     H4   9632 0.25916100   1.008000   ; qtot 211.912368
 9633         c3    212    ccc     C3   9633 -0.03328100  12.010000   ; qtot 211.879087
 9634         h1    212    ccc     H5   9634 0.10618100   1.008000   ; qtot 211.985268
 9635         c3    212    ccc     C4   9635 -0.02083000  12.010000   ; qtot 211.964438
 9636         h1    212    ccc     H6   9636 0.10618100   1.008000   ; qtot 212.070619
 9637         h1    212    ccc     H7   9637 0.07988000   1.008000   ; qtot 212.150499
 9638         h1    212    ccc     H8   9638 0.07988000   1.008000   ; qtot 212.230379
 9639         n4    212    ccc     N2   9639 -0.02747900  14.010000   ; qtot 212.202900
 9640         c3    212    ccc     C5   9640 -0.05097600  12.010000   ; qtot 212.151924
 9641         c3    212    ccc     C6   9641 -0.05097600  12.010000   ; qtot 212.100948
 9642         h1    212    ccc     H9   9642 0.11563300   1.008000   ; qtot 212.216581
 9643         c3    212    ccc     C7   9643 -0.18457900  12.010000   ; qtot 212.032002
 9644         h1    212    ccc    H10   9644 0.11563300   1.008000   ; qtot 212.147635
 9645         hc    212    ccc    H11   9645 0.08347900   1.008000   ; qtot 212.231114
 9646         hc    212    ccc    H12   9646 0.08347900   1.008000   ; qtot 212.314593
 9647          c    212    ccc     C8   9647 0.67254400  12.010000   ; qtot 212.987137
 9648          o    212    ccc     O2   9648 -0.52917200  16.000000   ; qtot 212.457965
 9649         h1    212    ccc    H13   9649 0.11563300   1.008000   ; qtot 212.573598
 9650         h1    212    ccc    H14   9650 0.11563300   1.008000   ; qtot 212.689231
 9651         c3    212    ccc     C9   9651 -0.18457900  12.010000   ; qtot 212.504652
 9652         hc    212    ccc    H15   9652 0.08347900   1.008000   ; qtot 212.588131
 9653         hc    212    ccc    H16   9653 0.08347900   1.008000   ; qtot 212.671610
 9654          c    212    ccc    C10   9654 0.67254400  12.010000   ; qtot 213.344154
 9655          o    212    ccc     O4   9655 -0.52917200  16.000000   ; qtot 212.814982
 9656         c3    212    ccc    C11   9656 0.08518000  12.010000   ; qtot 212.900162
 9657         c3    212    ccc    C12   9657 0.07918000  12.010000   ; qtot 212.979342
 9658         h1    212    ccc    H17   9658 0.06978000   1.008000   ; qtot 213.049122
 9659         c3    212    ccc    C13   9659 0.07918000  12.010000   ; qtot 213.128302
 9660         c3    212    ccc    C14   9660 0.03578000  12.010000   ; qtot 213.164082
 9661         c3    212    ccc    C15   9661 0.33498000  12.010000   ; qtot 213.499062
 9662         h1    212    ccc    H18   9662 0.06178000   1.008000   ; qtot 213.560842
 9663         h1    212    ccc    H19   9663 0.11278000   1.008000   ; qtot 213.673622
 9664         h2    212    ccc    H20   9664 0.12178000   1.008000   ; qtot 213.795402
 9665         oh    212    ccc     O1   9665 -0.56972000  16.000000   ; qtot 213.225682
 9666         oh    212    ccc     O6   9666 -0.57772000  16.000000   ; qtot 212.647962
 9667         c3    212    ccc    C16   9667 0.14548000  12.010000   ; qtot 212.793442
 9668         ho    212    ccc    H21   9668 0.40508000   1.008000   ; qtot 213.198522
 9669         hn    212    ccc    H22   9669 0.31758000   1.008000   ; qtot 213.516102
 9670         h1    212    ccc    H23   9670 0.06278000   1.008000   ; qtot 213.578882
 9671         h1    212    ccc    H24   9671 0.06278000   1.008000   ; qtot 213.641662
 9672         oh    212    ccc     O7   9672 -0.59472000  16.000000   ; qtot 213.046942
 9673         ho    212    ccc    H25   9673 0.41908000   1.008000   ; qtot 213.466022
 9674         os    212    ccc     O8   9674 -0.44552000  16.000000   ; qtot 213.020502
 9675         ho    212    ccc    H26   9675 0.41908000   1.008000   ; qtot 213.439582
 9676         h1    212    ccc    H27   9676 0.08578000   1.008000   ; qtot 213.525362
 9677         oh    212    ccc     O9   9677 -0.58672000  16.000000   ; qtot 212.938642
 9678         ho    212    ccc    H28   9678 0.41908000   1.008000   ; qtot 213.357722
 9679         n3    212    ccc     N3   9679 -0.54282000  14.010000   ; qtot 212.814902
 9680         c3    212    ccc    C17   9680 0.08518000  12.010000   ; qtot 212.900082
 9681         c3    212    ccc    C18   9681 0.07918000  12.010000   ; qtot 212.979262
 9682         h1    212    ccc    H29   9682 0.06978000   1.008000   ; qtot 213.049042
 9683         c3    212    ccc    C19   9683 0.07918000  12.010000   ; qtot 213.128222
 9684         c3    212    ccc    C20   9684 0.03578000  12.010000   ; qtot 213.164002
 9685         c3    212    ccc    C21   9685 0.33498000  12.010000   ; qtot 213.498982
 9686         h1    212    ccc    H30   9686 0.06178000   1.008000   ; qtot 213.560762
 9687         h1    212    ccc    H31   9687 0.11278000   1.008000   ; qtot 213.673542
 9688         h2    212    ccc    H32   9688 0.12178000   1.008000   ; qtot 213.795322
 9689         oh    212    ccc    O10   9689 -0.56972000  16.000000   ; qtot 213.225602
 9690         oh    212    ccc    O11   9690 -0.57772000  16.000000   ; qtot 212.647882
 9691         c3    212    ccc    C22   9691 0.14548000  12.010000   ; qtot 212.793362
 9692         ho    212    ccc    H33   9692 0.40508000   1.008000   ; qtot 213.198442
 9693         hn    212    ccc    H34   9693 0.31758000   1.008000   ; qtot 213.516022
 9694         h1    212    ccc    H35   9694 0.06278000   1.008000   ; qtot 213.578802
 9695         h1    212    ccc    H36   9695 0.06278000   1.008000   ; qtot 213.641582
 9696         oh    212    ccc    O12   9696 -0.59472000  16.000000   ; qtot 213.046862
 9697         ho    212    ccc    H37   9697 0.41908000   1.008000   ; qtot 213.465942
 9698         os    212    ccc    O13   9698 -0.44552000  16.000000   ; qtot 213.020422
 9699         ho    212    ccc    H38   9699 0.41908000   1.008000   ; qtot 213.439502
 9700         h1    212    ccc    H39   9700 0.08578000   1.008000   ; qtot 213.525282
 9701         oh    212    ccc     O5   9701 -0.58672000  16.000000   ; qtot 212.938562
 9702         ho    212    ccc    H40   9702 0.41908000   1.008000   ; qtot 213.357642
 9703         n3    212    ccc     N4   9703 -0.54282000  14.010000   ; qtot 212.814822
 9704         hn    212    ccc    H41   9704 0.17125500   1.008000   ; qtot 212.986077
; residue  213 ccc rtp ccc q 1.0
 9705          n    213    ccc     N1   9705 -0.33303000  14.010000   ; qtot 212.653047
 9706         hn    213    ccc     H4   9706 0.25916100   1.008000   ; qtot 212.912208
 9707         c3    213    ccc     C3   9707 -0.03328100  12.010000   ; qtot 212.878927
 9708         h1    213    ccc     H5   9708 0.10618100   1.008000   ; qtot 212.985108
 9709         c3    213    ccc     C4   9709 -0.02083000  12.010000   ; qtot 212.964278
 9710         h1    213    ccc     H6   9710 0.10618100   1.008000   ; qtot 213.070459
 9711         h1    213    ccc     H7   9711 0.07988000   1.008000   ; qtot 213.150339
 9712         h1    213    ccc     H8   9712 0.07988000   1.008000   ; qtot 213.230219
 9713         n4    213    ccc     N2   9713 -0.02747900  14.010000   ; qtot 213.202740
 9714         c3    213    ccc     C5   9714 -0.05097600  12.010000   ; qtot 213.151764
 9715         c3    213    ccc     C6   9715 -0.05097600  12.010000   ; qtot 213.100788
 9716         h1    213    ccc     H9   9716 0.11563300   1.008000   ; qtot 213.216421
 9717         c3    213    ccc     C7   9717 -0.18457900  12.010000   ; qtot 213.031842
 9718         h1    213    ccc    H10   9718 0.11563300   1.008000   ; qtot 213.147475
 9719         hc    213    ccc    H11   9719 0.08347900   1.008000   ; qtot 213.230954
 9720         hc    213    ccc    H12   9720 0.08347900   1.008000   ; qtot 213.314433
 9721          c    213    ccc     C8   9721 0.67254400  12.010000   ; qtot 213.986977
 9722          o    213    ccc     O2   9722 -0.52917200  16.000000   ; qtot 213.457805
 9723         h1    213    ccc    H13   9723 0.11563300   1.008000   ; qtot 213.573438
 9724         h1    213    ccc    H14   9724 0.11563300   1.008000   ; qtot 213.689071
 9725         c3    213    ccc     C9   9725 -0.18457900  12.010000   ; qtot 213.504492
 9726         hc    213    ccc    H15   9726 0.08347900   1.008000   ; qtot 213.587971
 9727         hc    213    ccc    H16   9727 0.08347900   1.008000   ; qtot 213.671450
 9728          c    213    ccc    C10   9728 0.67254400  12.010000   ; qtot 214.343994
 9729          o    213    ccc     O4   9729 -0.52917200  16.000000   ; qtot 213.814822
 9730         c3    213    ccc    C11   9730 0.08518000  12.010000   ; qtot 213.900002
 9731         c3    213    ccc    C12   9731 0.07918000  12.010000   ; qtot 213.979182
 9732         h1    213    ccc    H17   9732 0.06978000   1.008000   ; qtot 214.048962
 9733         c3    213    ccc    C13   9733 0.07918000  12.010000   ; qtot 214.128142
 9734         c3    213    ccc    C14   9734 0.03578000  12.010000   ; qtot 214.163922
 9735         c3    213    ccc    C15   9735 0.33498000  12.010000   ; qtot 214.498902
 9736         h1    213    ccc    H18   9736 0.06178000   1.008000   ; qtot 214.560682
 9737         h1    213    ccc    H19   9737 0.11278000   1.008000   ; qtot 214.673462
 9738         h2    213    ccc    H20   9738 0.12178000   1.008000   ; qtot 214.795242
 9739         oh    213    ccc     O1   9739 -0.56972000  16.000000   ; qtot 214.225522
 9740         oh    213    ccc     O6   9740 -0.57772000  16.000000   ; qtot 213.647802
 9741         c3    213    ccc    C16   9741 0.14548000  12.010000   ; qtot 213.793282
 9742         ho    213    ccc    H21   9742 0.40508000   1.008000   ; qtot 214.198362
 9743         hn    213    ccc    H22   9743 0.31758000   1.008000   ; qtot 214.515942
 9744         h1    213    ccc    H23   9744 0.06278000   1.008000   ; qtot 214.578722
 9745         h1    213    ccc    H24   9745 0.06278000   1.008000   ; qtot 214.641502
 9746         oh    213    ccc     O7   9746 -0.59472000  16.000000   ; qtot 214.046782
 9747         ho    213    ccc    H25   9747 0.41908000   1.008000   ; qtot 214.465862
 9748         os    213    ccc     O8   9748 -0.44552000  16.000000   ; qtot 214.020342
 9749         ho    213    ccc    H26   9749 0.41908000   1.008000   ; qtot 214.439422
 9750         h1    213    ccc    H27   9750 0.08578000   1.008000   ; qtot 214.525202
 9751         oh    213    ccc     O9   9751 -0.58672000  16.000000   ; qtot 213.938482
 9752         ho    213    ccc    H28   9752 0.41908000   1.008000   ; qtot 214.357562
 9753         n3    213    ccc     N3   9753 -0.54282000  14.010000   ; qtot 213.814742
 9754         c3    213    ccc    C17   9754 0.08518000  12.010000   ; qtot 213.899922
 9755         c3    213    ccc    C18   9755 0.07918000  12.010000   ; qtot 213.979102
 9756         h1    213    ccc    H29   9756 0.06978000   1.008000   ; qtot 214.048882
 9757         c3    213    ccc    C19   9757 0.07918000  12.010000   ; qtot 214.128062
 9758         c3    213    ccc    C20   9758 0.03578000  12.010000   ; qtot 214.163842
 9759         c3    213    ccc    C21   9759 0.33498000  12.010000   ; qtot 214.498822
 9760         h1    213    ccc    H30   9760 0.06178000   1.008000   ; qtot 214.560602
 9761         h1    213    ccc    H31   9761 0.11278000   1.008000   ; qtot 214.673382
 9762         h2    213    ccc    H32   9762 0.12178000   1.008000   ; qtot 214.795162
 9763         oh    213    ccc    O10   9763 -0.56972000  16.000000   ; qtot 214.225442
 9764         oh    213    ccc    O11   9764 -0.57772000  16.000000   ; qtot 213.647722
 9765         c3    213    ccc    C22   9765 0.14548000  12.010000   ; qtot 213.793202
 9766         ho    213    ccc    H33   9766 0.40508000   1.008000   ; qtot 214.198282
 9767         hn    213    ccc    H34   9767 0.31758000   1.008000   ; qtot 214.515862
 9768         h1    213    ccc    H35   9768 0.06278000   1.008000   ; qtot 214.578642
 9769         h1    213    ccc    H36   9769 0.06278000   1.008000   ; qtot 214.641422
 9770         oh    213    ccc    O12   9770 -0.59472000  16.000000   ; qtot 214.046702
 9771         ho    213    ccc    H37   9771 0.41908000   1.008000   ; qtot 214.465782
 9772         os    213    ccc    O13   9772 -0.44552000  16.000000   ; qtot 214.020262
 9773         ho    213    ccc    H38   9773 0.41908000   1.008000   ; qtot 214.439342
 9774         h1    213    ccc    H39   9774 0.08578000   1.008000   ; qtot 214.525122
 9775         oh    213    ccc     O5   9775 -0.58672000  16.000000   ; qtot 213.938402
 9776         ho    213    ccc    H40   9776 0.41908000   1.008000   ; qtot 214.357482
 9777         n3    213    ccc     N4   9777 -0.54282000  14.010000   ; qtot 213.814662
 9778         hn    213    ccc    H41   9778 0.17125500   1.008000   ; qtot 213.985917
; residue  214 ccc rtp ccc q 1.0
 9779          n    214    ccc     N1   9779 -0.33303000  14.010000   ; qtot 213.652887
 9780         hn    214    ccc     H4   9780 0.25916100   1.008000   ; qtot 213.912048
 9781         c3    214    ccc     C3   9781 -0.03328100  12.010000   ; qtot 213.878767
 9782         h1    214    ccc     H5   9782 0.10618100   1.008000   ; qtot 213.984948
 9783         c3    214    ccc     C4   9783 -0.02083000  12.010000   ; qtot 213.964118
 9784         h1    214    ccc     H6   9784 0.10618100   1.008000   ; qtot 214.070299
 9785         h1    214    ccc     H7   9785 0.07988000   1.008000   ; qtot 214.150179
 9786         h1    214    ccc     H8   9786 0.07988000   1.008000   ; qtot 214.230059
 9787         n4    214    ccc     N2   9787 -0.02747900  14.010000   ; qtot 214.202580
 9788         c3    214    ccc     C5   9788 -0.05097600  12.010000   ; qtot 214.151604
 9789         c3    214    ccc     C6   9789 -0.05097600  12.010000   ; qtot 214.100628
 9790         h1    214    ccc     H9   9790 0.11563300   1.008000   ; qtot 214.216261
 9791         c3    214    ccc     C7   9791 -0.18457900  12.010000   ; qtot 214.031682
 9792         h1    214    ccc    H10   9792 0.11563300   1.008000   ; qtot 214.147315
 9793         hc    214    ccc    H11   9793 0.08347900   1.008000   ; qtot 214.230794
 9794         hc    214    ccc    H12   9794 0.08347900   1.008000   ; qtot 214.314273
 9795          c    214    ccc     C8   9795 0.67254400  12.010000   ; qtot 214.986817
 9796          o    214    ccc     O2   9796 -0.52917200  16.000000   ; qtot 214.457645
 9797         h1    214    ccc    H13   9797 0.11563300   1.008000   ; qtot 214.573278
 9798         h1    214    ccc    H14   9798 0.11563300   1.008000   ; qtot 214.688911
 9799         c3    214    ccc     C9   9799 -0.18457900  12.010000   ; qtot 214.504332
 9800         hc    214    ccc    H15   9800 0.08347900   1.008000   ; qtot 214.587811
 9801         hc    214    ccc    H16   9801 0.08347900   1.008000   ; qtot 214.671290
 9802          c    214    ccc    C10   9802 0.67254400  12.010000   ; qtot 215.343834
 9803          o    214    ccc     O4   9803 -0.52917200  16.000000   ; qtot 214.814662
 9804         c3    214    ccc    C11   9804 0.08518000  12.010000   ; qtot 214.899842
 9805         c3    214    ccc    C12   9805 0.07918000  12.010000   ; qtot 214.979022
 9806         h1    214    ccc    H17   9806 0.06978000   1.008000   ; qtot 215.048802
 9807         c3    214    ccc    C13   9807 0.07918000  12.010000   ; qtot 215.127982
 9808         c3    214    ccc    C14   9808 0.03578000  12.010000   ; qtot 215.163762
 9809         c3    214    ccc    C15   9809 0.33498000  12.010000   ; qtot 215.498742
 9810         h1    214    ccc    H18   9810 0.06178000   1.008000   ; qtot 215.560522
 9811         h1    214    ccc    H19   9811 0.11278000   1.008000   ; qtot 215.673302
 9812         h2    214    ccc    H20   9812 0.12178000   1.008000   ; qtot 215.795082
 9813         oh    214    ccc     O1   9813 -0.56972000  16.000000   ; qtot 215.225362
 9814         oh    214    ccc     O6   9814 -0.57772000  16.000000   ; qtot 214.647642
 9815         c3    214    ccc    C16   9815 0.14548000  12.010000   ; qtot 214.793122
 9816         ho    214    ccc    H21   9816 0.40508000   1.008000   ; qtot 215.198202
 9817         hn    214    ccc    H22   9817 0.31758000   1.008000   ; qtot 215.515782
 9818         h1    214    ccc    H23   9818 0.06278000   1.008000   ; qtot 215.578562
 9819         h1    214    ccc    H24   9819 0.06278000   1.008000   ; qtot 215.641342
 9820         oh    214    ccc     O7   9820 -0.59472000  16.000000   ; qtot 215.046622
 9821         ho    214    ccc    H25   9821 0.41908000   1.008000   ; qtot 215.465702
 9822         os    214    ccc     O8   9822 -0.44552000  16.000000   ; qtot 215.020182
 9823         ho    214    ccc    H26   9823 0.41908000   1.008000   ; qtot 215.439262
 9824         h1    214    ccc    H27   9824 0.08578000   1.008000   ; qtot 215.525042
 9825         oh    214    ccc     O9   9825 -0.58672000  16.000000   ; qtot 214.938322
 9826         ho    214    ccc    H28   9826 0.41908000   1.008000   ; qtot 215.357402
 9827         n3    214    ccc     N3   9827 -0.54282000  14.010000   ; qtot 214.814582
 9828         c3    214    ccc    C17   9828 0.08518000  12.010000   ; qtot 214.899762
 9829         c3    214    ccc    C18   9829 0.07918000  12.010000   ; qtot 214.978942
 9830         h1    214    ccc    H29   9830 0.06978000   1.008000   ; qtot 215.048722
 9831         c3    214    ccc    C19   9831 0.07918000  12.010000   ; qtot 215.127902
 9832         c3    214    ccc    C20   9832 0.03578000  12.010000   ; qtot 215.163682
 9833         c3    214    ccc    C21   9833 0.33498000  12.010000   ; qtot 215.498662
 9834         h1    214    ccc    H30   9834 0.06178000   1.008000   ; qtot 215.560442
 9835         h1    214    ccc    H31   9835 0.11278000   1.008000   ; qtot 215.673222
 9836         h2    214    ccc    H32   9836 0.12178000   1.008000   ; qtot 215.795002
 9837         oh    214    ccc    O10   9837 -0.56972000  16.000000   ; qtot 215.225282
 9838         oh    214    ccc    O11   9838 -0.57772000  16.000000   ; qtot 214.647562
 9839         c3    214    ccc    C22   9839 0.14548000  12.010000   ; qtot 214.793042
 9840         ho    214    ccc    H33   9840 0.40508000   1.008000   ; qtot 215.198122
 9841         hn    214    ccc    H34   9841 0.31758000   1.008000   ; qtot 215.515702
 9842         h1    214    ccc    H35   9842 0.06278000   1.008000   ; qtot 215.578482
 9843         h1    214    ccc    H36   9843 0.06278000   1.008000   ; qtot 215.641262
 9844         oh    214    ccc    O12   9844 -0.59472000  16.000000   ; qtot 215.046542
 9845         ho    214    ccc    H37   9845 0.41908000   1.008000   ; qtot 215.465622
 9846         os    214    ccc    O13   9846 -0.44552000  16.000000   ; qtot 215.020102
 9847         ho    214    ccc    H38   9847 0.41908000   1.008000   ; qtot 215.439182
 9848         h1    214    ccc    H39   9848 0.08578000   1.008000   ; qtot 215.524962
 9849         oh    214    ccc     O5   9849 -0.58672000  16.000000   ; qtot 214.938242
 9850         ho    214    ccc    H40   9850 0.41908000   1.008000   ; qtot 215.357322
 9851         n3    214    ccc     N4   9851 -0.54282000  14.010000   ; qtot 214.814502
 9852         hn    214    ccc    H41   9852 0.17125500   1.008000   ; qtot 214.985757
; residue  215 ccc rtp ccc q 1.0
 9853          n    215    ccc     N1   9853 -0.33303000  14.010000   ; qtot 214.652727
 9854         hn    215    ccc     H4   9854 0.25916100   1.008000   ; qtot 214.911888
 9855         c3    215    ccc     C3   9855 -0.03328100  12.010000   ; qtot 214.878607
 9856         h1    215    ccc     H5   9856 0.10618100   1.008000   ; qtot 214.984788
 9857         c3    215    ccc     C4   9857 -0.02083000  12.010000   ; qtot 214.963958
 9858         h1    215    ccc     H6   9858 0.10618100   1.008000   ; qtot 215.070139
 9859         h1    215    ccc     H7   9859 0.07988000   1.008000   ; qtot 215.150019
 9860         h1    215    ccc     H8   9860 0.07988000   1.008000   ; qtot 215.229899
 9861         n4    215    ccc     N2   9861 -0.02747900  14.010000   ; qtot 215.202420
 9862         c3    215    ccc     C5   9862 -0.05097600  12.010000   ; qtot 215.151444
 9863         c3    215    ccc     C6   9863 -0.05097600  12.010000   ; qtot 215.100468
 9864         h1    215    ccc     H9   9864 0.11563300   1.008000   ; qtot 215.216101
 9865         c3    215    ccc     C7   9865 -0.18457900  12.010000   ; qtot 215.031522
 9866         h1    215    ccc    H10   9866 0.11563300   1.008000   ; qtot 215.147155
 9867         hc    215    ccc    H11   9867 0.08347900   1.008000   ; qtot 215.230634
 9868         hc    215    ccc    H12   9868 0.08347900   1.008000   ; qtot 215.314113
 9869          c    215    ccc     C8   9869 0.67254400  12.010000   ; qtot 215.986657
 9870          o    215    ccc     O2   9870 -0.52917200  16.000000   ; qtot 215.457485
 9871         h1    215    ccc    H13   9871 0.11563300   1.008000   ; qtot 215.573118
 9872         h1    215    ccc    H14   9872 0.11563300   1.008000   ; qtot 215.688751
 9873         c3    215    ccc     C9   9873 -0.18457900  12.010000   ; qtot 215.504172
 9874         hc    215    ccc    H15   9874 0.08347900   1.008000   ; qtot 215.587651
 9875         hc    215    ccc    H16   9875 0.08347900   1.008000   ; qtot 215.671130
 9876          c    215    ccc    C10   9876 0.67254400  12.010000   ; qtot 216.343674
 9877          o    215    ccc     O4   9877 -0.52917200  16.000000   ; qtot 215.814502
 9878         c3    215    ccc    C11   9878 0.08518000  12.010000   ; qtot 215.899682
 9879         c3    215    ccc    C12   9879 0.07918000  12.010000   ; qtot 215.978862
 9880         h1    215    ccc    H17   9880 0.06978000   1.008000   ; qtot 216.048642
 9881         c3    215    ccc    C13   9881 0.07918000  12.010000   ; qtot 216.127822
 9882         c3    215    ccc    C14   9882 0.03578000  12.010000   ; qtot 216.163602
 9883         c3    215    ccc    C15   9883 0.33498000  12.010000   ; qtot 216.498582
 9884         h1    215    ccc    H18   9884 0.06178000   1.008000   ; qtot 216.560362
 9885         h1    215    ccc    H19   9885 0.11278000   1.008000   ; qtot 216.673142
 9886         h2    215    ccc    H20   9886 0.12178000   1.008000   ; qtot 216.794922
 9887         oh    215    ccc     O1   9887 -0.56972000  16.000000   ; qtot 216.225202
 9888         oh    215    ccc     O6   9888 -0.57772000  16.000000   ; qtot 215.647482
 9889         c3    215    ccc    C16   9889 0.14548000  12.010000   ; qtot 215.792962
 9890         ho    215    ccc    H21   9890 0.40508000   1.008000   ; qtot 216.198042
 9891         hn    215    ccc    H22   9891 0.31758000   1.008000   ; qtot 216.515622
 9892         h1    215    ccc    H23   9892 0.06278000   1.008000   ; qtot 216.578402
 9893         h1    215    ccc    H24   9893 0.06278000   1.008000   ; qtot 216.641182
 9894         oh    215    ccc     O7   9894 -0.59472000  16.000000   ; qtot 216.046462
 9895         ho    215    ccc    H25   9895 0.41908000   1.008000   ; qtot 216.465542
 9896         os    215    ccc     O8   9896 -0.44552000  16.000000   ; qtot 216.020022
 9897         ho    215    ccc    H26   9897 0.41908000   1.008000   ; qtot 216.439102
 9898         h1    215    ccc    H27   9898 0.08578000   1.008000   ; qtot 216.524882
 9899         oh    215    ccc     O9   9899 -0.58672000  16.000000   ; qtot 215.938162
 9900         ho    215    ccc    H28   9900 0.41908000   1.008000   ; qtot 216.357242
 9901         n3    215    ccc     N3   9901 -0.54282000  14.010000   ; qtot 215.814422
 9902         c3    215    ccc    C17   9902 0.08518000  12.010000   ; qtot 215.899602
 9903         c3    215    ccc    C18   9903 0.07918000  12.010000   ; qtot 215.978782
 9904         h1    215    ccc    H29   9904 0.06978000   1.008000   ; qtot 216.048562
 9905         c3    215    ccc    C19   9905 0.07918000  12.010000   ; qtot 216.127742
 9906         c3    215    ccc    C20   9906 0.03578000  12.010000   ; qtot 216.163522
 9907         c3    215    ccc    C21   9907 0.33498000  12.010000   ; qtot 216.498502
 9908         h1    215    ccc    H30   9908 0.06178000   1.008000   ; qtot 216.560282
 9909         h1    215    ccc    H31   9909 0.11278000   1.008000   ; qtot 216.673062
 9910         h2    215    ccc    H32   9910 0.12178000   1.008000   ; qtot 216.794842
 9911         oh    215    ccc    O10   9911 -0.56972000  16.000000   ; qtot 216.225122
 9912         oh    215    ccc    O11   9912 -0.57772000  16.000000   ; qtot 215.647402
 9913         c3    215    ccc    C22   9913 0.14548000  12.010000   ; qtot 215.792882
 9914         ho    215    ccc    H33   9914 0.40508000   1.008000   ; qtot 216.197962
 9915         hn    215    ccc    H34   9915 0.31758000   1.008000   ; qtot 216.515542
 9916         h1    215    ccc    H35   9916 0.06278000   1.008000   ; qtot 216.578322
 9917         h1    215    ccc    H36   9917 0.06278000   1.008000   ; qtot 216.641102
 9918         oh    215    ccc    O12   9918 -0.59472000  16.000000   ; qtot 216.046382
 9919         ho    215    ccc    H37   9919 0.41908000   1.008000   ; qtot 216.465462
 9920         os    215    ccc    O13   9920 -0.44552000  16.000000   ; qtot 216.019942
 9921         ho    215    ccc    H38   9921 0.41908000   1.008000   ; qtot 216.439022
 9922         h1    215    ccc    H39   9922 0.08578000   1.008000   ; qtot 216.524802
 9923         oh    215    ccc     O5   9923 -0.58672000  16.000000   ; qtot 215.938082
 9924         ho    215    ccc    H40   9924 0.41908000   1.008000   ; qtot 216.357162
 9925         n3    215    ccc     N4   9925 -0.54282000  14.010000   ; qtot 215.814342
 9926         hn    215    ccc    H41   9926 0.17125500   1.008000   ; qtot 215.985597
; residue  216 ccc rtp ccc q 1.0
 9927          n    216    ccc     N1   9927 -0.33303000  14.010000   ; qtot 215.652567
 9928         hn    216    ccc     H4   9928 0.25916100   1.008000   ; qtot 215.911728
 9929         c3    216    ccc     C3   9929 -0.03328100  12.010000   ; qtot 215.878447
 9930         h1    216    ccc     H5   9930 0.10618100   1.008000   ; qtot 215.984628
 9931         c3    216    ccc     C4   9931 -0.02083000  12.010000   ; qtot 215.963798
 9932         h1    216    ccc     H6   9932 0.10618100   1.008000   ; qtot 216.069979
 9933         h1    216    ccc     H7   9933 0.07988000   1.008000   ; qtot 216.149859
 9934         h1    216    ccc     H8   9934 0.07988000   1.008000   ; qtot 216.229739
 9935         n4    216    ccc     N2   9935 -0.02747900  14.010000   ; qtot 216.202260
 9936         c3    216    ccc     C5   9936 -0.05097600  12.010000   ; qtot 216.151284
 9937         c3    216    ccc     C6   9937 -0.05097600  12.010000   ; qtot 216.100308
 9938         h1    216    ccc     H9   9938 0.11563300   1.008000   ; qtot 216.215941
 9939         c3    216    ccc     C7   9939 -0.18457900  12.010000   ; qtot 216.031362
 9940         h1    216    ccc    H10   9940 0.11563300   1.008000   ; qtot 216.146995
 9941         hc    216    ccc    H11   9941 0.08347900   1.008000   ; qtot 216.230474
 9942         hc    216    ccc    H12   9942 0.08347900   1.008000   ; qtot 216.313953
 9943          c    216    ccc     C8   9943 0.67254400  12.010000   ; qtot 216.986497
 9944          o    216    ccc     O2   9944 -0.52917200  16.000000   ; qtot 216.457325
 9945         h1    216    ccc    H13   9945 0.11563300   1.008000   ; qtot 216.572958
 9946         h1    216    ccc    H14   9946 0.11563300   1.008000   ; qtot 216.688591
 9947         c3    216    ccc     C9   9947 -0.18457900  12.010000   ; qtot 216.504012
 9948         hc    216    ccc    H15   9948 0.08347900   1.008000   ; qtot 216.587491
 9949         hc    216    ccc    H16   9949 0.08347900   1.008000   ; qtot 216.670970
 9950          c    216    ccc    C10   9950 0.67254400  12.010000   ; qtot 217.343514
 9951          o    216    ccc     O4   9951 -0.52917200  16.000000   ; qtot 216.814342
 9952         c3    216    ccc    C11   9952 0.08518000  12.010000   ; qtot 216.899522
 9953         c3    216    ccc    C12   9953 0.07918000  12.010000   ; qtot 216.978702
 9954         h1    216    ccc    H17   9954 0.06978000   1.008000   ; qtot 217.048482
 9955         c3    216    ccc    C13   9955 0.07918000  12.010000   ; qtot 217.127662
 9956         c3    216    ccc    C14   9956 0.03578000  12.010000   ; qtot 217.163442
 9957         c3    216    ccc    C15   9957 0.33498000  12.010000   ; qtot 217.498422
 9958         h1    216    ccc    H18   9958 0.06178000   1.008000   ; qtot 217.560202
 9959         h1    216    ccc    H19   9959 0.11278000   1.008000   ; qtot 217.672982
 9960         h2    216    ccc    H20   9960 0.12178000   1.008000   ; qtot 217.794762
 9961         oh    216    ccc     O1   9961 -0.56972000  16.000000   ; qtot 217.225042
 9962         oh    216    ccc     O6   9962 -0.57772000  16.000000   ; qtot 216.647322
 9963         c3    216    ccc    C16   9963 0.14548000  12.010000   ; qtot 216.792802
 9964         ho    216    ccc    H21   9964 0.40508000   1.008000   ; qtot 217.197882
 9965         hn    216    ccc    H22   9965 0.31758000   1.008000   ; qtot 217.515462
 9966         h1    216    ccc    H23   9966 0.06278000   1.008000   ; qtot 217.578242
 9967         h1    216    ccc    H24   9967 0.06278000   1.008000   ; qtot 217.641022
 9968         oh    216    ccc     O7   9968 -0.59472000  16.000000   ; qtot 217.046302
 9969         ho    216    ccc    H25   9969 0.41908000   1.008000   ; qtot 217.465382
 9970         os    216    ccc     O8   9970 -0.44552000  16.000000   ; qtot 217.019862
 9971         ho    216    ccc    H26   9971 0.41908000   1.008000   ; qtot 217.438942
 9972         h1    216    ccc    H27   9972 0.08578000   1.008000   ; qtot 217.524722
 9973         oh    216    ccc     O9   9973 -0.58672000  16.000000   ; qtot 216.938002
 9974         ho    216    ccc    H28   9974 0.41908000   1.008000   ; qtot 217.357082
 9975         n3    216    ccc     N3   9975 -0.54282000  14.010000   ; qtot 216.814262
 9976         c3    216    ccc    C17   9976 0.08518000  12.010000   ; qtot 216.899442
 9977         c3    216    ccc    C18   9977 0.07918000  12.010000   ; qtot 216.978622
 9978         h1    216    ccc    H29   9978 0.06978000   1.008000   ; qtot 217.048402
 9979         c3    216    ccc    C19   9979 0.07918000  12.010000   ; qtot 217.127582
 9980         c3    216    ccc    C20   9980 0.03578000  12.010000   ; qtot 217.163362
 9981         c3    216    ccc    C21   9981 0.33498000  12.010000   ; qtot 217.498342
 9982         h1    216    ccc    H30   9982 0.06178000   1.008000   ; qtot 217.560122
 9983         h1    216    ccc    H31   9983 0.11278000   1.008000   ; qtot 217.672902
 9984         h2    216    ccc    H32   9984 0.12178000   1.008000   ; qtot 217.794682
 9985         oh    216    ccc    O10   9985 -0.56972000  16.000000   ; qtot 217.224962
 9986         oh    216    ccc    O11   9986 -0.57772000  16.000000   ; qtot 216.647242
 9987         c3    216    ccc    C22   9987 0.14548000  12.010000   ; qtot 216.792722
 9988         ho    216    ccc    H33   9988 0.40508000   1.008000   ; qtot 217.197802
 9989         hn    216    ccc    H34   9989 0.31758000   1.008000   ; qtot 217.515382
 9990         h1    216    ccc    H35   9990 0.06278000   1.008000   ; qtot 217.578162
 9991         h1    216    ccc    H36   9991 0.06278000   1.008000   ; qtot 217.640942
 9992         oh    216    ccc    O12   9992 -0.59472000  16.000000   ; qtot 217.046222
 9993         ho    216    ccc    H37   9993 0.41908000   1.008000   ; qtot 217.465302
 9994         os    216    ccc    O13   9994 -0.44552000  16.000000   ; qtot 217.019782
 9995         ho    216    ccc    H38   9995 0.41908000   1.008000   ; qtot 217.438862
 9996         h1    216    ccc    H39   9996 0.08578000   1.008000   ; qtot 217.524642
 9997         oh    216    ccc     O5   9997 -0.58672000  16.000000   ; qtot 216.937922
 9998         ho    216    ccc    H40   9998 0.41908000   1.008000   ; qtot 217.357002
 9999         n3    216    ccc     N4   9999 -0.54282000  14.010000   ; qtot 216.814182
10000         hn    216    ccc    H41  10000 0.17125500   1.008000   ; qtot 216.985437
; residue  217 ccc rtp ccc q 1.0
10001          n    217    ccc     N1  10001 -0.33303000  14.010000   ; qtot 216.652407
10002         hn    217    ccc     H4  10002 0.25916100   1.008000   ; qtot 216.911568
10003         c3    217    ccc     C3  10003 -0.03328100  12.010000   ; qtot 216.878287
10004         h1    217    ccc     H5  10004 0.10618100   1.008000   ; qtot 216.984468
10005         c3    217    ccc     C4  10005 -0.02083000  12.010000   ; qtot 216.963638
10006         h1    217    ccc     H6  10006 0.10618100   1.008000   ; qtot 217.069819
10007         h1    217    ccc     H7  10007 0.07988000   1.008000   ; qtot 217.149699
10008         h1    217    ccc     H8  10008 0.07988000   1.008000   ; qtot 217.229579
10009         n4    217    ccc     N2  10009 -0.02747900  14.010000   ; qtot 217.202100
10010         c3    217    ccc     C5  10010 -0.05097600  12.010000   ; qtot 217.151124
10011         c3    217    ccc     C6  10011 -0.05097600  12.010000   ; qtot 217.100148
10012         h1    217    ccc     H9  10012 0.11563300   1.008000   ; qtot 217.215781
10013         c3    217    ccc     C7  10013 -0.18457900  12.010000   ; qtot 217.031202
10014         h1    217    ccc    H10  10014 0.11563300   1.008000   ; qtot 217.146835
10015         hc    217    ccc    H11  10015 0.08347900   1.008000   ; qtot 217.230314
10016         hc    217    ccc    H12  10016 0.08347900   1.008000   ; qtot 217.313793
10017          c    217    ccc     C8  10017 0.67254400  12.010000   ; qtot 217.986337
10018          o    217    ccc     O2  10018 -0.52917200  16.000000   ; qtot 217.457165
10019         h1    217    ccc    H13  10019 0.11563300   1.008000   ; qtot 217.572798
10020         h1    217    ccc    H14  10020 0.11563300   1.008000   ; qtot 217.688431
10021         c3    217    ccc     C9  10021 -0.18457900  12.010000   ; qtot 217.503852
10022         hc    217    ccc    H15  10022 0.08347900   1.008000   ; qtot 217.587331
10023         hc    217    ccc    H16  10023 0.08347900   1.008000   ; qtot 217.670810
10024          c    217    ccc    C10  10024 0.67254400  12.010000   ; qtot 218.343354
10025          o    217    ccc     O4  10025 -0.52917200  16.000000   ; qtot 217.814182
10026         c3    217    ccc    C11  10026 0.08518000  12.010000   ; qtot 217.899362
10027         c3    217    ccc    C12  10027 0.07918000  12.010000   ; qtot 217.978542
10028         h1    217    ccc    H17  10028 0.06978000   1.008000   ; qtot 218.048322
10029         c3    217    ccc    C13  10029 0.07918000  12.010000   ; qtot 218.127502
10030         c3    217    ccc    C14  10030 0.03578000  12.010000   ; qtot 218.163282
10031         c3    217    ccc    C15  10031 0.33498000  12.010000   ; qtot 218.498262
10032         h1    217    ccc    H18  10032 0.06178000   1.008000   ; qtot 218.560042
10033         h1    217    ccc    H19  10033 0.11278000   1.008000   ; qtot 218.672822
10034         h2    217    ccc    H20  10034 0.12178000   1.008000   ; qtot 218.794602
10035         oh    217    ccc     O1  10035 -0.56972000  16.000000   ; qtot 218.224882
10036         oh    217    ccc     O6  10036 -0.57772000  16.000000   ; qtot 217.647162
10037         c3    217    ccc    C16  10037 0.14548000  12.010000   ; qtot 217.792642
10038         ho    217    ccc    H21  10038 0.40508000   1.008000   ; qtot 218.197722
10039         hn    217    ccc    H22  10039 0.31758000   1.008000   ; qtot 218.515302
10040         h1    217    ccc    H23  10040 0.06278000   1.008000   ; qtot 218.578082
10041         h1    217    ccc    H24  10041 0.06278000   1.008000   ; qtot 218.640862
10042         oh    217    ccc     O7  10042 -0.59472000  16.000000   ; qtot 218.046142
10043         ho    217    ccc    H25  10043 0.41908000   1.008000   ; qtot 218.465222
10044         os    217    ccc     O8  10044 -0.44552000  16.000000   ; qtot 218.019702
10045         ho    217    ccc    H26  10045 0.41908000   1.008000   ; qtot 218.438782
10046         h1    217    ccc    H27  10046 0.08578000   1.008000   ; qtot 218.524562
10047         oh    217    ccc     O9  10047 -0.58672000  16.000000   ; qtot 217.937842
10048         ho    217    ccc    H28  10048 0.41908000   1.008000   ; qtot 218.356922
10049         n3    217    ccc     N3  10049 -0.54282000  14.010000   ; qtot 217.814102
10050         c3    217    ccc    C17  10050 0.08518000  12.010000   ; qtot 217.899282
10051         c3    217    ccc    C18  10051 0.07918000  12.010000   ; qtot 217.978462
10052         h1    217    ccc    H29  10052 0.06978000   1.008000   ; qtot 218.048242
10053         c3    217    ccc    C19  10053 0.07918000  12.010000   ; qtot 218.127422
10054         c3    217    ccc    C20  10054 0.03578000  12.010000   ; qtot 218.163202
10055         c3    217    ccc    C21  10055 0.33498000  12.010000   ; qtot 218.498182
10056         h1    217    ccc    H30  10056 0.06178000   1.008000   ; qtot 218.559962
10057         h1    217    ccc    H31  10057 0.11278000   1.008000   ; qtot 218.672742
10058         h2    217    ccc    H32  10058 0.12178000   1.008000   ; qtot 218.794522
10059         oh    217    ccc    O10  10059 -0.56972000  16.000000   ; qtot 218.224802
10060         oh    217    ccc    O11  10060 -0.57772000  16.000000   ; qtot 217.647082
10061         c3    217    ccc    C22  10061 0.14548000  12.010000   ; qtot 217.792562
10062         ho    217    ccc    H33  10062 0.40508000   1.008000   ; qtot 218.197642
10063         hn    217    ccc    H34  10063 0.31758000   1.008000   ; qtot 218.515222
10064         h1    217    ccc    H35  10064 0.06278000   1.008000   ; qtot 218.578002
10065         h1    217    ccc    H36  10065 0.06278000   1.008000   ; qtot 218.640782
10066         oh    217    ccc    O12  10066 -0.59472000  16.000000   ; qtot 218.046062
10067         ho    217    ccc    H37  10067 0.41908000   1.008000   ; qtot 218.465142
10068         os    217    ccc    O13  10068 -0.44552000  16.000000   ; qtot 218.019622
10069         ho    217    ccc    H38  10069 0.41908000   1.008000   ; qtot 218.438702
10070         h1    217    ccc    H39  10070 0.08578000   1.008000   ; qtot 218.524482
10071         oh    217    ccc     O5  10071 -0.58672000  16.000000   ; qtot 217.937762
10072         ho    217    ccc    H40  10072 0.41908000   1.008000   ; qtot 218.356842
10073         n3    217    ccc     N4  10073 -0.54282000  14.010000   ; qtot 217.814022
10074         hn    217    ccc    H41  10074 0.17125500   1.008000   ; qtot 217.985277
; residue  218 ccc rtp ccc q 1.0
10075          n    218    ccc     N1  10075 -0.33303000  14.010000   ; qtot 217.652247
10076         hn    218    ccc     H4  10076 0.25916100   1.008000   ; qtot 217.911408
10077         c3    218    ccc     C3  10077 -0.03328100  12.010000   ; qtot 217.878127
10078         h1    218    ccc     H5  10078 0.10618100   1.008000   ; qtot 217.984308
10079         c3    218    ccc     C4  10079 -0.02083000  12.010000   ; qtot 217.963478
10080         h1    218    ccc     H6  10080 0.10618100   1.008000   ; qtot 218.069659
10081         h1    218    ccc     H7  10081 0.07988000   1.008000   ; qtot 218.149539
10082         h1    218    ccc     H8  10082 0.07988000   1.008000   ; qtot 218.229419
10083         n4    218    ccc     N2  10083 -0.02747900  14.010000   ; qtot 218.201940
10084         c3    218    ccc     C5  10084 -0.05097600  12.010000   ; qtot 218.150964
10085         c3    218    ccc     C6  10085 -0.05097600  12.010000   ; qtot 218.099988
10086         h1    218    ccc     H9  10086 0.11563300   1.008000   ; qtot 218.215621
10087         c3    218    ccc     C7  10087 -0.18457900  12.010000   ; qtot 218.031042
10088         h1    218    ccc    H10  10088 0.11563300   1.008000   ; qtot 218.146675
10089         hc    218    ccc    H11  10089 0.08347900   1.008000   ; qtot 218.230154
10090         hc    218    ccc    H12  10090 0.08347900   1.008000   ; qtot 218.313633
10091          c    218    ccc     C8  10091 0.67254400  12.010000   ; qtot 218.986177
10092          o    218    ccc     O2  10092 -0.52917200  16.000000   ; qtot 218.457005
10093         h1    218    ccc    H13  10093 0.11563300   1.008000   ; qtot 218.572638
10094         h1    218    ccc    H14  10094 0.11563300   1.008000   ; qtot 218.688271
10095         c3    218    ccc     C9  10095 -0.18457900  12.010000   ; qtot 218.503692
10096         hc    218    ccc    H15  10096 0.08347900   1.008000   ; qtot 218.587171
10097         hc    218    ccc    H16  10097 0.08347900   1.008000   ; qtot 218.670650
10098          c    218    ccc    C10  10098 0.67254400  12.010000   ; qtot 219.343194
10099          o    218    ccc     O4  10099 -0.52917200  16.000000   ; qtot 218.814022
10100         c3    218    ccc    C11  10100 0.08518000  12.010000   ; qtot 218.899202
10101         c3    218    ccc    C12  10101 0.07918000  12.010000   ; qtot 218.978382
10102         h1    218    ccc    H17  10102 0.06978000   1.008000   ; qtot 219.048162
10103         c3    218    ccc    C13  10103 0.07918000  12.010000   ; qtot 219.127342
10104         c3    218    ccc    C14  10104 0.03578000  12.010000   ; qtot 219.163122
10105         c3    218    ccc    C15  10105 0.33498000  12.010000   ; qtot 219.498102
10106         h1    218    ccc    H18  10106 0.06178000   1.008000   ; qtot 219.559882
10107         h1    218    ccc    H19  10107 0.11278000   1.008000   ; qtot 219.672662
10108         h2    218    ccc    H20  10108 0.12178000   1.008000   ; qtot 219.794442
10109         oh    218    ccc     O1  10109 -0.56972000  16.000000   ; qtot 219.224722
10110         oh    218    ccc     O6  10110 -0.57772000  16.000000   ; qtot 218.647002
10111         c3    218    ccc    C16  10111 0.14548000  12.010000   ; qtot 218.792482
10112         ho    218    ccc    H21  10112 0.40508000   1.008000   ; qtot 219.197562
10113         hn    218    ccc    H22  10113 0.31758000   1.008000   ; qtot 219.515142
10114         h1    218    ccc    H23  10114 0.06278000   1.008000   ; qtot 219.577922
10115         h1    218    ccc    H24  10115 0.06278000   1.008000   ; qtot 219.640702
10116         oh    218    ccc     O7  10116 -0.59472000  16.000000   ; qtot 219.045982
10117         ho    218    ccc    H25  10117 0.41908000   1.008000   ; qtot 219.465062
10118         os    218    ccc     O8  10118 -0.44552000  16.000000   ; qtot 219.019542
10119         ho    218    ccc    H26  10119 0.41908000   1.008000   ; qtot 219.438622
10120         h1    218    ccc    H27  10120 0.08578000   1.008000   ; qtot 219.524402
10121         oh    218    ccc     O9  10121 -0.58672000  16.000000   ; qtot 218.937682
10122         ho    218    ccc    H28  10122 0.41908000   1.008000   ; qtot 219.356762
10123         n3    218    ccc     N3  10123 -0.54282000  14.010000   ; qtot 218.813942
10124         c3    218    ccc    C17  10124 0.08518000  12.010000   ; qtot 218.899122
10125         c3    218    ccc    C18  10125 0.07918000  12.010000   ; qtot 218.978302
10126         h1    218    ccc    H29  10126 0.06978000   1.008000   ; qtot 219.048082
10127         c3    218    ccc    C19  10127 0.07918000  12.010000   ; qtot 219.127262
10128         c3    218    ccc    C20  10128 0.03578000  12.010000   ; qtot 219.163042
10129         c3    218    ccc    C21  10129 0.33498000  12.010000   ; qtot 219.498022
10130         h1    218    ccc    H30  10130 0.06178000   1.008000   ; qtot 219.559802
10131         h1    218    ccc    H31  10131 0.11278000   1.008000   ; qtot 219.672582
10132         h2    218    ccc    H32  10132 0.12178000   1.008000   ; qtot 219.794362
10133         oh    218    ccc    O10  10133 -0.56972000  16.000000   ; qtot 219.224642
10134         oh    218    ccc    O11  10134 -0.57772000  16.000000   ; qtot 218.646922
10135         c3    218    ccc    C22  10135 0.14548000  12.010000   ; qtot 218.792402
10136         ho    218    ccc    H33  10136 0.40508000   1.008000   ; qtot 219.197482
10137         hn    218    ccc    H34  10137 0.31758000   1.008000   ; qtot 219.515062
10138         h1    218    ccc    H35  10138 0.06278000   1.008000   ; qtot 219.577842
10139         h1    218    ccc    H36  10139 0.06278000   1.008000   ; qtot 219.640622
10140         oh    218    ccc    O12  10140 -0.59472000  16.000000   ; qtot 219.045902
10141         ho    218    ccc    H37  10141 0.41908000   1.008000   ; qtot 219.464982
10142         os    218    ccc    O13  10142 -0.44552000  16.000000   ; qtot 219.019462
10143         ho    218    ccc    H38  10143 0.41908000   1.008000   ; qtot 219.438542
10144         h1    218    ccc    H39  10144 0.08578000   1.008000   ; qtot 219.524322
10145         oh    218    ccc     O5  10145 -0.58672000  16.000000   ; qtot 218.937602
10146         ho    218    ccc    H40  10146 0.41908000   1.008000   ; qtot 219.356682
10147         n3    218    ccc     N4  10147 -0.54282000  14.010000   ; qtot 218.813862
10148         hn    218    ccc    H41  10148 0.17125500   1.008000   ; qtot 218.985117
; residue  219 ccc rtp ccc q 1.0
10149          n    219    ccc     N1  10149 -0.33303000  14.010000   ; qtot 218.652087
10150         hn    219    ccc     H4  10150 0.25916100   1.008000   ; qtot 218.911248
10151         c3    219    ccc     C3  10151 -0.03328100  12.010000   ; qtot 218.877967
10152         h1    219    ccc     H5  10152 0.10618100   1.008000   ; qtot 218.984148
10153         c3    219    ccc     C4  10153 -0.02083000  12.010000   ; qtot 218.963318
10154         h1    219    ccc     H6  10154 0.10618100   1.008000   ; qtot 219.069499
10155         h1    219    ccc     H7  10155 0.07988000   1.008000   ; qtot 219.149379
10156         h1    219    ccc     H8  10156 0.07988000   1.008000   ; qtot 219.229259
10157         n4    219    ccc     N2  10157 -0.02747900  14.010000   ; qtot 219.201780
10158         c3    219    ccc     C5  10158 -0.05097600  12.010000   ; qtot 219.150804
10159         c3    219    ccc     C6  10159 -0.05097600  12.010000   ; qtot 219.099828
10160         h1    219    ccc     H9  10160 0.11563300   1.008000   ; qtot 219.215461
10161         c3    219    ccc     C7  10161 -0.18457900  12.010000   ; qtot 219.030882
10162         h1    219    ccc    H10  10162 0.11563300   1.008000   ; qtot 219.146515
10163         hc    219    ccc    H11  10163 0.08347900   1.008000   ; qtot 219.229994
10164         hc    219    ccc    H12  10164 0.08347900   1.008000   ; qtot 219.313473
10165          c    219    ccc     C8  10165 0.67254400  12.010000   ; qtot 219.986017
10166          o    219    ccc     O2  10166 -0.52917200  16.000000   ; qtot 219.456845
10167         h1    219    ccc    H13  10167 0.11563300   1.008000   ; qtot 219.572478
10168         h1    219    ccc    H14  10168 0.11563300   1.008000   ; qtot 219.688111
10169         c3    219    ccc     C9  10169 -0.18457900  12.010000   ; qtot 219.503532
10170         hc    219    ccc    H15  10170 0.08347900   1.008000   ; qtot 219.587011
10171         hc    219    ccc    H16  10171 0.08347900   1.008000   ; qtot 219.670490
10172          c    219    ccc    C10  10172 0.67254400  12.010000   ; qtot 220.343034
10173          o    219    ccc     O4  10173 -0.52917200  16.000000   ; qtot 219.813862
10174         c3    219    ccc    C11  10174 0.08518000  12.010000   ; qtot 219.899042
10175         c3    219    ccc    C12  10175 0.07918000  12.010000   ; qtot 219.978222
10176         h1    219    ccc    H17  10176 0.06978000   1.008000   ; qtot 220.048002
10177         c3    219    ccc    C13  10177 0.07918000  12.010000   ; qtot 220.127182
10178         c3    219    ccc    C14  10178 0.03578000  12.010000   ; qtot 220.162962
10179         c3    219    ccc    C15  10179 0.33498000  12.010000   ; qtot 220.497942
10180         h1    219    ccc    H18  10180 0.06178000   1.008000   ; qtot 220.559722
10181         h1    219    ccc    H19  10181 0.11278000   1.008000   ; qtot 220.672502
10182         h2    219    ccc    H20  10182 0.12178000   1.008000   ; qtot 220.794282
10183         oh    219    ccc     O1  10183 -0.56972000  16.000000   ; qtot 220.224562
10184         oh    219    ccc     O6  10184 -0.57772000  16.000000   ; qtot 219.646842
10185         c3    219    ccc    C16  10185 0.14548000  12.010000   ; qtot 219.792322
10186         ho    219    ccc    H21  10186 0.40508000   1.008000   ; qtot 220.197402
10187         hn    219    ccc    H22  10187 0.31758000   1.008000   ; qtot 220.514982
10188         h1    219    ccc    H23  10188 0.06278000   1.008000   ; qtot 220.577762
10189         h1    219    ccc    H24  10189 0.06278000   1.008000   ; qtot 220.640542
10190         oh    219    ccc     O7  10190 -0.59472000  16.000000   ; qtot 220.045822
10191         ho    219    ccc    H25  10191 0.41908000   1.008000   ; qtot 220.464902
10192         os    219    ccc     O8  10192 -0.44552000  16.000000   ; qtot 220.019382
10193         ho    219    ccc    H26  10193 0.41908000   1.008000   ; qtot 220.438462
10194         h1    219    ccc    H27  10194 0.08578000   1.008000   ; qtot 220.524242
10195         oh    219    ccc     O9  10195 -0.58672000  16.000000   ; qtot 219.937522
10196         ho    219    ccc    H28  10196 0.41908000   1.008000   ; qtot 220.356602
10197         n3    219    ccc     N3  10197 -0.54282000  14.010000   ; qtot 219.813782
10198         c3    219    ccc    C17  10198 0.08518000  12.010000   ; qtot 219.898962
10199         c3    219    ccc    C18  10199 0.07918000  12.010000   ; qtot 219.978142
10200         h1    219    ccc    H29  10200 0.06978000   1.008000   ; qtot 220.047922
10201         c3    219    ccc    C19  10201 0.07918000  12.010000   ; qtot 220.127102
10202         c3    219    ccc    C20  10202 0.03578000  12.010000   ; qtot 220.162882
10203         c3    219    ccc    C21  10203 0.33498000  12.010000   ; qtot 220.497862
10204         h1    219    ccc    H30  10204 0.06178000   1.008000   ; qtot 220.559642
10205         h1    219    ccc    H31  10205 0.11278000   1.008000   ; qtot 220.672422
10206         h2    219    ccc    H32  10206 0.12178000   1.008000   ; qtot 220.794202
10207         oh    219    ccc    O10  10207 -0.56972000  16.000000   ; qtot 220.224482
10208         oh    219    ccc    O11  10208 -0.57772000  16.000000   ; qtot 219.646762
10209         c3    219    ccc    C22  10209 0.14548000  12.010000   ; qtot 219.792242
10210         ho    219    ccc    H33  10210 0.40508000   1.008000   ; qtot 220.197322
10211         hn    219    ccc    H34  10211 0.31758000   1.008000   ; qtot 220.514902
10212         h1    219    ccc    H35  10212 0.06278000   1.008000   ; qtot 220.577682
10213         h1    219    ccc    H36  10213 0.06278000   1.008000   ; qtot 220.640462
10214         oh    219    ccc    O12  10214 -0.59472000  16.000000   ; qtot 220.045742
10215         ho    219    ccc    H37  10215 0.41908000   1.008000   ; qtot 220.464822
10216         os    219    ccc    O13  10216 -0.44552000  16.000000   ; qtot 220.019302
10217         ho    219    ccc    H38  10217 0.41908000   1.008000   ; qtot 220.438382
10218         h1    219    ccc    H39  10218 0.08578000   1.008000   ; qtot 220.524162
10219         oh    219    ccc     O5  10219 -0.58672000  16.000000   ; qtot 219.937442
10220         ho    219    ccc    H40  10220 0.41908000   1.008000   ; qtot 220.356522
10221         n3    219    ccc     N4  10221 -0.54282000  14.010000   ; qtot 219.813702
10222         hn    219    ccc    H41  10222 0.17125500   1.008000   ; qtot 219.984957
; residue  220 ccc rtp ccc q 1.0
10223          n    220    ccc     N1  10223 -0.33303000  14.010000   ; qtot 219.651927
10224         hn    220    ccc     H4  10224 0.25916100   1.008000   ; qtot 219.911088
10225         c3    220    ccc     C3  10225 -0.03328100  12.010000   ; qtot 219.877807
10226         h1    220    ccc     H5  10226 0.10618100   1.008000   ; qtot 219.983988
10227         c3    220    ccc     C4  10227 -0.02083000  12.010000   ; qtot 219.963158
10228         h1    220    ccc     H6  10228 0.10618100   1.008000   ; qtot 220.069339
10229         h1    220    ccc     H7  10229 0.07988000   1.008000   ; qtot 220.149219
10230         h1    220    ccc     H8  10230 0.07988000   1.008000   ; qtot 220.229099
10231         n4    220    ccc     N2  10231 -0.02747900  14.010000   ; qtot 220.201620
10232         c3    220    ccc     C5  10232 -0.05097600  12.010000   ; qtot 220.150644
10233         c3    220    ccc     C6  10233 -0.05097600  12.010000   ; qtot 220.099668
10234         h1    220    ccc     H9  10234 0.11563300   1.008000   ; qtot 220.215301
10235         c3    220    ccc     C7  10235 -0.18457900  12.010000   ; qtot 220.030722
10236         h1    220    ccc    H10  10236 0.11563300   1.008000   ; qtot 220.146355
10237         hc    220    ccc    H11  10237 0.08347900   1.008000   ; qtot 220.229834
10238         hc    220    ccc    H12  10238 0.08347900   1.008000   ; qtot 220.313313
10239          c    220    ccc     C8  10239 0.67254400  12.010000   ; qtot 220.985857
10240          o    220    ccc     O2  10240 -0.52917200  16.000000   ; qtot 220.456685
10241         h1    220    ccc    H13  10241 0.11563300   1.008000   ; qtot 220.572318
10242         h1    220    ccc    H14  10242 0.11563300   1.008000   ; qtot 220.687951
10243         c3    220    ccc     C9  10243 -0.18457900  12.010000   ; qtot 220.503372
10244         hc    220    ccc    H15  10244 0.08347900   1.008000   ; qtot 220.586851
10245         hc    220    ccc    H16  10245 0.08347900   1.008000   ; qtot 220.670330
10246          c    220    ccc    C10  10246 0.67254400  12.010000   ; qtot 221.342874
10247          o    220    ccc     O4  10247 -0.52917200  16.000000   ; qtot 220.813702
10248         c3    220    ccc    C11  10248 0.08518000  12.010000   ; qtot 220.898882
10249         c3    220    ccc    C12  10249 0.07918000  12.010000   ; qtot 220.978062
10250         h1    220    ccc    H17  10250 0.06978000   1.008000   ; qtot 221.047842
10251         c3    220    ccc    C13  10251 0.07918000  12.010000   ; qtot 221.127022
10252         c3    220    ccc    C14  10252 0.03578000  12.010000   ; qtot 221.162802
10253         c3    220    ccc    C15  10253 0.33498000  12.010000   ; qtot 221.497782
10254         h1    220    ccc    H18  10254 0.06178000   1.008000   ; qtot 221.559562
10255         h1    220    ccc    H19  10255 0.11278000   1.008000   ; qtot 221.672342
10256         h2    220    ccc    H20  10256 0.12178000   1.008000   ; qtot 221.794122
10257         oh    220    ccc     O1  10257 -0.56972000  16.000000   ; qtot 221.224402
10258         oh    220    ccc     O6  10258 -0.57772000  16.000000   ; qtot 220.646682
10259         c3    220    ccc    C16  10259 0.14548000  12.010000   ; qtot 220.792162
10260         ho    220    ccc    H21  10260 0.40508000   1.008000   ; qtot 221.197242
10261         hn    220    ccc    H22  10261 0.31758000   1.008000   ; qtot 221.514822
10262         h1    220    ccc    H23  10262 0.06278000   1.008000   ; qtot 221.577602
10263         h1    220    ccc    H24  10263 0.06278000   1.008000   ; qtot 221.640382
10264         oh    220    ccc     O7  10264 -0.59472000  16.000000   ; qtot 221.045662
10265         ho    220    ccc    H25  10265 0.41908000   1.008000   ; qtot 221.464742
10266         os    220    ccc     O8  10266 -0.44552000  16.000000   ; qtot 221.019222
10267         ho    220    ccc    H26  10267 0.41908000   1.008000   ; qtot 221.438302
10268         h1    220    ccc    H27  10268 0.08578000   1.008000   ; qtot 221.524082
10269         oh    220    ccc     O9  10269 -0.58672000  16.000000   ; qtot 220.937362
10270         ho    220    ccc    H28  10270 0.41908000   1.008000   ; qtot 221.356442
10271         n3    220    ccc     N3  10271 -0.54282000  14.010000   ; qtot 220.813622
10272         c3    220    ccc    C17  10272 0.08518000  12.010000   ; qtot 220.898802
10273         c3    220    ccc    C18  10273 0.07918000  12.010000   ; qtot 220.977982
10274         h1    220    ccc    H29  10274 0.06978000   1.008000   ; qtot 221.047762
10275         c3    220    ccc    C19  10275 0.07918000  12.010000   ; qtot 221.126942
10276         c3    220    ccc    C20  10276 0.03578000  12.010000   ; qtot 221.162722
10277         c3    220    ccc    C21  10277 0.33498000  12.010000   ; qtot 221.497702
10278         h1    220    ccc    H30  10278 0.06178000   1.008000   ; qtot 221.559482
10279         h1    220    ccc    H31  10279 0.11278000   1.008000   ; qtot 221.672262
10280         h2    220    ccc    H32  10280 0.12178000   1.008000   ; qtot 221.794042
10281         oh    220    ccc    O10  10281 -0.56972000  16.000000   ; qtot 221.224322
10282         oh    220    ccc    O11  10282 -0.57772000  16.000000   ; qtot 220.646602
10283         c3    220    ccc    C22  10283 0.14548000  12.010000   ; qtot 220.792082
10284         ho    220    ccc    H33  10284 0.40508000   1.008000   ; qtot 221.197162
10285         hn    220    ccc    H34  10285 0.31758000   1.008000   ; qtot 221.514742
10286         h1    220    ccc    H35  10286 0.06278000   1.008000   ; qtot 221.577522
10287         h1    220    ccc    H36  10287 0.06278000   1.008000   ; qtot 221.640302
10288         oh    220    ccc    O12  10288 -0.59472000  16.000000   ; qtot 221.045582
10289         ho    220    ccc    H37  10289 0.41908000   1.008000   ; qtot 221.464662
10290         os    220    ccc    O13  10290 -0.44552000  16.000000   ; qtot 221.019142
10291         ho    220    ccc    H38  10291 0.41908000   1.008000   ; qtot 221.438222
10292         h1    220    ccc    H39  10292 0.08578000   1.008000   ; qtot 221.524002
10293         oh    220    ccc     O5  10293 -0.58672000  16.000000   ; qtot 220.937282
10294         ho    220    ccc    H40  10294 0.41908000   1.008000   ; qtot 221.356362
10295         n3    220    ccc     N4  10295 -0.54282000  14.010000   ; qtot 220.813542
10296         hn    220    ccc    H41  10296 0.17125500   1.008000   ; qtot 220.984797
; residue  221 ccc rtp ccc q 1.0
10297          n    221    ccc     N1  10297 -0.33303000  14.010000   ; qtot 220.651767
10298         hn    221    ccc     H4  10298 0.25916100   1.008000   ; qtot 220.910928
10299         c3    221    ccc     C3  10299 -0.03328100  12.010000   ; qtot 220.877647
10300         h1    221    ccc     H5  10300 0.10618100   1.008000   ; qtot 220.983828
10301         c3    221    ccc     C4  10301 -0.02083000  12.010000   ; qtot 220.962998
10302         h1    221    ccc     H6  10302 0.10618100   1.008000   ; qtot 221.069179
10303         h1    221    ccc     H7  10303 0.07988000   1.008000   ; qtot 221.149059
10304         h1    221    ccc     H8  10304 0.07988000   1.008000   ; qtot 221.228939
10305         n4    221    ccc     N2  10305 -0.02747900  14.010000   ; qtot 221.201460
10306         c3    221    ccc     C5  10306 -0.05097600  12.010000   ; qtot 221.150484
10307         c3    221    ccc     C6  10307 -0.05097600  12.010000   ; qtot 221.099508
10308         h1    221    ccc     H9  10308 0.11563300   1.008000   ; qtot 221.215141
10309         c3    221    ccc     C7  10309 -0.18457900  12.010000   ; qtot 221.030562
10310         h1    221    ccc    H10  10310 0.11563300   1.008000   ; qtot 221.146195
10311         hc    221    ccc    H11  10311 0.08347900   1.008000   ; qtot 221.229674
10312         hc    221    ccc    H12  10312 0.08347900   1.008000   ; qtot 221.313153
10313          c    221    ccc     C8  10313 0.67254400  12.010000   ; qtot 221.985697
10314          o    221    ccc     O2  10314 -0.52917200  16.000000   ; qtot 221.456525
10315         h1    221    ccc    H13  10315 0.11563300   1.008000   ; qtot 221.572158
10316         h1    221    ccc    H14  10316 0.11563300   1.008000   ; qtot 221.687791
10317         c3    221    ccc     C9  10317 -0.18457900  12.010000   ; qtot 221.503212
10318         hc    221    ccc    H15  10318 0.08347900   1.008000   ; qtot 221.586691
10319         hc    221    ccc    H16  10319 0.08347900   1.008000   ; qtot 221.670170
10320          c    221    ccc    C10  10320 0.67254400  12.010000   ; qtot 222.342714
10321          o    221    ccc     O4  10321 -0.52917200  16.000000   ; qtot 221.813542
10322         c3    221    ccc    C11  10322 0.08518000  12.010000   ; qtot 221.898722
10323         c3    221    ccc    C12  10323 0.07918000  12.010000   ; qtot 221.977902
10324         h1    221    ccc    H17  10324 0.06978000   1.008000   ; qtot 222.047682
10325         c3    221    ccc    C13  10325 0.07918000  12.010000   ; qtot 222.126862
10326         c3    221    ccc    C14  10326 0.03578000  12.010000   ; qtot 222.162642
10327         c3    221    ccc    C15  10327 0.33498000  12.010000   ; qtot 222.497622
10328         h1    221    ccc    H18  10328 0.06178000   1.008000   ; qtot 222.559402
10329         h1    221    ccc    H19  10329 0.11278000   1.008000   ; qtot 222.672182
10330         h2    221    ccc    H20  10330 0.12178000   1.008000   ; qtot 222.793962
10331         oh    221    ccc     O1  10331 -0.56972000  16.000000   ; qtot 222.224242
10332         oh    221    ccc     O6  10332 -0.57772000  16.000000   ; qtot 221.646522
10333         c3    221    ccc    C16  10333 0.14548000  12.010000   ; qtot 221.792002
10334         ho    221    ccc    H21  10334 0.40508000   1.008000   ; qtot 222.197082
10335         hn    221    ccc    H22  10335 0.31758000   1.008000   ; qtot 222.514662
10336         h1    221    ccc    H23  10336 0.06278000   1.008000   ; qtot 222.577442
10337         h1    221    ccc    H24  10337 0.06278000   1.008000   ; qtot 222.640222
10338         oh    221    ccc     O7  10338 -0.59472000  16.000000   ; qtot 222.045502
10339         ho    221    ccc    H25  10339 0.41908000   1.008000   ; qtot 222.464582
10340         os    221    ccc     O8  10340 -0.44552000  16.000000   ; qtot 222.019062
10341         ho    221    ccc    H26  10341 0.41908000   1.008000   ; qtot 222.438142
10342         h1    221    ccc    H27  10342 0.08578000   1.008000   ; qtot 222.523922
10343         oh    221    ccc     O9  10343 -0.58672000  16.000000   ; qtot 221.937202
10344         ho    221    ccc    H28  10344 0.41908000   1.008000   ; qtot 222.356282
10345         n3    221    ccc     N3  10345 -0.54282000  14.010000   ; qtot 221.813462
10346         c3    221    ccc    C17  10346 0.08518000  12.010000   ; qtot 221.898642
10347         c3    221    ccc    C18  10347 0.07918000  12.010000   ; qtot 221.977822
10348         h1    221    ccc    H29  10348 0.06978000   1.008000   ; qtot 222.047602
10349         c3    221    ccc    C19  10349 0.07918000  12.010000   ; qtot 222.126782
10350         c3    221    ccc    C20  10350 0.03578000  12.010000   ; qtot 222.162562
10351         c3    221    ccc    C21  10351 0.33498000  12.010000   ; qtot 222.497542
10352         h1    221    ccc    H30  10352 0.06178000   1.008000   ; qtot 222.559322
10353         h1    221    ccc    H31  10353 0.11278000   1.008000   ; qtot 222.672102
10354         h2    221    ccc    H32  10354 0.12178000   1.008000   ; qtot 222.793882
10355         oh    221    ccc    O10  10355 -0.56972000  16.000000   ; qtot 222.224162
10356         oh    221    ccc    O11  10356 -0.57772000  16.000000   ; qtot 221.646442
10357         c3    221    ccc    C22  10357 0.14548000  12.010000   ; qtot 221.791922
10358         ho    221    ccc    H33  10358 0.40508000   1.008000   ; qtot 222.197002
10359         hn    221    ccc    H34  10359 0.31758000   1.008000   ; qtot 222.514582
10360         h1    221    ccc    H35  10360 0.06278000   1.008000   ; qtot 222.577362
10361         h1    221    ccc    H36  10361 0.06278000   1.008000   ; qtot 222.640142
10362         oh    221    ccc    O12  10362 -0.59472000  16.000000   ; qtot 222.045422
10363         ho    221    ccc    H37  10363 0.41908000   1.008000   ; qtot 222.464502
10364         os    221    ccc    O13  10364 -0.44552000  16.000000   ; qtot 222.018982
10365         ho    221    ccc    H38  10365 0.41908000   1.008000   ; qtot 222.438062
10366         h1    221    ccc    H39  10366 0.08578000   1.008000   ; qtot 222.523842
10367         oh    221    ccc     O5  10367 -0.58672000  16.000000   ; qtot 221.937122
10368         ho    221    ccc    H40  10368 0.41908000   1.008000   ; qtot 222.356202
10369         n3    221    ccc     N4  10369 -0.54282000  14.010000   ; qtot 221.813382
10370         hn    221    ccc    H41  10370 0.17125500   1.008000   ; qtot 221.984637
; residue  222 ccc rtp ccc q 1.0
10371          n    222    ccc     N1  10371 -0.33303000  14.010000   ; qtot 221.651607
10372         hn    222    ccc     H4  10372 0.25916100   1.008000   ; qtot 221.910768
10373         c3    222    ccc     C3  10373 -0.03328100  12.010000   ; qtot 221.877487
10374         h1    222    ccc     H5  10374 0.10618100   1.008000   ; qtot 221.983668
10375         c3    222    ccc     C4  10375 -0.02083000  12.010000   ; qtot 221.962838
10376         h1    222    ccc     H6  10376 0.10618100   1.008000   ; qtot 222.069019
10377         h1    222    ccc     H7  10377 0.07988000   1.008000   ; qtot 222.148899
10378         h1    222    ccc     H8  10378 0.07988000   1.008000   ; qtot 222.228779
10379         n4    222    ccc     N2  10379 -0.02747900  14.010000   ; qtot 222.201300
10380         c3    222    ccc     C5  10380 -0.05097600  12.010000   ; qtot 222.150324
10381         c3    222    ccc     C6  10381 -0.05097600  12.010000   ; qtot 222.099348
10382         h1    222    ccc     H9  10382 0.11563300   1.008000   ; qtot 222.214981
10383         c3    222    ccc     C7  10383 -0.18457900  12.010000   ; qtot 222.030402
10384         h1    222    ccc    H10  10384 0.11563300   1.008000   ; qtot 222.146035
10385         hc    222    ccc    H11  10385 0.08347900   1.008000   ; qtot 222.229514
10386         hc    222    ccc    H12  10386 0.08347900   1.008000   ; qtot 222.312993
10387          c    222    ccc     C8  10387 0.67254400  12.010000   ; qtot 222.985537
10388          o    222    ccc     O2  10388 -0.52917200  16.000000   ; qtot 222.456365
10389         h1    222    ccc    H13  10389 0.11563300   1.008000   ; qtot 222.571998
10390         h1    222    ccc    H14  10390 0.11563300   1.008000   ; qtot 222.687631
10391         c3    222    ccc     C9  10391 -0.18457900  12.010000   ; qtot 222.503052
10392         hc    222    ccc    H15  10392 0.08347900   1.008000   ; qtot 222.586531
10393         hc    222    ccc    H16  10393 0.08347900   1.008000   ; qtot 222.670010
10394          c    222    ccc    C10  10394 0.67254400  12.010000   ; qtot 223.342554
10395          o    222    ccc     O4  10395 -0.52917200  16.000000   ; qtot 222.813382
10396         c3    222    ccc    C11  10396 0.08518000  12.010000   ; qtot 222.898562
10397         c3    222    ccc    C12  10397 0.07918000  12.010000   ; qtot 222.977742
10398         h1    222    ccc    H17  10398 0.06978000   1.008000   ; qtot 223.047522
10399         c3    222    ccc    C13  10399 0.07918000  12.010000   ; qtot 223.126702
10400         c3    222    ccc    C14  10400 0.03578000  12.010000   ; qtot 223.162482
10401         c3    222    ccc    C15  10401 0.33498000  12.010000   ; qtot 223.497462
10402         h1    222    ccc    H18  10402 0.06178000   1.008000   ; qtot 223.559242
10403         h1    222    ccc    H19  10403 0.11278000   1.008000   ; qtot 223.672022
10404         h2    222    ccc    H20  10404 0.12178000   1.008000   ; qtot 223.793802
10405         oh    222    ccc     O1  10405 -0.56972000  16.000000   ; qtot 223.224082
10406         oh    222    ccc     O6  10406 -0.57772000  16.000000   ; qtot 222.646362
10407         c3    222    ccc    C16  10407 0.14548000  12.010000   ; qtot 222.791842
10408         ho    222    ccc    H21  10408 0.40508000   1.008000   ; qtot 223.196922
10409         hn    222    ccc    H22  10409 0.31758000   1.008000   ; qtot 223.514502
10410         h1    222    ccc    H23  10410 0.06278000   1.008000   ; qtot 223.577282
10411         h1    222    ccc    H24  10411 0.06278000   1.008000   ; qtot 223.640062
10412         oh    222    ccc     O7  10412 -0.59472000  16.000000   ; qtot 223.045342
10413         ho    222    ccc    H25  10413 0.41908000   1.008000   ; qtot 223.464422
10414         os    222    ccc     O8  10414 -0.44552000  16.000000   ; qtot 223.018902
10415         ho    222    ccc    H26  10415 0.41908000   1.008000   ; qtot 223.437982
10416         h1    222    ccc    H27  10416 0.08578000   1.008000   ; qtot 223.523762
10417         oh    222    ccc     O9  10417 -0.58672000  16.000000   ; qtot 222.937042
10418         ho    222    ccc    H28  10418 0.41908000   1.008000   ; qtot 223.356122
10419         n3    222    ccc     N3  10419 -0.54282000  14.010000   ; qtot 222.813302
10420         c3    222    ccc    C17  10420 0.08518000  12.010000   ; qtot 222.898482
10421         c3    222    ccc    C18  10421 0.07918000  12.010000   ; qtot 222.977662
10422         h1    222    ccc    H29  10422 0.06978000   1.008000   ; qtot 223.047442
10423         c3    222    ccc    C19  10423 0.07918000  12.010000   ; qtot 223.126622
10424         c3    222    ccc    C20  10424 0.03578000  12.010000   ; qtot 223.162402
10425         c3    222    ccc    C21  10425 0.33498000  12.010000   ; qtot 223.497382
10426         h1    222    ccc    H30  10426 0.06178000   1.008000   ; qtot 223.559162
10427         h1    222    ccc    H31  10427 0.11278000   1.008000   ; qtot 223.671942
10428         h2    222    ccc    H32  10428 0.12178000   1.008000   ; qtot 223.793722
10429         oh    222    ccc    O10  10429 -0.56972000  16.000000   ; qtot 223.224002
10430         oh    222    ccc    O11  10430 -0.57772000  16.000000   ; qtot 222.646282
10431         c3    222    ccc    C22  10431 0.14548000  12.010000   ; qtot 222.791762
10432         ho    222    ccc    H33  10432 0.40508000   1.008000   ; qtot 223.196842
10433         hn    222    ccc    H34  10433 0.31758000   1.008000   ; qtot 223.514422
10434         h1    222    ccc    H35  10434 0.06278000   1.008000   ; qtot 223.577202
10435         h1    222    ccc    H36  10435 0.06278000   1.008000   ; qtot 223.639982
10436         oh    222    ccc    O12  10436 -0.59472000  16.000000   ; qtot 223.045262
10437         ho    222    ccc    H37  10437 0.41908000   1.008000   ; qtot 223.464342
10438         os    222    ccc    O13  10438 -0.44552000  16.000000   ; qtot 223.018822
10439         ho    222    ccc    H38  10439 0.41908000   1.008000   ; qtot 223.437902
10440         h1    222    ccc    H39  10440 0.08578000   1.008000   ; qtot 223.523682
10441         oh    222    ccc     O5  10441 -0.58672000  16.000000   ; qtot 222.936962
10442         ho    222    ccc    H40  10442 0.41908000   1.008000   ; qtot 223.356042
10443         n3    222    ccc     N4  10443 -0.54282000  14.010000   ; qtot 222.813222
10444         hn    222    ccc    H41  10444 0.17125500   1.008000   ; qtot 222.984477
; residue  223 ccc rtp ccc q 1.0
10445          n    223    ccc     N1  10445 -0.33303000  14.010000   ; qtot 222.651447
10446         hn    223    ccc     H4  10446 0.25916100   1.008000   ; qtot 222.910608
10447         c3    223    ccc     C3  10447 -0.03328100  12.010000   ; qtot 222.877327
10448         h1    223    ccc     H5  10448 0.10618100   1.008000   ; qtot 222.983508
10449         c3    223    ccc     C4  10449 -0.02083000  12.010000   ; qtot 222.962678
10450         h1    223    ccc     H6  10450 0.10618100   1.008000   ; qtot 223.068859
10451         h1    223    ccc     H7  10451 0.07988000   1.008000   ; qtot 223.148739
10452         h1    223    ccc     H8  10452 0.07988000   1.008000   ; qtot 223.228619
10453         n4    223    ccc     N2  10453 -0.02747900  14.010000   ; qtot 223.201140
10454         c3    223    ccc     C5  10454 -0.05097600  12.010000   ; qtot 223.150164
10455         c3    223    ccc     C6  10455 -0.05097600  12.010000   ; qtot 223.099188
10456         h1    223    ccc     H9  10456 0.11563300   1.008000   ; qtot 223.214821
10457         c3    223    ccc     C7  10457 -0.18457900  12.010000   ; qtot 223.030242
10458         h1    223    ccc    H10  10458 0.11563300   1.008000   ; qtot 223.145875
10459         hc    223    ccc    H11  10459 0.08347900   1.008000   ; qtot 223.229354
10460         hc    223    ccc    H12  10460 0.08347900   1.008000   ; qtot 223.312833
10461          c    223    ccc     C8  10461 0.67254400  12.010000   ; qtot 223.985377
10462          o    223    ccc     O2  10462 -0.52917200  16.000000   ; qtot 223.456205
10463         h1    223    ccc    H13  10463 0.11563300   1.008000   ; qtot 223.571838
10464         h1    223    ccc    H14  10464 0.11563300   1.008000   ; qtot 223.687471
10465         c3    223    ccc     C9  10465 -0.18457900  12.010000   ; qtot 223.502892
10466         hc    223    ccc    H15  10466 0.08347900   1.008000   ; qtot 223.586371
10467         hc    223    ccc    H16  10467 0.08347900   1.008000   ; qtot 223.669850
10468          c    223    ccc    C10  10468 0.67254400  12.010000   ; qtot 224.342394
10469          o    223    ccc     O4  10469 -0.52917200  16.000000   ; qtot 223.813222
10470         c3    223    ccc    C11  10470 0.08518000  12.010000   ; qtot 223.898402
10471         c3    223    ccc    C12  10471 0.07918000  12.010000   ; qtot 223.977582
10472         h1    223    ccc    H17  10472 0.06978000   1.008000   ; qtot 224.047362
10473         c3    223    ccc    C13  10473 0.07918000  12.010000   ; qtot 224.126542
10474         c3    223    ccc    C14  10474 0.03578000  12.010000   ; qtot 224.162322
10475         c3    223    ccc    C15  10475 0.33498000  12.010000   ; qtot 224.497302
10476         h1    223    ccc    H18  10476 0.06178000   1.008000   ; qtot 224.559082
10477         h1    223    ccc    H19  10477 0.11278000   1.008000   ; qtot 224.671862
10478         h2    223    ccc    H20  10478 0.12178000   1.008000   ; qtot 224.793642
10479         oh    223    ccc     O1  10479 -0.56972000  16.000000   ; qtot 224.223922
10480         oh    223    ccc     O6  10480 -0.57772000  16.000000   ; qtot 223.646202
10481         c3    223    ccc    C16  10481 0.14548000  12.010000   ; qtot 223.791682
10482         ho    223    ccc    H21  10482 0.40508000   1.008000   ; qtot 224.196762
10483         hn    223    ccc    H22  10483 0.31758000   1.008000   ; qtot 224.514342
10484         h1    223    ccc    H23  10484 0.06278000   1.008000   ; qtot 224.577122
10485         h1    223    ccc    H24  10485 0.06278000   1.008000   ; qtot 224.639902
10486         oh    223    ccc     O7  10486 -0.59472000  16.000000   ; qtot 224.045182
10487         ho    223    ccc    H25  10487 0.41908000   1.008000   ; qtot 224.464262
10488         os    223    ccc     O8  10488 -0.44552000  16.000000   ; qtot 224.018742
10489         ho    223    ccc    H26  10489 0.41908000   1.008000   ; qtot 224.437822
10490         h1    223    ccc    H27  10490 0.08578000   1.008000   ; qtot 224.523602
10491         oh    223    ccc     O9  10491 -0.58672000  16.000000   ; qtot 223.936882
10492         ho    223    ccc    H28  10492 0.41908000   1.008000   ; qtot 224.355962
10493         n3    223    ccc     N3  10493 -0.54282000  14.010000   ; qtot 223.813142
10494         c3    223    ccc    C17  10494 0.08518000  12.010000   ; qtot 223.898322
10495         c3    223    ccc    C18  10495 0.07918000  12.010000   ; qtot 223.977502
10496         h1    223    ccc    H29  10496 0.06978000   1.008000   ; qtot 224.047282
10497         c3    223    ccc    C19  10497 0.07918000  12.010000   ; qtot 224.126462
10498         c3    223    ccc    C20  10498 0.03578000  12.010000   ; qtot 224.162242
10499         c3    223    ccc    C21  10499 0.33498000  12.010000   ; qtot 224.497222
10500         h1    223    ccc    H30  10500 0.06178000   1.008000   ; qtot 224.559002
10501         h1    223    ccc    H31  10501 0.11278000   1.008000   ; qtot 224.671782
10502         h2    223    ccc    H32  10502 0.12178000   1.008000   ; qtot 224.793562
10503         oh    223    ccc    O10  10503 -0.56972000  16.000000   ; qtot 224.223842
10504         oh    223    ccc    O11  10504 -0.57772000  16.000000   ; qtot 223.646122
10505         c3    223    ccc    C22  10505 0.14548000  12.010000   ; qtot 223.791602
10506         ho    223    ccc    H33  10506 0.40508000   1.008000   ; qtot 224.196682
10507         hn    223    ccc    H34  10507 0.31758000   1.008000   ; qtot 224.514262
10508         h1    223    ccc    H35  10508 0.06278000   1.008000   ; qtot 224.577042
10509         h1    223    ccc    H36  10509 0.06278000   1.008000   ; qtot 224.639822
10510         oh    223    ccc    O12  10510 -0.59472000  16.000000   ; qtot 224.045102
10511         ho    223    ccc    H37  10511 0.41908000   1.008000   ; qtot 224.464182
10512         os    223    ccc    O13  10512 -0.44552000  16.000000   ; qtot 224.018662
10513         ho    223    ccc    H38  10513 0.41908000   1.008000   ; qtot 224.437742
10514         h1    223    ccc    H39  10514 0.08578000   1.008000   ; qtot 224.523522
10515         oh    223    ccc     O5  10515 -0.58672000  16.000000   ; qtot 223.936802
10516         ho    223    ccc    H40  10516 0.41908000   1.008000   ; qtot 224.355882
10517         n3    223    ccc     N4  10517 -0.54282000  14.010000   ; qtot 223.813062
10518         hn    223    ccc    H41  10518 0.17125500   1.008000   ; qtot 223.984317
; residue  224 ccc rtp ccc q 1.0
10519          n    224    ccc     N1  10519 -0.33303000  14.010000   ; qtot 223.651287
10520         hn    224    ccc     H4  10520 0.25916100   1.008000   ; qtot 223.910448
10521         c3    224    ccc     C3  10521 -0.03328100  12.010000   ; qtot 223.877167
10522         h1    224    ccc     H5  10522 0.10618100   1.008000   ; qtot 223.983348
10523         c3    224    ccc     C4  10523 -0.02083000  12.010000   ; qtot 223.962518
10524         h1    224    ccc     H6  10524 0.10618100   1.008000   ; qtot 224.068699
10525         h1    224    ccc     H7  10525 0.07988000   1.008000   ; qtot 224.148579
10526         h1    224    ccc     H8  10526 0.07988000   1.008000   ; qtot 224.228459
10527         n4    224    ccc     N2  10527 -0.02747900  14.010000   ; qtot 224.200980
10528         c3    224    ccc     C5  10528 -0.05097600  12.010000   ; qtot 224.150004
10529         c3    224    ccc     C6  10529 -0.05097600  12.010000   ; qtot 224.099028
10530         h1    224    ccc     H9  10530 0.11563300   1.008000   ; qtot 224.214661
10531         c3    224    ccc     C7  10531 -0.18457900  12.010000   ; qtot 224.030082
10532         h1    224    ccc    H10  10532 0.11563300   1.008000   ; qtot 224.145715
10533         hc    224    ccc    H11  10533 0.08347900   1.008000   ; qtot 224.229194
10534         hc    224    ccc    H12  10534 0.08347900   1.008000   ; qtot 224.312673
10535          c    224    ccc     C8  10535 0.67254400  12.010000   ; qtot 224.985217
10536          o    224    ccc     O2  10536 -0.52917200  16.000000   ; qtot 224.456045
10537         h1    224    ccc    H13  10537 0.11563300   1.008000   ; qtot 224.571678
10538         h1    224    ccc    H14  10538 0.11563300   1.008000   ; qtot 224.687311
10539         c3    224    ccc     C9  10539 -0.18457900  12.010000   ; qtot 224.502732
10540         hc    224    ccc    H15  10540 0.08347900   1.008000   ; qtot 224.586211
10541         hc    224    ccc    H16  10541 0.08347900   1.008000   ; qtot 224.669690
10542          c    224    ccc    C10  10542 0.67254400  12.010000   ; qtot 225.342234
10543          o    224    ccc     O4  10543 -0.52917200  16.000000   ; qtot 224.813062
10544         c3    224    ccc    C11  10544 0.08518000  12.010000   ; qtot 224.898242
10545         c3    224    ccc    C12  10545 0.07918000  12.010000   ; qtot 224.977422
10546         h1    224    ccc    H17  10546 0.06978000   1.008000   ; qtot 225.047202
10547         c3    224    ccc    C13  10547 0.07918000  12.010000   ; qtot 225.126382
10548         c3    224    ccc    C14  10548 0.03578000  12.010000   ; qtot 225.162162
10549         c3    224    ccc    C15  10549 0.33498000  12.010000   ; qtot 225.497142
10550         h1    224    ccc    H18  10550 0.06178000   1.008000   ; qtot 225.558922
10551         h1    224    ccc    H19  10551 0.11278000   1.008000   ; qtot 225.671702
10552         h2    224    ccc    H20  10552 0.12178000   1.008000   ; qtot 225.793482
10553         oh    224    ccc     O1  10553 -0.56972000  16.000000   ; qtot 225.223762
10554         oh    224    ccc     O6  10554 -0.57772000  16.000000   ; qtot 224.646042
10555         c3    224    ccc    C16  10555 0.14548000  12.010000   ; qtot 224.791522
10556         ho    224    ccc    H21  10556 0.40508000   1.008000   ; qtot 225.196602
10557         hn    224    ccc    H22  10557 0.31758000   1.008000   ; qtot 225.514182
10558         h1    224    ccc    H23  10558 0.06278000   1.008000   ; qtot 225.576962
10559         h1    224    ccc    H24  10559 0.06278000   1.008000   ; qtot 225.639742
10560         oh    224    ccc     O7  10560 -0.59472000  16.000000   ; qtot 225.045022
10561         ho    224    ccc    H25  10561 0.41908000   1.008000   ; qtot 225.464102
10562         os    224    ccc     O8  10562 -0.44552000  16.000000   ; qtot 225.018582
10563         ho    224    ccc    H26  10563 0.41908000   1.008000   ; qtot 225.437662
10564         h1    224    ccc    H27  10564 0.08578000   1.008000   ; qtot 225.523442
10565         oh    224    ccc     O9  10565 -0.58672000  16.000000   ; qtot 224.936722
10566         ho    224    ccc    H28  10566 0.41908000   1.008000   ; qtot 225.355802
10567         n3    224    ccc     N3  10567 -0.54282000  14.010000   ; qtot 224.812982
10568         c3    224    ccc    C17  10568 0.08518000  12.010000   ; qtot 224.898162
10569         c3    224    ccc    C18  10569 0.07918000  12.010000   ; qtot 224.977342
10570         h1    224    ccc    H29  10570 0.06978000   1.008000   ; qtot 225.047122
10571         c3    224    ccc    C19  10571 0.07918000  12.010000   ; qtot 225.126302
10572         c3    224    ccc    C20  10572 0.03578000  12.010000   ; qtot 225.162082
10573         c3    224    ccc    C21  10573 0.33498000  12.010000   ; qtot 225.497062
10574         h1    224    ccc    H30  10574 0.06178000   1.008000   ; qtot 225.558842
10575         h1    224    ccc    H31  10575 0.11278000   1.008000   ; qtot 225.671622
10576         h2    224    ccc    H32  10576 0.12178000   1.008000   ; qtot 225.793402
10577         oh    224    ccc    O10  10577 -0.56972000  16.000000   ; qtot 225.223682
10578         oh    224    ccc    O11  10578 -0.57772000  16.000000   ; qtot 224.645962
10579         c3    224    ccc    C22  10579 0.14548000  12.010000   ; qtot 224.791442
10580         ho    224    ccc    H33  10580 0.40508000   1.008000   ; qtot 225.196522
10581         hn    224    ccc    H34  10581 0.31758000   1.008000   ; qtot 225.514102
10582         h1    224    ccc    H35  10582 0.06278000   1.008000   ; qtot 225.576882
10583         h1    224    ccc    H36  10583 0.06278000   1.008000   ; qtot 225.639662
10584         oh    224    ccc    O12  10584 -0.59472000  16.000000   ; qtot 225.044942
10585         ho    224    ccc    H37  10585 0.41908000   1.008000   ; qtot 225.464022
10586         os    224    ccc    O13  10586 -0.44552000  16.000000   ; qtot 225.018502
10587         ho    224    ccc    H38  10587 0.41908000   1.008000   ; qtot 225.437582
10588         h1    224    ccc    H39  10588 0.08578000   1.008000   ; qtot 225.523362
10589         oh    224    ccc     O5  10589 -0.58672000  16.000000   ; qtot 224.936642
10590         ho    224    ccc    H40  10590 0.41908000   1.008000   ; qtot 225.355722
10591         n3    224    ccc     N4  10591 -0.54282000  14.010000   ; qtot 224.812902
10592         hn    224    ccc    H41  10592 0.17125500   1.008000   ; qtot 224.984157
; residue  225 ccc rtp ccc q 1.0
10593          n    225    ccc     N1  10593 -0.33303000  14.010000   ; qtot 224.651127
10594         hn    225    ccc     H4  10594 0.25916100   1.008000   ; qtot 224.910288
10595         c3    225    ccc     C3  10595 -0.03328100  12.010000   ; qtot 224.877007
10596         h1    225    ccc     H5  10596 0.10618100   1.008000   ; qtot 224.983188
10597         c3    225    ccc     C4  10597 -0.02083000  12.010000   ; qtot 224.962358
10598         h1    225    ccc     H6  10598 0.10618100   1.008000   ; qtot 225.068539
10599         h1    225    ccc     H7  10599 0.07988000   1.008000   ; qtot 225.148419
10600         h1    225    ccc     H8  10600 0.07988000   1.008000   ; qtot 225.228299
10601         n4    225    ccc     N2  10601 -0.02747900  14.010000   ; qtot 225.200820
10602         c3    225    ccc     C5  10602 -0.05097600  12.010000   ; qtot 225.149844
10603         c3    225    ccc     C6  10603 -0.05097600  12.010000   ; qtot 225.098868
10604         h1    225    ccc     H9  10604 0.11563300   1.008000   ; qtot 225.214501
10605         c3    225    ccc     C7  10605 -0.18457900  12.010000   ; qtot 225.029922
10606         h1    225    ccc    H10  10606 0.11563300   1.008000   ; qtot 225.145555
10607         hc    225    ccc    H11  10607 0.08347900   1.008000   ; qtot 225.229034
10608         hc    225    ccc    H12  10608 0.08347900   1.008000   ; qtot 225.312513
10609          c    225    ccc     C8  10609 0.67254400  12.010000   ; qtot 225.985057
10610          o    225    ccc     O2  10610 -0.52917200  16.000000   ; qtot 225.455885
10611         h1    225    ccc    H13  10611 0.11563300   1.008000   ; qtot 225.571518
10612         h1    225    ccc    H14  10612 0.11563300   1.008000   ; qtot 225.687151
10613         c3    225    ccc     C9  10613 -0.18457900  12.010000   ; qtot 225.502572
10614         hc    225    ccc    H15  10614 0.08347900   1.008000   ; qtot 225.586051
10615         hc    225    ccc    H16  10615 0.08347900   1.008000   ; qtot 225.669530
10616          c    225    ccc    C10  10616 0.67254400  12.010000   ; qtot 226.342074
10617          o    225    ccc     O4  10617 -0.52917200  16.000000   ; qtot 225.812902
10618         c3    225    ccc    C11  10618 0.08518000  12.010000   ; qtot 225.898082
10619         c3    225    ccc    C12  10619 0.07918000  12.010000   ; qtot 225.977262
10620         h1    225    ccc    H17  10620 0.06978000   1.008000   ; qtot 226.047042
10621         c3    225    ccc    C13  10621 0.07918000  12.010000   ; qtot 226.126222
10622         c3    225    ccc    C14  10622 0.03578000  12.010000   ; qtot 226.162002
10623         c3    225    ccc    C15  10623 0.33498000  12.010000   ; qtot 226.496982
10624         h1    225    ccc    H18  10624 0.06178000   1.008000   ; qtot 226.558762
10625         h1    225    ccc    H19  10625 0.11278000   1.008000   ; qtot 226.671542
10626         h2    225    ccc    H20  10626 0.12178000   1.008000   ; qtot 226.793322
10627         oh    225    ccc     O1  10627 -0.56972000  16.000000   ; qtot 226.223602
10628         oh    225    ccc     O6  10628 -0.57772000  16.000000   ; qtot 225.645882
10629         c3    225    ccc    C16  10629 0.14548000  12.010000   ; qtot 225.791362
10630         ho    225    ccc    H21  10630 0.40508000   1.008000   ; qtot 226.196442
10631         hn    225    ccc    H22  10631 0.31758000   1.008000   ; qtot 226.514022
10632         h1    225    ccc    H23  10632 0.06278000   1.008000   ; qtot 226.576802
10633         h1    225    ccc    H24  10633 0.06278000   1.008000   ; qtot 226.639582
10634         oh    225    ccc     O7  10634 -0.59472000  16.000000   ; qtot 226.044862
10635         ho    225    ccc    H25  10635 0.41908000   1.008000   ; qtot 226.463942
10636         os    225    ccc     O8  10636 -0.44552000  16.000000   ; qtot 226.018422
10637         ho    225    ccc    H26  10637 0.41908000   1.008000   ; qtot 226.437502
10638         h1    225    ccc    H27  10638 0.08578000   1.008000   ; qtot 226.523282
10639         oh    225    ccc     O9  10639 -0.58672000  16.000000   ; qtot 225.936562
10640         ho    225    ccc    H28  10640 0.41908000   1.008000   ; qtot 226.355642
10641         n3    225    ccc     N3  10641 -0.54282000  14.010000   ; qtot 225.812822
10642         c3    225    ccc    C17  10642 0.08518000  12.010000   ; qtot 225.898002
10643         c3    225    ccc    C18  10643 0.07918000  12.010000   ; qtot 225.977182
10644         h1    225    ccc    H29  10644 0.06978000   1.008000   ; qtot 226.046962
10645         c3    225    ccc    C19  10645 0.07918000  12.010000   ; qtot 226.126142
10646         c3    225    ccc    C20  10646 0.03578000  12.010000   ; qtot 226.161922
10647         c3    225    ccc    C21  10647 0.33498000  12.010000   ; qtot 226.496902
10648         h1    225    ccc    H30  10648 0.06178000   1.008000   ; qtot 226.558682
10649         h1    225    ccc    H31  10649 0.11278000   1.008000   ; qtot 226.671462
10650         h2    225    ccc    H32  10650 0.12178000   1.008000   ; qtot 226.793242
10651         oh    225    ccc    O10  10651 -0.56972000  16.000000   ; qtot 226.223522
10652         oh    225    ccc    O11  10652 -0.57772000  16.000000   ; qtot 225.645802
10653         c3    225    ccc    C22  10653 0.14548000  12.010000   ; qtot 225.791282
10654         ho    225    ccc    H33  10654 0.40508000   1.008000   ; qtot 226.196362
10655         hn    225    ccc    H34  10655 0.31758000   1.008000   ; qtot 226.513942
10656         h1    225    ccc    H35  10656 0.06278000   1.008000   ; qtot 226.576722
10657         h1    225    ccc    H36  10657 0.06278000   1.008000   ; qtot 226.639502
10658         oh    225    ccc    O12  10658 -0.59472000  16.000000   ; qtot 226.044782
10659         ho    225    ccc    H37  10659 0.41908000   1.008000   ; qtot 226.463862
10660         os    225    ccc    O13  10660 -0.44552000  16.000000   ; qtot 226.018342
10661         ho    225    ccc    H38  10661 0.41908000   1.008000   ; qtot 226.437422
10662         h1    225    ccc    H39  10662 0.08578000   1.008000   ; qtot 226.523202
10663         oh    225    ccc     O5  10663 -0.58672000  16.000000   ; qtot 225.936482
10664         ho    225    ccc    H40  10664 0.41908000   1.008000   ; qtot 226.355562
10665         n3    225    ccc     N4  10665 -0.54282000  14.010000   ; qtot 225.812742
10666         hn    225    ccc    H41  10666 0.17125500   1.008000   ; qtot 225.983997
; residue  226 ccc rtp ccc q 1.0
10667          n    226    ccc     N1  10667 -0.33303000  14.010000   ; qtot 225.650967
10668         hn    226    ccc     H4  10668 0.25916100   1.008000   ; qtot 225.910128
10669         c3    226    ccc     C3  10669 -0.03328100  12.010000   ; qtot 225.876847
10670         h1    226    ccc     H5  10670 0.10618100   1.008000   ; qtot 225.983028
10671         c3    226    ccc     C4  10671 -0.02083000  12.010000   ; qtot 225.962198
10672         h1    226    ccc     H6  10672 0.10618100   1.008000   ; qtot 226.068379
10673         h1    226    ccc     H7  10673 0.07988000   1.008000   ; qtot 226.148259
10674         h1    226    ccc     H8  10674 0.07988000   1.008000   ; qtot 226.228139
10675         n4    226    ccc     N2  10675 -0.02747900  14.010000   ; qtot 226.200660
10676         c3    226    ccc     C5  10676 -0.05097600  12.010000   ; qtot 226.149684
10677         c3    226    ccc     C6  10677 -0.05097600  12.010000   ; qtot 226.098708
10678         h1    226    ccc     H9  10678 0.11563300   1.008000   ; qtot 226.214341
10679         c3    226    ccc     C7  10679 -0.18457900  12.010000   ; qtot 226.029762
10680         h1    226    ccc    H10  10680 0.11563300   1.008000   ; qtot 226.145395
10681         hc    226    ccc    H11  10681 0.08347900   1.008000   ; qtot 226.228874
10682         hc    226    ccc    H12  10682 0.08347900   1.008000   ; qtot 226.312353
10683          c    226    ccc     C8  10683 0.67254400  12.010000   ; qtot 226.984897
10684          o    226    ccc     O2  10684 -0.52917200  16.000000   ; qtot 226.455725
10685         h1    226    ccc    H13  10685 0.11563300   1.008000   ; qtot 226.571358
10686         h1    226    ccc    H14  10686 0.11563300   1.008000   ; qtot 226.686991
10687         c3    226    ccc     C9  10687 -0.18457900  12.010000   ; qtot 226.502412
10688         hc    226    ccc    H15  10688 0.08347900   1.008000   ; qtot 226.585891
10689         hc    226    ccc    H16  10689 0.08347900   1.008000   ; qtot 226.669370
10690          c    226    ccc    C10  10690 0.67254400  12.010000   ; qtot 227.341914
10691          o    226    ccc     O4  10691 -0.52917200  16.000000   ; qtot 226.812742
10692         c3    226    ccc    C11  10692 0.08518000  12.010000   ; qtot 226.897922
10693         c3    226    ccc    C12  10693 0.07918000  12.010000   ; qtot 226.977102
10694         h1    226    ccc    H17  10694 0.06978000   1.008000   ; qtot 227.046882
10695         c3    226    ccc    C13  10695 0.07918000  12.010000   ; qtot 227.126062
10696         c3    226    ccc    C14  10696 0.03578000  12.010000   ; qtot 227.161842
10697         c3    226    ccc    C15  10697 0.33498000  12.010000   ; qtot 227.496822
10698         h1    226    ccc    H18  10698 0.06178000   1.008000   ; qtot 227.558602
10699         h1    226    ccc    H19  10699 0.11278000   1.008000   ; qtot 227.671382
10700         h2    226    ccc    H20  10700 0.12178000   1.008000   ; qtot 227.793162
10701         oh    226    ccc     O1  10701 -0.56972000  16.000000   ; qtot 227.223442
10702         oh    226    ccc     O6  10702 -0.57772000  16.000000   ; qtot 226.645722
10703         c3    226    ccc    C16  10703 0.14548000  12.010000   ; qtot 226.791202
10704         ho    226    ccc    H21  10704 0.40508000   1.008000   ; qtot 227.196282
10705         hn    226    ccc    H22  10705 0.31758000   1.008000   ; qtot 227.513862
10706         h1    226    ccc    H23  10706 0.06278000   1.008000   ; qtot 227.576642
10707         h1    226    ccc    H24  10707 0.06278000   1.008000   ; qtot 227.639422
10708         oh    226    ccc     O7  10708 -0.59472000  16.000000   ; qtot 227.044702
10709         ho    226    ccc    H25  10709 0.41908000   1.008000   ; qtot 227.463782
10710         os    226    ccc     O8  10710 -0.44552000  16.000000   ; qtot 227.018262
10711         ho    226    ccc    H26  10711 0.41908000   1.008000   ; qtot 227.437342
10712         h1    226    ccc    H27  10712 0.08578000   1.008000   ; qtot 227.523122
10713         oh    226    ccc     O9  10713 -0.58672000  16.000000   ; qtot 226.936402
10714         ho    226    ccc    H28  10714 0.41908000   1.008000   ; qtot 227.355482
10715         n3    226    ccc     N3  10715 -0.54282000  14.010000   ; qtot 226.812662
10716         c3    226    ccc    C17  10716 0.08518000  12.010000   ; qtot 226.897842
10717         c3    226    ccc    C18  10717 0.07918000  12.010000   ; qtot 226.977022
10718         h1    226    ccc    H29  10718 0.06978000   1.008000   ; qtot 227.046802
10719         c3    226    ccc    C19  10719 0.07918000  12.010000   ; qtot 227.125982
10720         c3    226    ccc    C20  10720 0.03578000  12.010000   ; qtot 227.161762
10721         c3    226    ccc    C21  10721 0.33498000  12.010000   ; qtot 227.496742
10722         h1    226    ccc    H30  10722 0.06178000   1.008000   ; qtot 227.558522
10723         h1    226    ccc    H31  10723 0.11278000   1.008000   ; qtot 227.671302
10724         h2    226    ccc    H32  10724 0.12178000   1.008000   ; qtot 227.793082
10725         oh    226    ccc    O10  10725 -0.56972000  16.000000   ; qtot 227.223361
10726         oh    226    ccc    O11  10726 -0.57772000  16.000000   ; qtot 226.645641
10727         c3    226    ccc    C22  10727 0.14548000  12.010000   ; qtot 226.791121
10728         ho    226    ccc    H33  10728 0.40508000   1.008000   ; qtot 227.196201
10729         hn    226    ccc    H34  10729 0.31758000   1.008000   ; qtot 227.513781
10730         h1    226    ccc    H35  10730 0.06278000   1.008000   ; qtot 227.576561
10731         h1    226    ccc    H36  10731 0.06278000   1.008000   ; qtot 227.639341
10732         oh    226    ccc    O12  10732 -0.59472000  16.000000   ; qtot 227.044621
10733         ho    226    ccc    H37  10733 0.41908000   1.008000   ; qtot 227.463701
10734         os    226    ccc    O13  10734 -0.44552000  16.000000   ; qtot 227.018181
10735         ho    226    ccc    H38  10735 0.41908000   1.008000   ; qtot 227.437261
10736         h1    226    ccc    H39  10736 0.08578000   1.008000   ; qtot 227.523041
10737         oh    226    ccc     O5  10737 -0.58672000  16.000000   ; qtot 226.936321
10738         ho    226    ccc    H40  10738 0.41908000   1.008000   ; qtot 227.355401
10739         n3    226    ccc     N4  10739 -0.54282000  14.010000   ; qtot 226.812581
10740         hn    226    ccc    H41  10740 0.17125500   1.008000   ; qtot 226.983836
; residue  227 ccc rtp ccc q 1.0
10741          n    227    ccc     N1  10741 -0.33303000  14.010000   ; qtot 226.650806
10742         hn    227    ccc     H4  10742 0.25916100   1.008000   ; qtot 226.909967
10743         c3    227    ccc     C3  10743 -0.03328100  12.010000   ; qtot 226.876686
10744         h1    227    ccc     H5  10744 0.10618100   1.008000   ; qtot 226.982867
10745         c3    227    ccc     C4  10745 -0.02083000  12.010000   ; qtot 226.962037
10746         h1    227    ccc     H6  10746 0.10618100   1.008000   ; qtot 227.068218
10747         h1    227    ccc     H7  10747 0.07988000   1.008000   ; qtot 227.148098
10748         h1    227    ccc     H8  10748 0.07988000   1.008000   ; qtot 227.227978
10749         n4    227    ccc     N2  10749 -0.02747900  14.010000   ; qtot 227.200499
10750         c3    227    ccc     C5  10750 -0.05097600  12.010000   ; qtot 227.149523
10751         c3    227    ccc     C6  10751 -0.05097600  12.010000   ; qtot 227.098547
10752         h1    227    ccc     H9  10752 0.11563300   1.008000   ; qtot 227.214180
10753         c3    227    ccc     C7  10753 -0.18457900  12.010000   ; qtot 227.029601
10754         h1    227    ccc    H10  10754 0.11563300   1.008000   ; qtot 227.145234
10755         hc    227    ccc    H11  10755 0.08347900   1.008000   ; qtot 227.228713
10756         hc    227    ccc    H12  10756 0.08347900   1.008000   ; qtot 227.312192
10757          c    227    ccc     C8  10757 0.67254400  12.010000   ; qtot 227.984736
10758          o    227    ccc     O2  10758 -0.52917200  16.000000   ; qtot 227.455564
10759         h1    227    ccc    H13  10759 0.11563300   1.008000   ; qtot 227.571197
10760         h1    227    ccc    H14  10760 0.11563300   1.008000   ; qtot 227.686830
10761         c3    227    ccc     C9  10761 -0.18457900  12.010000   ; qtot 227.502251
10762         hc    227    ccc    H15  10762 0.08347900   1.008000   ; qtot 227.585730
10763         hc    227    ccc    H16  10763 0.08347900   1.008000   ; qtot 227.669209
10764          c    227    ccc    C10  10764 0.67254400  12.010000   ; qtot 228.341753
10765          o    227    ccc     O4  10765 -0.52917200  16.000000   ; qtot 227.812581
10766         c3    227    ccc    C11  10766 0.08518000  12.010000   ; qtot 227.897761
10767         c3    227    ccc    C12  10767 0.07918000  12.010000   ; qtot 227.976941
10768         h1    227    ccc    H17  10768 0.06978000   1.008000   ; qtot 228.046721
10769         c3    227    ccc    C13  10769 0.07918000  12.010000   ; qtot 228.125901
10770         c3    227    ccc    C14  10770 0.03578000  12.010000   ; qtot 228.161681
10771         c3    227    ccc    C15  10771 0.33498000  12.010000   ; qtot 228.496661
10772         h1    227    ccc    H18  10772 0.06178000   1.008000   ; qtot 228.558441
10773         h1    227    ccc    H19  10773 0.11278000   1.008000   ; qtot 228.671221
10774         h2    227    ccc    H20  10774 0.12178000   1.008000   ; qtot 228.793001
10775         oh    227    ccc     O1  10775 -0.56972000  16.000000   ; qtot 228.223281
10776         oh    227    ccc     O6  10776 -0.57772000  16.000000   ; qtot 227.645561
10777         c3    227    ccc    C16  10777 0.14548000  12.010000   ; qtot 227.791041
10778         ho    227    ccc    H21  10778 0.40508000   1.008000   ; qtot 228.196121
10779         hn    227    ccc    H22  10779 0.31758000   1.008000   ; qtot 228.513701
10780         h1    227    ccc    H23  10780 0.06278000   1.008000   ; qtot 228.576481
10781         h1    227    ccc    H24  10781 0.06278000   1.008000   ; qtot 228.639261
10782         oh    227    ccc     O7  10782 -0.59472000  16.000000   ; qtot 228.044541
10783         ho    227    ccc    H25  10783 0.41908000   1.008000   ; qtot 228.463621
10784         os    227    ccc     O8  10784 -0.44552000  16.000000   ; qtot 228.018101
10785         ho    227    ccc    H26  10785 0.41908000   1.008000   ; qtot 228.437181
10786         h1    227    ccc    H27  10786 0.08578000   1.008000   ; qtot 228.522961
10787         oh    227    ccc     O9  10787 -0.58672000  16.000000   ; qtot 227.936241
10788         ho    227    ccc    H28  10788 0.41908000   1.008000   ; qtot 228.355321
10789         n3    227    ccc     N3  10789 -0.54282000  14.010000   ; qtot 227.812501
10790         c3    227    ccc    C17  10790 0.08518000  12.010000   ; qtot 227.897681
10791         c3    227    ccc    C18  10791 0.07918000  12.010000   ; qtot 227.976861
10792         h1    227    ccc    H29  10792 0.06978000   1.008000   ; qtot 228.046641
10793         c3    227    ccc    C19  10793 0.07918000  12.010000   ; qtot 228.125821
10794         c3    227    ccc    C20  10794 0.03578000  12.010000   ; qtot 228.161601
10795         c3    227    ccc    C21  10795 0.33498000  12.010000   ; qtot 228.496581
10796         h1    227    ccc    H30  10796 0.06178000   1.008000   ; qtot 228.558361
10797         h1    227    ccc    H31  10797 0.11278000   1.008000   ; qtot 228.671141
10798         h2    227    ccc    H32  10798 0.12178000   1.008000   ; qtot 228.792921
10799         oh    227    ccc    O10  10799 -0.56972000  16.000000   ; qtot 228.223201
10800         oh    227    ccc    O11  10800 -0.57772000  16.000000   ; qtot 227.645481
10801         c3    227    ccc    C22  10801 0.14548000  12.010000   ; qtot 227.790961
10802         ho    227    ccc    H33  10802 0.40508000   1.008000   ; qtot 228.196041
10803         hn    227    ccc    H34  10803 0.31758000   1.008000   ; qtot 228.513621
10804         h1    227    ccc    H35  10804 0.06278000   1.008000   ; qtot 228.576401
10805         h1    227    ccc    H36  10805 0.06278000   1.008000   ; qtot 228.639181
10806         oh    227    ccc    O12  10806 -0.59472000  16.000000   ; qtot 228.044461
10807         ho    227    ccc    H37  10807 0.41908000   1.008000   ; qtot 228.463541
10808         os    227    ccc    O13  10808 -0.44552000  16.000000   ; qtot 228.018021
10809         ho    227    ccc    H38  10809 0.41908000   1.008000   ; qtot 228.437101
10810         h1    227    ccc    H39  10810 0.08578000   1.008000   ; qtot 228.522881
10811         oh    227    ccc     O5  10811 -0.58672000  16.000000   ; qtot 227.936161
10812         ho    227    ccc    H40  10812 0.41908000   1.008000   ; qtot 228.355241
10813         n3    227    ccc     N4  10813 -0.54282000  14.010000   ; qtot 227.812421
10814         hn    227    ccc    H41  10814 0.17125500   1.008000   ; qtot 227.983676
; residue  228 ccc rtp ccc q 1.0
10815          n    228    ccc     N1  10815 -0.33303000  14.010000   ; qtot 227.650646
10816         hn    228    ccc     H4  10816 0.25916100   1.008000   ; qtot 227.909807
10817         c3    228    ccc     C3  10817 -0.03328100  12.010000   ; qtot 227.876526
10818         h1    228    ccc     H5  10818 0.10618100   1.008000   ; qtot 227.982707
10819         c3    228    ccc     C4  10819 -0.02083000  12.010000   ; qtot 227.961877
10820         h1    228    ccc     H6  10820 0.10618100   1.008000   ; qtot 228.068058
10821         h1    228    ccc     H7  10821 0.07988000   1.008000   ; qtot 228.147938
10822         h1    228    ccc     H8  10822 0.07988000   1.008000   ; qtot 228.227818
10823         n4    228    ccc     N2  10823 -0.02747900  14.010000   ; qtot 228.200339
10824         c3    228    ccc     C5  10824 -0.05097600  12.010000   ; qtot 228.149363
10825         c3    228    ccc     C6  10825 -0.05097600  12.010000   ; qtot 228.098387
10826         h1    228    ccc     H9  10826 0.11563300   1.008000   ; qtot 228.214020
10827         c3    228    ccc     C7  10827 -0.18457900  12.010000   ; qtot 228.029441
10828         h1    228    ccc    H10  10828 0.11563300   1.008000   ; qtot 228.145074
10829         hc    228    ccc    H11  10829 0.08347900   1.008000   ; qtot 228.228553
10830         hc    228    ccc    H12  10830 0.08347900   1.008000   ; qtot 228.312032
10831          c    228    ccc     C8  10831 0.67254400  12.010000   ; qtot 228.984576
10832          o    228    ccc     O2  10832 -0.52917200  16.000000   ; qtot 228.455404
10833         h1    228    ccc    H13  10833 0.11563300   1.008000   ; qtot 228.571037
10834         h1    228    ccc    H14  10834 0.11563300   1.008000   ; qtot 228.686670
10835         c3    228    ccc     C9  10835 -0.18457900  12.010000   ; qtot 228.502091
10836         hc    228    ccc    H15  10836 0.08347900   1.008000   ; qtot 228.585570
10837         hc    228    ccc    H16  10837 0.08347900   1.008000   ; qtot 228.669049
10838          c    228    ccc    C10  10838 0.67254400  12.010000   ; qtot 229.341593
10839          o    228    ccc     O4  10839 -0.52917200  16.000000   ; qtot 228.812421
10840         c3    228    ccc    C11  10840 0.08518000  12.010000   ; qtot 228.897601
10841         c3    228    ccc    C12  10841 0.07918000  12.010000   ; qtot 228.976781
10842         h1    228    ccc    H17  10842 0.06978000   1.008000   ; qtot 229.046561
10843         c3    228    ccc    C13  10843 0.07918000  12.010000   ; qtot 229.125741
10844         c3    228    ccc    C14  10844 0.03578000  12.010000   ; qtot 229.161521
10845         c3    228    ccc    C15  10845 0.33498000  12.010000   ; qtot 229.496501
10846         h1    228    ccc    H18  10846 0.06178000   1.008000   ; qtot 229.558281
10847         h1    228    ccc    H19  10847 0.11278000   1.008000   ; qtot 229.671061
10848         h2    228    ccc    H20  10848 0.12178000   1.008000   ; qtot 229.792841
10849         oh    228    ccc     O1  10849 -0.56972000  16.000000   ; qtot 229.223121
10850         oh    228    ccc     O6  10850 -0.57772000  16.000000   ; qtot 228.645401
10851         c3    228    ccc    C16  10851 0.14548000  12.010000   ; qtot 228.790881
10852         ho    228    ccc    H21  10852 0.40508000   1.008000   ; qtot 229.195961
10853         hn    228    ccc    H22  10853 0.31758000   1.008000   ; qtot 229.513541
10854         h1    228    ccc    H23  10854 0.06278000   1.008000   ; qtot 229.576321
10855         h1    228    ccc    H24  10855 0.06278000   1.008000   ; qtot 229.639101
10856         oh    228    ccc     O7  10856 -0.59472000  16.000000   ; qtot 229.044381
10857         ho    228    ccc    H25  10857 0.41908000   1.008000   ; qtot 229.463461
10858         os    228    ccc     O8  10858 -0.44552000  16.000000   ; qtot 229.017941
10859         ho    228    ccc    H26  10859 0.41908000   1.008000   ; qtot 229.437021
10860         h1    228    ccc    H27  10860 0.08578000   1.008000   ; qtot 229.522801
10861         oh    228    ccc     O9  10861 -0.58672000  16.000000   ; qtot 228.936081
10862         ho    228    ccc    H28  10862 0.41908000   1.008000   ; qtot 229.355161
10863         n3    228    ccc     N3  10863 -0.54282000  14.010000   ; qtot 228.812341
10864         c3    228    ccc    C17  10864 0.08518000  12.010000   ; qtot 228.897521
10865         c3    228    ccc    C18  10865 0.07918000  12.010000   ; qtot 228.976701
10866         h1    228    ccc    H29  10866 0.06978000   1.008000   ; qtot 229.046481
10867         c3    228    ccc    C19  10867 0.07918000  12.010000   ; qtot 229.125661
10868         c3    228    ccc    C20  10868 0.03578000  12.010000   ; qtot 229.161441
10869         c3    228    ccc    C21  10869 0.33498000  12.010000   ; qtot 229.496421
10870         h1    228    ccc    H30  10870 0.06178000   1.008000   ; qtot 229.558201
10871         h1    228    ccc    H31  10871 0.11278000   1.008000   ; qtot 229.670981
10872         h2    228    ccc    H32  10872 0.12178000   1.008000   ; qtot 229.792761
10873         oh    228    ccc    O10  10873 -0.56972000  16.000000   ; qtot 229.223041
10874         oh    228    ccc    O11  10874 -0.57772000  16.000000   ; qtot 228.645321
10875         c3    228    ccc    C22  10875 0.14548000  12.010000   ; qtot 228.790801
10876         ho    228    ccc    H33  10876 0.40508000   1.008000   ; qtot 229.195881
10877         hn    228    ccc    H34  10877 0.31758000   1.008000   ; qtot 229.513461
10878         h1    228    ccc    H35  10878 0.06278000   1.008000   ; qtot 229.576241
10879         h1    228    ccc    H36  10879 0.06278000   1.008000   ; qtot 229.639021
10880         oh    228    ccc    O12  10880 -0.59472000  16.000000   ; qtot 229.044301
10881         ho    228    ccc    H37  10881 0.41908000   1.008000   ; qtot 229.463381
10882         os    228    ccc    O13  10882 -0.44552000  16.000000   ; qtot 229.017861
10883         ho    228    ccc    H38  10883 0.41908000   1.008000   ; qtot 229.436941
10884         h1    228    ccc    H39  10884 0.08578000   1.008000   ; qtot 229.522721
10885         oh    228    ccc     O5  10885 -0.58672000  16.000000   ; qtot 228.936001
10886         ho    228    ccc    H40  10886 0.41908000   1.008000   ; qtot 229.355081
10887         n3    228    ccc     N4  10887 -0.54282000  14.010000   ; qtot 228.812261
10888         hn    228    ccc    H41  10888 0.17125500   1.008000   ; qtot 228.983516
; residue  229 ccc rtp ccc q 1.0
10889          n    229    ccc     N1  10889 -0.33303000  14.010000   ; qtot 228.650486
10890         hn    229    ccc     H4  10890 0.25916100   1.008000   ; qtot 228.909647
10891         c3    229    ccc     C3  10891 -0.03328100  12.010000   ; qtot 228.876366
10892         h1    229    ccc     H5  10892 0.10618100   1.008000   ; qtot 228.982547
10893         c3    229    ccc     C4  10893 -0.02083000  12.010000   ; qtot 228.961717
10894         h1    229    ccc     H6  10894 0.10618100   1.008000   ; qtot 229.067898
10895         h1    229    ccc     H7  10895 0.07988000   1.008000   ; qtot 229.147778
10896         h1    229    ccc     H8  10896 0.07988000   1.008000   ; qtot 229.227658
10897         n4    229    ccc     N2  10897 -0.02747900  14.010000   ; qtot 229.200179
10898         c3    229    ccc     C5  10898 -0.05097600  12.010000   ; qtot 229.149203
10899         c3    229    ccc     C6  10899 -0.05097600  12.010000   ; qtot 229.098227
10900         h1    229    ccc     H9  10900 0.11563300   1.008000   ; qtot 229.213860
10901         c3    229    ccc     C7  10901 -0.18457900  12.010000   ; qtot 229.029281
10902         h1    229    ccc    H10  10902 0.11563300   1.008000   ; qtot 229.144914
10903         hc    229    ccc    H11  10903 0.08347900   1.008000   ; qtot 229.228393
10904         hc    229    ccc    H12  10904 0.08347900   1.008000   ; qtot 229.311872
10905          c    229    ccc     C8  10905 0.67254400  12.010000   ; qtot 229.984416
10906          o    229    ccc     O2  10906 -0.52917200  16.000000   ; qtot 229.455244
10907         h1    229    ccc    H13  10907 0.11563300   1.008000   ; qtot 229.570877
10908         h1    229    ccc    H14  10908 0.11563300   1.008000   ; qtot 229.686510
10909         c3    229    ccc     C9  10909 -0.18457900  12.010000   ; qtot 229.501931
10910         hc    229    ccc    H15  10910 0.08347900   1.008000   ; qtot 229.585410
10911         hc    229    ccc    H16  10911 0.08347900   1.008000   ; qtot 229.668889
10912          c    229    ccc    C10  10912 0.67254400  12.010000   ; qtot 230.341433
10913          o    229    ccc     O4  10913 -0.52917200  16.000000   ; qtot 229.812261
10914         c3    229    ccc    C11  10914 0.08518000  12.010000   ; qtot 229.897441
10915         c3    229    ccc    C12  10915 0.07918000  12.010000   ; qtot 229.976621
10916         h1    229    ccc    H17  10916 0.06978000   1.008000   ; qtot 230.046401
10917         c3    229    ccc    C13  10917 0.07918000  12.010000   ; qtot 230.125581
10918         c3    229    ccc    C14  10918 0.03578000  12.010000   ; qtot 230.161361
10919         c3    229    ccc    C15  10919 0.33498000  12.010000   ; qtot 230.496341
10920         h1    229    ccc    H18  10920 0.06178000   1.008000   ; qtot 230.558121
10921         h1    229    ccc    H19  10921 0.11278000   1.008000   ; qtot 230.670901
10922         h2    229    ccc    H20  10922 0.12178000   1.008000   ; qtot 230.792681
10923         oh    229    ccc     O1  10923 -0.56972000  16.000000   ; qtot 230.222961
10924         oh    229    ccc     O6  10924 -0.57772000  16.000000   ; qtot 229.645241
10925         c3    229    ccc    C16  10925 0.14548000  12.010000   ; qtot 229.790721
10926         ho    229    ccc    H21  10926 0.40508000   1.008000   ; qtot 230.195801
10927         hn    229    ccc    H22  10927 0.31758000   1.008000   ; qtot 230.513381
10928         h1    229    ccc    H23  10928 0.06278000   1.008000   ; qtot 230.576161
10929         h1    229    ccc    H24  10929 0.06278000   1.008000   ; qtot 230.638941
10930         oh    229    ccc     O7  10930 -0.59472000  16.000000   ; qtot 230.044221
10931         ho    229    ccc    H25  10931 0.41908000   1.008000   ; qtot 230.463301
10932         os    229    ccc     O8  10932 -0.44552000  16.000000   ; qtot 230.017781
10933         ho    229    ccc    H26  10933 0.41908000   1.008000   ; qtot 230.436861
10934         h1    229    ccc    H27  10934 0.08578000   1.008000   ; qtot 230.522641
10935         oh    229    ccc     O9  10935 -0.58672000  16.000000   ; qtot 229.935921
10936         ho    229    ccc    H28  10936 0.41908000   1.008000   ; qtot 230.355001
10937         n3    229    ccc     N3  10937 -0.54282000  14.010000   ; qtot 229.812181
10938         c3    229    ccc    C17  10938 0.08518000  12.010000   ; qtot 229.897361
10939         c3    229    ccc    C18  10939 0.07918000  12.010000   ; qtot 229.976541
10940         h1    229    ccc    H29  10940 0.06978000   1.008000   ; qtot 230.046321
10941         c3    229    ccc    C19  10941 0.07918000  12.010000   ; qtot 230.125501
10942         c3    229    ccc    C20  10942 0.03578000  12.010000   ; qtot 230.161281
10943         c3    229    ccc    C21  10943 0.33498000  12.010000   ; qtot 230.496261
10944         h1    229    ccc    H30  10944 0.06178000   1.008000   ; qtot 230.558041
10945         h1    229    ccc    H31  10945 0.11278000   1.008000   ; qtot 230.670821
10946         h2    229    ccc    H32  10946 0.12178000   1.008000   ; qtot 230.792601
10947         oh    229    ccc    O10  10947 -0.56972000  16.000000   ; qtot 230.222881
10948         oh    229    ccc    O11  10948 -0.57772000  16.000000   ; qtot 229.645161
10949         c3    229    ccc    C22  10949 0.14548000  12.010000   ; qtot 229.790641
10950         ho    229    ccc    H33  10950 0.40508000   1.008000   ; qtot 230.195721
10951         hn    229    ccc    H34  10951 0.31758000   1.008000   ; qtot 230.513301
10952         h1    229    ccc    H35  10952 0.06278000   1.008000   ; qtot 230.576081
10953         h1    229    ccc    H36  10953 0.06278000   1.008000   ; qtot 230.638861
10954         oh    229    ccc    O12  10954 -0.59472000  16.000000   ; qtot 230.044141
10955         ho    229    ccc    H37  10955 0.41908000   1.008000   ; qtot 230.463221
10956         os    229    ccc    O13  10956 -0.44552000  16.000000   ; qtot 230.017701
10957         ho    229    ccc    H38  10957 0.41908000   1.008000   ; qtot 230.436781
10958         h1    229    ccc    H39  10958 0.08578000   1.008000   ; qtot 230.522561
10959         oh    229    ccc     O5  10959 -0.58672000  16.000000   ; qtot 229.935841
10960         ho    229    ccc    H40  10960 0.41908000   1.008000   ; qtot 230.354921
10961         n3    229    ccc     N4  10961 -0.54282000  14.010000   ; qtot 229.812101
10962         hn    229    ccc    H41  10962 0.17125500   1.008000   ; qtot 229.983356
; residue  230 ccc rtp ccc q 1.0
10963          n    230    ccc     N1  10963 -0.33303000  14.010000   ; qtot 229.650326
10964         hn    230    ccc     H4  10964 0.25916100   1.008000   ; qtot 229.909487
10965         c3    230    ccc     C3  10965 -0.03328100  12.010000   ; qtot 229.876206
10966         h1    230    ccc     H5  10966 0.10618100   1.008000   ; qtot 229.982387
10967         c3    230    ccc     C4  10967 -0.02083000  12.010000   ; qtot 229.961557
10968         h1    230    ccc     H6  10968 0.10618100   1.008000   ; qtot 230.067738
10969         h1    230    ccc     H7  10969 0.07988000   1.008000   ; qtot 230.147618
10970         h1    230    ccc     H8  10970 0.07988000   1.008000   ; qtot 230.227498
10971         n4    230    ccc     N2  10971 -0.02747900  14.010000   ; qtot 230.200019
10972         c3    230    ccc     C5  10972 -0.05097600  12.010000   ; qtot 230.149043
10973         c3    230    ccc     C6  10973 -0.05097600  12.010000   ; qtot 230.098067
10974         h1    230    ccc     H9  10974 0.11563300   1.008000   ; qtot 230.213700
10975         c3    230    ccc     C7  10975 -0.18457900  12.010000   ; qtot 230.029121
10976         h1    230    ccc    H10  10976 0.11563300   1.008000   ; qtot 230.144754
10977         hc    230    ccc    H11  10977 0.08347900   1.008000   ; qtot 230.228233
10978         hc    230    ccc    H12  10978 0.08347900   1.008000   ; qtot 230.311712
10979          c    230    ccc     C8  10979 0.67254400  12.010000   ; qtot 230.984256
10980          o    230    ccc     O2  10980 -0.52917200  16.000000   ; qtot 230.455084
10981         h1    230    ccc    H13  10981 0.11563300   1.008000   ; qtot 230.570717
10982         h1    230    ccc    H14  10982 0.11563300   1.008000   ; qtot 230.686350
10983         c3    230    ccc     C9  10983 -0.18457900  12.010000   ; qtot 230.501771
10984         hc    230    ccc    H15  10984 0.08347900   1.008000   ; qtot 230.585250
10985         hc    230    ccc    H16  10985 0.08347900   1.008000   ; qtot 230.668729
10986          c    230    ccc    C10  10986 0.67254400  12.010000   ; qtot 231.341273
10987          o    230    ccc     O4  10987 -0.52917200  16.000000   ; qtot 230.812101
10988         c3    230    ccc    C11  10988 0.08518000  12.010000   ; qtot 230.897281
10989         c3    230    ccc    C12  10989 0.07918000  12.010000   ; qtot 230.976461
10990         h1    230    ccc    H17  10990 0.06978000   1.008000   ; qtot 231.046241
10991         c3    230    ccc    C13  10991 0.07918000  12.010000   ; qtot 231.125421
10992         c3    230    ccc    C14  10992 0.03578000  12.010000   ; qtot 231.161201
10993         c3    230    ccc    C15  10993 0.33498000  12.010000   ; qtot 231.496181
10994         h1    230    ccc    H18  10994 0.06178000   1.008000   ; qtot 231.557961
10995         h1    230    ccc    H19  10995 0.11278000   1.008000   ; qtot 231.670741
10996         h2    230    ccc    H20  10996 0.12178000   1.008000   ; qtot 231.792521
10997         oh    230    ccc     O1  10997 -0.56972000  16.000000   ; qtot 231.222801
10998         oh    230    ccc     O6  10998 -0.57772000  16.000000   ; qtot 230.645081
10999         c3    230    ccc    C16  10999 0.14548000  12.010000   ; qtot 230.790561
11000         ho    230    ccc    H21  11000 0.40508000   1.008000   ; qtot 231.195641
11001         hn    230    ccc    H22  11001 0.31758000   1.008000   ; qtot 231.513221
11002         h1    230    ccc    H23  11002 0.06278000   1.008000   ; qtot 231.576001
11003         h1    230    ccc    H24  11003 0.06278000   1.008000   ; qtot 231.638781
11004         oh    230    ccc     O7  11004 -0.59472000  16.000000   ; qtot 231.044061
11005         ho    230    ccc    H25  11005 0.41908000   1.008000   ; qtot 231.463141
11006         os    230    ccc     O8  11006 -0.44552000  16.000000   ; qtot 231.017621
11007         ho    230    ccc    H26  11007 0.41908000   1.008000   ; qtot 231.436701
11008         h1    230    ccc    H27  11008 0.08578000   1.008000   ; qtot 231.522481
11009         oh    230    ccc     O9  11009 -0.58672000  16.000000   ; qtot 230.935761
11010         ho    230    ccc    H28  11010 0.41908000   1.008000   ; qtot 231.354841
11011         n3    230    ccc     N3  11011 -0.54282000  14.010000   ; qtot 230.812021
11012         c3    230    ccc    C17  11012 0.08518000  12.010000   ; qtot 230.897201
11013         c3    230    ccc    C18  11013 0.07918000  12.010000   ; qtot 230.976381
11014         h1    230    ccc    H29  11014 0.06978000   1.008000   ; qtot 231.046161
11015         c3    230    ccc    C19  11015 0.07918000  12.010000   ; qtot 231.125341
11016         c3    230    ccc    C20  11016 0.03578000  12.010000   ; qtot 231.161121
11017         c3    230    ccc    C21  11017 0.33498000  12.010000   ; qtot 231.496101
11018         h1    230    ccc    H30  11018 0.06178000   1.008000   ; qtot 231.557881
11019         h1    230    ccc    H31  11019 0.11278000   1.008000   ; qtot 231.670661
11020         h2    230    ccc    H32  11020 0.12178000   1.008000   ; qtot 231.792441
11021         oh    230    ccc    O10  11021 -0.56972000  16.000000   ; qtot 231.222721
11022         oh    230    ccc    O11  11022 -0.57772000  16.000000   ; qtot 230.645001
11023         c3    230    ccc    C22  11023 0.14548000  12.010000   ; qtot 230.790481
11024         ho    230    ccc    H33  11024 0.40508000   1.008000   ; qtot 231.195561
11025         hn    230    ccc    H34  11025 0.31758000   1.008000   ; qtot 231.513141
11026         h1    230    ccc    H35  11026 0.06278000   1.008000   ; qtot 231.575921
11027         h1    230    ccc    H36  11027 0.06278000   1.008000   ; qtot 231.638701
11028         oh    230    ccc    O12  11028 -0.59472000  16.000000   ; qtot 231.043981
11029         ho    230    ccc    H37  11029 0.41908000   1.008000   ; qtot 231.463061
11030         os    230    ccc    O13  11030 -0.44552000  16.000000   ; qtot 231.017541
11031         ho    230    ccc    H38  11031 0.41908000   1.008000   ; qtot 231.436621
11032         h1    230    ccc    H39  11032 0.08578000   1.008000   ; qtot 231.522401
11033         oh    230    ccc     O5  11033 -0.58672000  16.000000   ; qtot 230.935681
11034         ho    230    ccc    H40  11034 0.41908000   1.008000   ; qtot 231.354761
11035         n3    230    ccc     N4  11035 -0.54282000  14.010000   ; qtot 230.811941
11036         hn    230    ccc    H41  11036 0.17125500   1.008000   ; qtot 230.983196
; residue  231 ccc rtp ccc q 1.0
11037          n    231    ccc     N1  11037 -0.33303000  14.010000   ; qtot 230.650166
11038         hn    231    ccc     H4  11038 0.25916100   1.008000   ; qtot 230.909327
11039         c3    231    ccc     C3  11039 -0.03328100  12.010000   ; qtot 230.876046
11040         h1    231    ccc     H5  11040 0.10618100   1.008000   ; qtot 230.982227
11041         c3    231    ccc     C4  11041 -0.02083000  12.010000   ; qtot 230.961397
11042         h1    231    ccc     H6  11042 0.10618100   1.008000   ; qtot 231.067578
11043         h1    231    ccc     H7  11043 0.07988000   1.008000   ; qtot 231.147458
11044         h1    231    ccc     H8  11044 0.07988000   1.008000   ; qtot 231.227338
11045         n4    231    ccc     N2  11045 -0.02747900  14.010000   ; qtot 231.199859
11046         c3    231    ccc     C5  11046 -0.05097600  12.010000   ; qtot 231.148883
11047         c3    231    ccc     C6  11047 -0.05097600  12.010000   ; qtot 231.097907
11048         h1    231    ccc     H9  11048 0.11563300   1.008000   ; qtot 231.213540
11049         c3    231    ccc     C7  11049 -0.18457900  12.010000   ; qtot 231.028961
11050         h1    231    ccc    H10  11050 0.11563300   1.008000   ; qtot 231.144594
11051         hc    231    ccc    H11  11051 0.08347900   1.008000   ; qtot 231.228073
11052         hc    231    ccc    H12  11052 0.08347900   1.008000   ; qtot 231.311552
11053          c    231    ccc     C8  11053 0.67254400  12.010000   ; qtot 231.984096
11054          o    231    ccc     O2  11054 -0.52917200  16.000000   ; qtot 231.454924
11055         h1    231    ccc    H13  11055 0.11563300   1.008000   ; qtot 231.570557
11056         h1    231    ccc    H14  11056 0.11563300   1.008000   ; qtot 231.686190
11057         c3    231    ccc     C9  11057 -0.18457900  12.010000   ; qtot 231.501611
11058         hc    231    ccc    H15  11058 0.08347900   1.008000   ; qtot 231.585090
11059         hc    231    ccc    H16  11059 0.08347900   1.008000   ; qtot 231.668569
11060          c    231    ccc    C10  11060 0.67254400  12.010000   ; qtot 232.341113
11061          o    231    ccc     O4  11061 -0.52917200  16.000000   ; qtot 231.811941
11062         c3    231    ccc    C11  11062 0.08518000  12.010000   ; qtot 231.897121
11063         c3    231    ccc    C12  11063 0.07918000  12.010000   ; qtot 231.976301
11064         h1    231    ccc    H17  11064 0.06978000   1.008000   ; qtot 232.046081
11065         c3    231    ccc    C13  11065 0.07918000  12.010000   ; qtot 232.125261
11066         c3    231    ccc    C14  11066 0.03578000  12.010000   ; qtot 232.161041
11067         c3    231    ccc    C15  11067 0.33498000  12.010000   ; qtot 232.496021
11068         h1    231    ccc    H18  11068 0.06178000   1.008000   ; qtot 232.557801
11069         h1    231    ccc    H19  11069 0.11278000   1.008000   ; qtot 232.670581
11070         h2    231    ccc    H20  11070 0.12178000   1.008000   ; qtot 232.792361
11071         oh    231    ccc     O1  11071 -0.56972000  16.000000   ; qtot 232.222641
11072         oh    231    ccc     O6  11072 -0.57772000  16.000000   ; qtot 231.644921
11073         c3    231    ccc    C16  11073 0.14548000  12.010000   ; qtot 231.790401
11074         ho    231    ccc    H21  11074 0.40508000   1.008000   ; qtot 232.195481
11075         hn    231    ccc    H22  11075 0.31758000   1.008000   ; qtot 232.513061
11076         h1    231    ccc    H23  11076 0.06278000   1.008000   ; qtot 232.575841
11077         h1    231    ccc    H24  11077 0.06278000   1.008000   ; qtot 232.638621
11078         oh    231    ccc     O7  11078 -0.59472000  16.000000   ; qtot 232.043901
11079         ho    231    ccc    H25  11079 0.41908000   1.008000   ; qtot 232.462981
11080         os    231    ccc     O8  11080 -0.44552000  16.000000   ; qtot 232.017461
11081         ho    231    ccc    H26  11081 0.41908000   1.008000   ; qtot 232.436541
11082         h1    231    ccc    H27  11082 0.08578000   1.008000   ; qtot 232.522321
11083         oh    231    ccc     O9  11083 -0.58672000  16.000000   ; qtot 231.935601
11084         ho    231    ccc    H28  11084 0.41908000   1.008000   ; qtot 232.354681
11085         n3    231    ccc     N3  11085 -0.54282000  14.010000   ; qtot 231.811861
11086         c3    231    ccc    C17  11086 0.08518000  12.010000   ; qtot 231.897041
11087         c3    231    ccc    C18  11087 0.07918000  12.010000   ; qtot 231.976221
11088         h1    231    ccc    H29  11088 0.06978000   1.008000   ; qtot 232.046001
11089         c3    231    ccc    C19  11089 0.07918000  12.010000   ; qtot 232.125181
11090         c3    231    ccc    C20  11090 0.03578000  12.010000   ; qtot 232.160961
11091         c3    231    ccc    C21  11091 0.33498000  12.010000   ; qtot 232.495941
11092         h1    231    ccc    H30  11092 0.06178000   1.008000   ; qtot 232.557721
11093         h1    231    ccc    H31  11093 0.11278000   1.008000   ; qtot 232.670501
11094         h2    231    ccc    H32  11094 0.12178000   1.008000   ; qtot 232.792281
11095         oh    231    ccc    O10  11095 -0.56972000  16.000000   ; qtot 232.222561
11096         oh    231    ccc    O11  11096 -0.57772000  16.000000   ; qtot 231.644841
11097         c3    231    ccc    C22  11097 0.14548000  12.010000   ; qtot 231.790321
11098         ho    231    ccc    H33  11098 0.40508000   1.008000   ; qtot 232.195401
11099         hn    231    ccc    H34  11099 0.31758000   1.008000   ; qtot 232.512981
11100         h1    231    ccc    H35  11100 0.06278000   1.008000   ; qtot 232.575761
11101         h1    231    ccc    H36  11101 0.06278000   1.008000   ; qtot 232.638541
11102         oh    231    ccc    O12  11102 -0.59472000  16.000000   ; qtot 232.043821
11103         ho    231    ccc    H37  11103 0.41908000   1.008000   ; qtot 232.462901
11104         os    231    ccc    O13  11104 -0.44552000  16.000000   ; qtot 232.017381
11105         ho    231    ccc    H38  11105 0.41908000   1.008000   ; qtot 232.436461
11106         h1    231    ccc    H39  11106 0.08578000   1.008000   ; qtot 232.522241
11107         oh    231    ccc     O5  11107 -0.58672000  16.000000   ; qtot 231.935521
11108         ho    231    ccc    H40  11108 0.41908000   1.008000   ; qtot 232.354601
11109         n3    231    ccc     N4  11109 -0.54282000  14.010000   ; qtot 231.811781
11110         hn    231    ccc    H41  11110 0.17125500   1.008000   ; qtot 231.983036
; residue  232 ccc rtp ccc q 1.0
11111          n    232    ccc     N1  11111 -0.33303000  14.010000   ; qtot 231.650006
11112         hn    232    ccc     H4  11112 0.25916100   1.008000   ; qtot 231.909167
11113         c3    232    ccc     C3  11113 -0.03328100  12.010000   ; qtot 231.875886
11114         h1    232    ccc     H5  11114 0.10618100   1.008000   ; qtot 231.982067
11115         c3    232    ccc     C4  11115 -0.02083000  12.010000   ; qtot 231.961237
11116         h1    232    ccc     H6  11116 0.10618100   1.008000   ; qtot 232.067418
11117         h1    232    ccc     H7  11117 0.07988000   1.008000   ; qtot 232.147298
11118         h1    232    ccc     H8  11118 0.07988000   1.008000   ; qtot 232.227178
11119         n4    232    ccc     N2  11119 -0.02747900  14.010000   ; qtot 232.199699
11120         c3    232    ccc     C5  11120 -0.05097600  12.010000   ; qtot 232.148723
11121         c3    232    ccc     C6  11121 -0.05097600  12.010000   ; qtot 232.097747
11122         h1    232    ccc     H9  11122 0.11563300   1.008000   ; qtot 232.213380
11123         c3    232    ccc     C7  11123 -0.18457900  12.010000   ; qtot 232.028801
11124         h1    232    ccc    H10  11124 0.11563300   1.008000   ; qtot 232.144434
11125         hc    232    ccc    H11  11125 0.08347900   1.008000   ; qtot 232.227913
11126         hc    232    ccc    H12  11126 0.08347900   1.008000   ; qtot 232.311392
11127          c    232    ccc     C8  11127 0.67254400  12.010000   ; qtot 232.983936
11128          o    232    ccc     O2  11128 -0.52917200  16.000000   ; qtot 232.454764
11129         h1    232    ccc    H13  11129 0.11563300   1.008000   ; qtot 232.570397
11130         h1    232    ccc    H14  11130 0.11563300   1.008000   ; qtot 232.686030
11131         c3    232    ccc     C9  11131 -0.18457900  12.010000   ; qtot 232.501451
11132         hc    232    ccc    H15  11132 0.08347900   1.008000   ; qtot 232.584930
11133         hc    232    ccc    H16  11133 0.08347900   1.008000   ; qtot 232.668409
11134          c    232    ccc    C10  11134 0.67254400  12.010000   ; qtot 233.340953
11135          o    232    ccc     O4  11135 -0.52917200  16.000000   ; qtot 232.811781
11136         c3    232    ccc    C11  11136 0.08518000  12.010000   ; qtot 232.896961
11137         c3    232    ccc    C12  11137 0.07918000  12.010000   ; qtot 232.976141
11138         h1    232    ccc    H17  11138 0.06978000   1.008000   ; qtot 233.045921
11139         c3    232    ccc    C13  11139 0.07918000  12.010000   ; qtot 233.125101
11140         c3    232    ccc    C14  11140 0.03578000  12.010000   ; qtot 233.160881
11141         c3    232    ccc    C15  11141 0.33498000  12.010000   ; qtot 233.495861
11142         h1    232    ccc    H18  11142 0.06178000   1.008000   ; qtot 233.557641
11143         h1    232    ccc    H19  11143 0.11278000   1.008000   ; qtot 233.670421
11144         h2    232    ccc    H20  11144 0.12178000   1.008000   ; qtot 233.792201
11145         oh    232    ccc     O1  11145 -0.56972000  16.000000   ; qtot 233.222481
11146         oh    232    ccc     O6  11146 -0.57772000  16.000000   ; qtot 232.644761
11147         c3    232    ccc    C16  11147 0.14548000  12.010000   ; qtot 232.790241
11148         ho    232    ccc    H21  11148 0.40508000   1.008000   ; qtot 233.195321
11149         hn    232    ccc    H22  11149 0.31758000   1.008000   ; qtot 233.512901
11150         h1    232    ccc    H23  11150 0.06278000   1.008000   ; qtot 233.575681
11151         h1    232    ccc    H24  11151 0.06278000   1.008000   ; qtot 233.638461
11152         oh    232    ccc     O7  11152 -0.59472000  16.000000   ; qtot 233.043741
11153         ho    232    ccc    H25  11153 0.41908000   1.008000   ; qtot 233.462821
11154         os    232    ccc     O8  11154 -0.44552000  16.000000   ; qtot 233.017301
11155         ho    232    ccc    H26  11155 0.41908000   1.008000   ; qtot 233.436381
11156         h1    232    ccc    H27  11156 0.08578000   1.008000   ; qtot 233.522161
11157         oh    232    ccc     O9  11157 -0.58672000  16.000000   ; qtot 232.935441
11158         ho    232    ccc    H28  11158 0.41908000   1.008000   ; qtot 233.354521
11159         n3    232    ccc     N3  11159 -0.54282000  14.010000   ; qtot 232.811701
11160         c3    232    ccc    C17  11160 0.08518000  12.010000   ; qtot 232.896881
11161         c3    232    ccc    C18  11161 0.07918000  12.010000   ; qtot 232.976061
11162         h1    232    ccc    H29  11162 0.06978000   1.008000   ; qtot 233.045841
11163         c3    232    ccc    C19  11163 0.07918000  12.010000   ; qtot 233.125021
11164         c3    232    ccc    C20  11164 0.03578000  12.010000   ; qtot 233.160801
11165         c3    232    ccc    C21  11165 0.33498000  12.010000   ; qtot 233.495781
11166         h1    232    ccc    H30  11166 0.06178000   1.008000   ; qtot 233.557561
11167         h1    232    ccc    H31  11167 0.11278000   1.008000   ; qtot 233.670341
11168         h2    232    ccc    H32  11168 0.12178000   1.008000   ; qtot 233.792121
11169         oh    232    ccc    O10  11169 -0.56972000  16.000000   ; qtot 233.222401
11170         oh    232    ccc    O11  11170 -0.57772000  16.000000   ; qtot 232.644681
11171         c3    232    ccc    C22  11171 0.14548000  12.010000   ; qtot 232.790161
11172         ho    232    ccc    H33  11172 0.40508000   1.008000   ; qtot 233.195241
11173         hn    232    ccc    H34  11173 0.31758000   1.008000   ; qtot 233.512821
11174         h1    232    ccc    H35  11174 0.06278000   1.008000   ; qtot 233.575601
11175         h1    232    ccc    H36  11175 0.06278000   1.008000   ; qtot 233.638381
11176         oh    232    ccc    O12  11176 -0.59472000  16.000000   ; qtot 233.043661
11177         ho    232    ccc    H37  11177 0.41908000   1.008000   ; qtot 233.462741
11178         os    232    ccc    O13  11178 -0.44552000  16.000000   ; qtot 233.017221
11179         ho    232    ccc    H38  11179 0.41908000   1.008000   ; qtot 233.436301
11180         h1    232    ccc    H39  11180 0.08578000   1.008000   ; qtot 233.522081
11181         oh    232    ccc     O5  11181 -0.58672000  16.000000   ; qtot 232.935361
11182         ho    232    ccc    H40  11182 0.41908000   1.008000   ; qtot 233.354441
11183         n3    232    ccc     N4  11183 -0.54282000  14.010000   ; qtot 232.811621
11184         hn    232    ccc    H41  11184 0.17125500   1.008000   ; qtot 232.982876
; residue  233 ccc rtp ccc q 1.0
11185          n    233    ccc     N1  11185 -0.33303000  14.010000   ; qtot 232.649846
11186         hn    233    ccc     H4  11186 0.25916100   1.008000   ; qtot 232.909007
11187         c3    233    ccc     C3  11187 -0.03328100  12.010000   ; qtot 232.875726
11188         h1    233    ccc     H5  11188 0.10618100   1.008000   ; qtot 232.981907
11189         c3    233    ccc     C4  11189 -0.02083000  12.010000   ; qtot 232.961077
11190         h1    233    ccc     H6  11190 0.10618100   1.008000   ; qtot 233.067258
11191         h1    233    ccc     H7  11191 0.07988000   1.008000   ; qtot 233.147138
11192         h1    233    ccc     H8  11192 0.07988000   1.008000   ; qtot 233.227018
11193         n4    233    ccc     N2  11193 -0.02747900  14.010000   ; qtot 233.199539
11194         c3    233    ccc     C5  11194 -0.05097600  12.010000   ; qtot 233.148563
11195         c3    233    ccc     C6  11195 -0.05097600  12.010000   ; qtot 233.097587
11196         h1    233    ccc     H9  11196 0.11563300   1.008000   ; qtot 233.213220
11197         c3    233    ccc     C7  11197 -0.18457900  12.010000   ; qtot 233.028641
11198         h1    233    ccc    H10  11198 0.11563300   1.008000   ; qtot 233.144274
11199         hc    233    ccc    H11  11199 0.08347900   1.008000   ; qtot 233.227753
11200         hc    233    ccc    H12  11200 0.08347900   1.008000   ; qtot 233.311232
11201          c    233    ccc     C8  11201 0.67254400  12.010000   ; qtot 233.983776
11202          o    233    ccc     O2  11202 -0.52917200  16.000000   ; qtot 233.454604
11203         h1    233    ccc    H13  11203 0.11563300   1.008000   ; qtot 233.570237
11204         h1    233    ccc    H14  11204 0.11563300   1.008000   ; qtot 233.685870
11205         c3    233    ccc     C9  11205 -0.18457900  12.010000   ; qtot 233.501291
11206         hc    233    ccc    H15  11206 0.08347900   1.008000   ; qtot 233.584770
11207         hc    233    ccc    H16  11207 0.08347900   1.008000   ; qtot 233.668249
11208          c    233    ccc    C10  11208 0.67254400  12.010000   ; qtot 234.340793
11209          o    233    ccc     O4  11209 -0.52917200  16.000000   ; qtot 233.811621
11210         c3    233    ccc    C11  11210 0.08518000  12.010000   ; qtot 233.896801
11211         c3    233    ccc    C12  11211 0.07918000  12.010000   ; qtot 233.975981
11212         h1    233    ccc    H17  11212 0.06978000   1.008000   ; qtot 234.045761
11213         c3    233    ccc    C13  11213 0.07918000  12.010000   ; qtot 234.124941
11214         c3    233    ccc    C14  11214 0.03578000  12.010000   ; qtot 234.160721
11215         c3    233    ccc    C15  11215 0.33498000  12.010000   ; qtot 234.495701
11216         h1    233    ccc    H18  11216 0.06178000   1.008000   ; qtot 234.557481
11217         h1    233    ccc    H19  11217 0.11278000   1.008000   ; qtot 234.670261
11218         h2    233    ccc    H20  11218 0.12178000   1.008000   ; qtot 234.792041
11219         oh    233    ccc     O1  11219 -0.56972000  16.000000   ; qtot 234.222321
11220         oh    233    ccc     O6  11220 -0.57772000  16.000000   ; qtot 233.644601
11221         c3    233    ccc    C16  11221 0.14548000  12.010000   ; qtot 233.790081
11222         ho    233    ccc    H21  11222 0.40508000   1.008000   ; qtot 234.195161
11223         hn    233    ccc    H22  11223 0.31758000   1.008000   ; qtot 234.512741
11224         h1    233    ccc    H23  11224 0.06278000   1.008000   ; qtot 234.575521
11225         h1    233    ccc    H24  11225 0.06278000   1.008000   ; qtot 234.638301
11226         oh    233    ccc     O7  11226 -0.59472000  16.000000   ; qtot 234.043581
11227         ho    233    ccc    H25  11227 0.41908000   1.008000   ; qtot 234.462661
11228         os    233    ccc     O8  11228 -0.44552000  16.000000   ; qtot 234.017141
11229         ho    233    ccc    H26  11229 0.41908000   1.008000   ; qtot 234.436221
11230         h1    233    ccc    H27  11230 0.08578000   1.008000   ; qtot 234.522001
11231         oh    233    ccc     O9  11231 -0.58672000  16.000000   ; qtot 233.935281
11232         ho    233    ccc    H28  11232 0.41908000   1.008000   ; qtot 234.354361
11233         n3    233    ccc     N3  11233 -0.54282000  14.010000   ; qtot 233.811541
11234         c3    233    ccc    C17  11234 0.08518000  12.010000   ; qtot 233.896721
11235         c3    233    ccc    C18  11235 0.07918000  12.010000   ; qtot 233.975901
11236         h1    233    ccc    H29  11236 0.06978000   1.008000   ; qtot 234.045681
11237         c3    233    ccc    C19  11237 0.07918000  12.010000   ; qtot 234.124861
11238         c3    233    ccc    C20  11238 0.03578000  12.010000   ; qtot 234.160641
11239         c3    233    ccc    C21  11239 0.33498000  12.010000   ; qtot 234.495621
11240         h1    233    ccc    H30  11240 0.06178000   1.008000   ; qtot 234.557401
11241         h1    233    ccc    H31  11241 0.11278000   1.008000   ; qtot 234.670181
11242         h2    233    ccc    H32  11242 0.12178000   1.008000   ; qtot 234.791961
11243         oh    233    ccc    O10  11243 -0.56972000  16.000000   ; qtot 234.222241
11244         oh    233    ccc    O11  11244 -0.57772000  16.000000   ; qtot 233.644521
11245         c3    233    ccc    C22  11245 0.14548000  12.010000   ; qtot 233.790001
11246         ho    233    ccc    H33  11246 0.40508000   1.008000   ; qtot 234.195081
11247         hn    233    ccc    H34  11247 0.31758000   1.008000   ; qtot 234.512661
11248         h1    233    ccc    H35  11248 0.06278000   1.008000   ; qtot 234.575441
11249         h1    233    ccc    H36  11249 0.06278000   1.008000   ; qtot 234.638221
11250         oh    233    ccc    O12  11250 -0.59472000  16.000000   ; qtot 234.043501
11251         ho    233    ccc    H37  11251 0.41908000   1.008000   ; qtot 234.462581
11252         os    233    ccc    O13  11252 -0.44552000  16.000000   ; qtot 234.017061
11253         ho    233    ccc    H38  11253 0.41908000   1.008000   ; qtot 234.436141
11254         h1    233    ccc    H39  11254 0.08578000   1.008000   ; qtot 234.521921
11255         oh    233    ccc     O5  11255 -0.58672000  16.000000   ; qtot 233.935201
11256         ho    233    ccc    H40  11256 0.41908000   1.008000   ; qtot 234.354281
11257         n3    233    ccc     N4  11257 -0.54282000  14.010000   ; qtot 233.811461
11258         hn    233    ccc    H41  11258 0.17125500   1.008000   ; qtot 233.982716
; residue  234 ccc rtp ccc q 1.0
11259          n    234    ccc     N1  11259 -0.33303000  14.010000   ; qtot 233.649686
11260         hn    234    ccc     H4  11260 0.25916100   1.008000   ; qtot 233.908847
11261         c3    234    ccc     C3  11261 -0.03328100  12.010000   ; qtot 233.875566
11262         h1    234    ccc     H5  11262 0.10618100   1.008000   ; qtot 233.981747
11263         c3    234    ccc     C4  11263 -0.02083000  12.010000   ; qtot 233.960917
11264         h1    234    ccc     H6  11264 0.10618100   1.008000   ; qtot 234.067098
11265         h1    234    ccc     H7  11265 0.07988000   1.008000   ; qtot 234.146978
11266         h1    234    ccc     H8  11266 0.07988000   1.008000   ; qtot 234.226858
11267         n4    234    ccc     N2  11267 -0.02747900  14.010000   ; qtot 234.199379
11268         c3    234    ccc     C5  11268 -0.05097600  12.010000   ; qtot 234.148403
11269         c3    234    ccc     C6  11269 -0.05097600  12.010000   ; qtot 234.097427
11270         h1    234    ccc     H9  11270 0.11563300   1.008000   ; qtot 234.213060
11271         c3    234    ccc     C7  11271 -0.18457900  12.010000   ; qtot 234.028481
11272         h1    234    ccc    H10  11272 0.11563300   1.008000   ; qtot 234.144114
11273         hc    234    ccc    H11  11273 0.08347900   1.008000   ; qtot 234.227593
11274         hc    234    ccc    H12  11274 0.08347900   1.008000   ; qtot 234.311072
11275          c    234    ccc     C8  11275 0.67254400  12.010000   ; qtot 234.983616
11276          o    234    ccc     O2  11276 -0.52917200  16.000000   ; qtot 234.454444
11277         h1    234    ccc    H13  11277 0.11563300   1.008000   ; qtot 234.570077
11278         h1    234    ccc    H14  11278 0.11563300   1.008000   ; qtot 234.685710
11279         c3    234    ccc     C9  11279 -0.18457900  12.010000   ; qtot 234.501131
11280         hc    234    ccc    H15  11280 0.08347900   1.008000   ; qtot 234.584610
11281         hc    234    ccc    H16  11281 0.08347900   1.008000   ; qtot 234.668089
11282          c    234    ccc    C10  11282 0.67254400  12.010000   ; qtot 235.340633
11283          o    234    ccc     O4  11283 -0.52917200  16.000000   ; qtot 234.811461
11284         c3    234    ccc    C11  11284 0.08518000  12.010000   ; qtot 234.896641
11285         c3    234    ccc    C12  11285 0.07918000  12.010000   ; qtot 234.975821
11286         h1    234    ccc    H17  11286 0.06978000   1.008000   ; qtot 235.045601
11287         c3    234    ccc    C13  11287 0.07918000  12.010000   ; qtot 235.124781
11288         c3    234    ccc    C14  11288 0.03578000  12.010000   ; qtot 235.160561
11289         c3    234    ccc    C15  11289 0.33498000  12.010000   ; qtot 235.495541
11290         h1    234    ccc    H18  11290 0.06178000   1.008000   ; qtot 235.557321
11291         h1    234    ccc    H19  11291 0.11278000   1.008000   ; qtot 235.670101
11292         h2    234    ccc    H20  11292 0.12178000   1.008000   ; qtot 235.791881
11293         oh    234    ccc     O1  11293 -0.56972000  16.000000   ; qtot 235.222161
11294         oh    234    ccc     O6  11294 -0.57772000  16.000000   ; qtot 234.644441
11295         c3    234    ccc    C16  11295 0.14548000  12.010000   ; qtot 234.789921
11296         ho    234    ccc    H21  11296 0.40508000   1.008000   ; qtot 235.195001
11297         hn    234    ccc    H22  11297 0.31758000   1.008000   ; qtot 235.512581
11298         h1    234    ccc    H23  11298 0.06278000   1.008000   ; qtot 235.575361
11299         h1    234    ccc    H24  11299 0.06278000   1.008000   ; qtot 235.638141
11300         oh    234    ccc     O7  11300 -0.59472000  16.000000   ; qtot 235.043421
11301         ho    234    ccc    H25  11301 0.41908000   1.008000   ; qtot 235.462501
11302         os    234    ccc     O8  11302 -0.44552000  16.000000   ; qtot 235.016981
11303         ho    234    ccc    H26  11303 0.41908000   1.008000   ; qtot 235.436061
11304         h1    234    ccc    H27  11304 0.08578000   1.008000   ; qtot 235.521841
11305         oh    234    ccc     O9  11305 -0.58672000  16.000000   ; qtot 234.935121
11306         ho    234    ccc    H28  11306 0.41908000   1.008000   ; qtot 235.354201
11307         n3    234    ccc     N3  11307 -0.54282000  14.010000   ; qtot 234.811381
11308         c3    234    ccc    C17  11308 0.08518000  12.010000   ; qtot 234.896561
11309         c3    234    ccc    C18  11309 0.07918000  12.010000   ; qtot 234.975741
11310         h1    234    ccc    H29  11310 0.06978000   1.008000   ; qtot 235.045521
11311         c3    234    ccc    C19  11311 0.07918000  12.010000   ; qtot 235.124701
11312         c3    234    ccc    C20  11312 0.03578000  12.010000   ; qtot 235.160481
11313         c3    234    ccc    C21  11313 0.33498000  12.010000   ; qtot 235.495461
11314         h1    234    ccc    H30  11314 0.06178000   1.008000   ; qtot 235.557241
11315         h1    234    ccc    H31  11315 0.11278000   1.008000   ; qtot 235.670021
11316         h2    234    ccc    H32  11316 0.12178000   1.008000   ; qtot 235.791801
11317         oh    234    ccc    O10  11317 -0.56972000  16.000000   ; qtot 235.222081
11318         oh    234    ccc    O11  11318 -0.57772000  16.000000   ; qtot 234.644361
11319         c3    234    ccc    C22  11319 0.14548000  12.010000   ; qtot 234.789841
11320         ho    234    ccc    H33  11320 0.40508000   1.008000   ; qtot 235.194921
11321         hn    234    ccc    H34  11321 0.31758000   1.008000   ; qtot 235.512501
11322         h1    234    ccc    H35  11322 0.06278000   1.008000   ; qtot 235.575281
11323         h1    234    ccc    H36  11323 0.06278000   1.008000   ; qtot 235.638061
11324         oh    234    ccc    O12  11324 -0.59472000  16.000000   ; qtot 235.043341
11325         ho    234    ccc    H37  11325 0.41908000   1.008000   ; qtot 235.462421
11326         os    234    ccc    O13  11326 -0.44552000  16.000000   ; qtot 235.016901
11327         ho    234    ccc    H38  11327 0.41908000   1.008000   ; qtot 235.435981
11328         h1    234    ccc    H39  11328 0.08578000   1.008000   ; qtot 235.521761
11329         oh    234    ccc     O5  11329 -0.58672000  16.000000   ; qtot 234.935041
11330         ho    234    ccc    H40  11330 0.41908000   1.008000   ; qtot 235.354121
11331         n3    234    ccc     N4  11331 -0.54282000  14.010000   ; qtot 234.811301
11332         hn    234    ccc    H41  11332 0.17125500   1.008000   ; qtot 234.982556
; residue  235 ccc rtp ccc q 1.0
11333          n    235    ccc     N1  11333 -0.33303000  14.010000   ; qtot 234.649526
11334         hn    235    ccc     H4  11334 0.25916100   1.008000   ; qtot 234.908687
11335         c3    235    ccc     C3  11335 -0.03328100  12.010000   ; qtot 234.875406
11336         h1    235    ccc     H5  11336 0.10618100   1.008000   ; qtot 234.981587
11337         c3    235    ccc     C4  11337 -0.02083000  12.010000   ; qtot 234.960757
11338         h1    235    ccc     H6  11338 0.10618100   1.008000   ; qtot 235.066938
11339         h1    235    ccc     H7  11339 0.07988000   1.008000   ; qtot 235.146818
11340         h1    235    ccc     H8  11340 0.07988000   1.008000   ; qtot 235.226698
11341         n4    235    ccc     N2  11341 -0.02747900  14.010000   ; qtot 235.199219
11342         c3    235    ccc     C5  11342 -0.05097600  12.010000   ; qtot 235.148243
11343         c3    235    ccc     C6  11343 -0.05097600  12.010000   ; qtot 235.097267
11344         h1    235    ccc     H9  11344 0.11563300   1.008000   ; qtot 235.212900
11345         c3    235    ccc     C7  11345 -0.18457900  12.010000   ; qtot 235.028321
11346         h1    235    ccc    H10  11346 0.11563300   1.008000   ; qtot 235.143954
11347         hc    235    ccc    H11  11347 0.08347900   1.008000   ; qtot 235.227433
11348         hc    235    ccc    H12  11348 0.08347900   1.008000   ; qtot 235.310912
11349          c    235    ccc     C8  11349 0.67254400  12.010000   ; qtot 235.983456
11350          o    235    ccc     O2  11350 -0.52917200  16.000000   ; qtot 235.454284
11351         h1    235    ccc    H13  11351 0.11563300   1.008000   ; qtot 235.569917
11352         h1    235    ccc    H14  11352 0.11563300   1.008000   ; qtot 235.685550
11353         c3    235    ccc     C9  11353 -0.18457900  12.010000   ; qtot 235.500971
11354         hc    235    ccc    H15  11354 0.08347900   1.008000   ; qtot 235.584450
11355         hc    235    ccc    H16  11355 0.08347900   1.008000   ; qtot 235.667929
11356          c    235    ccc    C10  11356 0.67254400  12.010000   ; qtot 236.340473
11357          o    235    ccc     O4  11357 -0.52917200  16.000000   ; qtot 235.811301
11358         c3    235    ccc    C11  11358 0.08518000  12.010000   ; qtot 235.896481
11359         c3    235    ccc    C12  11359 0.07918000  12.010000   ; qtot 235.975661
11360         h1    235    ccc    H17  11360 0.06978000   1.008000   ; qtot 236.045441
11361         c3    235    ccc    C13  11361 0.07918000  12.010000   ; qtot 236.124621
11362         c3    235    ccc    C14  11362 0.03578000  12.010000   ; qtot 236.160401
11363         c3    235    ccc    C15  11363 0.33498000  12.010000   ; qtot 236.495381
11364         h1    235    ccc    H18  11364 0.06178000   1.008000   ; qtot 236.557161
11365         h1    235    ccc    H19  11365 0.11278000   1.008000   ; qtot 236.669941
11366         h2    235    ccc    H20  11366 0.12178000   1.008000   ; qtot 236.791721
11367         oh    235    ccc     O1  11367 -0.56972000  16.000000   ; qtot 236.222001
11368         oh    235    ccc     O6  11368 -0.57772000  16.000000   ; qtot 235.644281
11369         c3    235    ccc    C16  11369 0.14548000  12.010000   ; qtot 235.789761
11370         ho    235    ccc    H21  11370 0.40508000   1.008000   ; qtot 236.194841
11371         hn    235    ccc    H22  11371 0.31758000   1.008000   ; qtot 236.512421
11372         h1    235    ccc    H23  11372 0.06278000   1.008000   ; qtot 236.575201
11373         h1    235    ccc    H24  11373 0.06278000   1.008000   ; qtot 236.637981
11374         oh    235    ccc     O7  11374 -0.59472000  16.000000   ; qtot 236.043261
11375         ho    235    ccc    H25  11375 0.41908000   1.008000   ; qtot 236.462341
11376         os    235    ccc     O8  11376 -0.44552000  16.000000   ; qtot 236.016821
11377         ho    235    ccc    H26  11377 0.41908000   1.008000   ; qtot 236.435901
11378         h1    235    ccc    H27  11378 0.08578000   1.008000   ; qtot 236.521681
11379         oh    235    ccc     O9  11379 -0.58672000  16.000000   ; qtot 235.934961
11380         ho    235    ccc    H28  11380 0.41908000   1.008000   ; qtot 236.354041
11381         n3    235    ccc     N3  11381 -0.54282000  14.010000   ; qtot 235.811221
11382         c3    235    ccc    C17  11382 0.08518000  12.010000   ; qtot 235.896401
11383         c3    235    ccc    C18  11383 0.07918000  12.010000   ; qtot 235.975581
11384         h1    235    ccc    H29  11384 0.06978000   1.008000   ; qtot 236.045361
11385         c3    235    ccc    C19  11385 0.07918000  12.010000   ; qtot 236.124541
11386         c3    235    ccc    C20  11386 0.03578000  12.010000   ; qtot 236.160321
11387         c3    235    ccc    C21  11387 0.33498000  12.010000   ; qtot 236.495301
11388         h1    235    ccc    H30  11388 0.06178000   1.008000   ; qtot 236.557081
11389         h1    235    ccc    H31  11389 0.11278000   1.008000   ; qtot 236.669861
11390         h2    235    ccc    H32  11390 0.12178000   1.008000   ; qtot 236.791641
11391         oh    235    ccc    O10  11391 -0.56972000  16.000000   ; qtot 236.221921
11392         oh    235    ccc    O11  11392 -0.57772000  16.000000   ; qtot 235.644201
11393         c3    235    ccc    C22  11393 0.14548000  12.010000   ; qtot 235.789681
11394         ho    235    ccc    H33  11394 0.40508000   1.008000   ; qtot 236.194761
11395         hn    235    ccc    H34  11395 0.31758000   1.008000   ; qtot 236.512341
11396         h1    235    ccc    H35  11396 0.06278000   1.008000   ; qtot 236.575121
11397         h1    235    ccc    H36  11397 0.06278000   1.008000   ; qtot 236.637901
11398         oh    235    ccc    O12  11398 -0.59472000  16.000000   ; qtot 236.043181
11399         ho    235    ccc    H37  11399 0.41908000   1.008000   ; qtot 236.462261
11400         os    235    ccc    O13  11400 -0.44552000  16.000000   ; qtot 236.016741
11401         ho    235    ccc    H38  11401 0.41908000   1.008000   ; qtot 236.435821
11402         h1    235    ccc    H39  11402 0.08578000   1.008000   ; qtot 236.521601
11403         oh    235    ccc     O5  11403 -0.58672000  16.000000   ; qtot 235.934881
11404         ho    235    ccc    H40  11404 0.41908000   1.008000   ; qtot 236.353961
11405         n3    235    ccc     N4  11405 -0.54282000  14.010000   ; qtot 235.811141
11406         hn    235    ccc    H41  11406 0.17125500   1.008000   ; qtot 235.982396
; residue  236 ccc rtp ccc q 1.0
11407          n    236    ccc     N1  11407 -0.33303000  14.010000   ; qtot 235.649366
11408         hn    236    ccc     H4  11408 0.25916100   1.008000   ; qtot 235.908527
11409         c3    236    ccc     C3  11409 -0.03328100  12.010000   ; qtot 235.875246
11410         h1    236    ccc     H5  11410 0.10618100   1.008000   ; qtot 235.981427
11411         c3    236    ccc     C4  11411 -0.02083000  12.010000   ; qtot 235.960597
11412         h1    236    ccc     H6  11412 0.10618100   1.008000   ; qtot 236.066778
11413         h1    236    ccc     H7  11413 0.07988000   1.008000   ; qtot 236.146658
11414         h1    236    ccc     H8  11414 0.07988000   1.008000   ; qtot 236.226538
11415         n4    236    ccc     N2  11415 -0.02747900  14.010000   ; qtot 236.199059
11416         c3    236    ccc     C5  11416 -0.05097600  12.010000   ; qtot 236.148083
11417         c3    236    ccc     C6  11417 -0.05097600  12.010000   ; qtot 236.097107
11418         h1    236    ccc     H9  11418 0.11563300   1.008000   ; qtot 236.212740
11419         c3    236    ccc     C7  11419 -0.18457900  12.010000   ; qtot 236.028161
11420         h1    236    ccc    H10  11420 0.11563300   1.008000   ; qtot 236.143794
11421         hc    236    ccc    H11  11421 0.08347900   1.008000   ; qtot 236.227273
11422         hc    236    ccc    H12  11422 0.08347900   1.008000   ; qtot 236.310752
11423          c    236    ccc     C8  11423 0.67254400  12.010000   ; qtot 236.983296
11424          o    236    ccc     O2  11424 -0.52917200  16.000000   ; qtot 236.454124
11425         h1    236    ccc    H13  11425 0.11563300   1.008000   ; qtot 236.569757
11426         h1    236    ccc    H14  11426 0.11563300   1.008000   ; qtot 236.685390
11427         c3    236    ccc     C9  11427 -0.18457900  12.010000   ; qtot 236.500811
11428         hc    236    ccc    H15  11428 0.08347900   1.008000   ; qtot 236.584290
11429         hc    236    ccc    H16  11429 0.08347900   1.008000   ; qtot 236.667769
11430          c    236    ccc    C10  11430 0.67254400  12.010000   ; qtot 237.340313
11431          o    236    ccc     O4  11431 -0.52917200  16.000000   ; qtot 236.811141
11432         c3    236    ccc    C11  11432 0.08518000  12.010000   ; qtot 236.896321
11433         c3    236    ccc    C12  11433 0.07918000  12.010000   ; qtot 236.975501
11434         h1    236    ccc    H17  11434 0.06978000   1.008000   ; qtot 237.045281
11435         c3    236    ccc    C13  11435 0.07918000  12.010000   ; qtot 237.124461
11436         c3    236    ccc    C14  11436 0.03578000  12.010000   ; qtot 237.160241
11437         c3    236    ccc    C15  11437 0.33498000  12.010000   ; qtot 237.495221
11438         h1    236    ccc    H18  11438 0.06178000   1.008000   ; qtot 237.557001
11439         h1    236    ccc    H19  11439 0.11278000   1.008000   ; qtot 237.669781
11440         h2    236    ccc    H20  11440 0.12178000   1.008000   ; qtot 237.791561
11441         oh    236    ccc     O1  11441 -0.56972000  16.000000   ; qtot 237.221841
11442         oh    236    ccc     O6  11442 -0.57772000  16.000000   ; qtot 236.644121
11443         c3    236    ccc    C16  11443 0.14548000  12.010000   ; qtot 236.789601
11444         ho    236    ccc    H21  11444 0.40508000   1.008000   ; qtot 237.194681
11445         hn    236    ccc    H22  11445 0.31758000   1.008000   ; qtot 237.512261
11446         h1    236    ccc    H23  11446 0.06278000   1.008000   ; qtot 237.575041
11447         h1    236    ccc    H24  11447 0.06278000   1.008000   ; qtot 237.637821
11448         oh    236    ccc     O7  11448 -0.59472000  16.000000   ; qtot 237.043101
11449         ho    236    ccc    H25  11449 0.41908000   1.008000   ; qtot 237.462181
11450         os    236    ccc     O8  11450 -0.44552000  16.000000   ; qtot 237.016661
11451         ho    236    ccc    H26  11451 0.41908000   1.008000   ; qtot 237.435741
11452         h1    236    ccc    H27  11452 0.08578000   1.008000   ; qtot 237.521521
11453         oh    236    ccc     O9  11453 -0.58672000  16.000000   ; qtot 236.934801
11454         ho    236    ccc    H28  11454 0.41908000   1.008000   ; qtot 237.353881
11455         n3    236    ccc     N3  11455 -0.54282000  14.010000   ; qtot 236.811061
11456         c3    236    ccc    C17  11456 0.08518000  12.010000   ; qtot 236.896241
11457         c3    236    ccc    C18  11457 0.07918000  12.010000   ; qtot 236.975421
11458         h1    236    ccc    H29  11458 0.06978000   1.008000   ; qtot 237.045201
11459         c3    236    ccc    C19  11459 0.07918000  12.010000   ; qtot 237.124381
11460         c3    236    ccc    C20  11460 0.03578000  12.010000   ; qtot 237.160161
11461         c3    236    ccc    C21  11461 0.33498000  12.010000   ; qtot 237.495141
11462         h1    236    ccc    H30  11462 0.06178000   1.008000   ; qtot 237.556921
11463         h1    236    ccc    H31  11463 0.11278000   1.008000   ; qtot 237.669701
11464         h2    236    ccc    H32  11464 0.12178000   1.008000   ; qtot 237.791481
11465         oh    236    ccc    O10  11465 -0.56972000  16.000000   ; qtot 237.221761
11466         oh    236    ccc    O11  11466 -0.57772000  16.000000   ; qtot 236.644041
11467         c3    236    ccc    C22  11467 0.14548000  12.010000   ; qtot 236.789521
11468         ho    236    ccc    H33  11468 0.40508000   1.008000   ; qtot 237.194601
11469         hn    236    ccc    H34  11469 0.31758000   1.008000   ; qtot 237.512181
11470         h1    236    ccc    H35  11470 0.06278000   1.008000   ; qtot 237.574961
11471         h1    236    ccc    H36  11471 0.06278000   1.008000   ; qtot 237.637741
11472         oh    236    ccc    O12  11472 -0.59472000  16.000000   ; qtot 237.043021
11473         ho    236    ccc    H37  11473 0.41908000   1.008000   ; qtot 237.462101
11474         os    236    ccc    O13  11474 -0.44552000  16.000000   ; qtot 237.016581
11475         ho    236    ccc    H38  11475 0.41908000   1.008000   ; qtot 237.435661
11476         h1    236    ccc    H39  11476 0.08578000   1.008000   ; qtot 237.521441
11477         oh    236    ccc     O5  11477 -0.58672000  16.000000   ; qtot 236.934721
11478         ho    236    ccc    H40  11478 0.41908000   1.008000   ; qtot 237.353801
11479         n3    236    ccc     N4  11479 -0.54282000  14.010000   ; qtot 236.810981
11480         hn    236    ccc    H41  11480 0.17125500   1.008000   ; qtot 236.982236
; residue  237 ccc rtp ccc q 1.0
11481          n    237    ccc     N1  11481 -0.33303000  14.010000   ; qtot 236.649206
11482         hn    237    ccc     H4  11482 0.25916100   1.008000   ; qtot 236.908367
11483         c3    237    ccc     C3  11483 -0.03328100  12.010000   ; qtot 236.875086
11484         h1    237    ccc     H5  11484 0.10618100   1.008000   ; qtot 236.981267
11485         c3    237    ccc     C4  11485 -0.02083000  12.010000   ; qtot 236.960437
11486         h1    237    ccc     H6  11486 0.10618100   1.008000   ; qtot 237.066618
11487         h1    237    ccc     H7  11487 0.07988000   1.008000   ; qtot 237.146498
11488         h1    237    ccc     H8  11488 0.07988000   1.008000   ; qtot 237.226378
11489         n4    237    ccc     N2  11489 -0.02747900  14.010000   ; qtot 237.198899
11490         c3    237    ccc     C5  11490 -0.05097600  12.010000   ; qtot 237.147923
11491         c3    237    ccc     C6  11491 -0.05097600  12.010000   ; qtot 237.096947
11492         h1    237    ccc     H9  11492 0.11563300   1.008000   ; qtot 237.212580
11493         c3    237    ccc     C7  11493 -0.18457900  12.010000   ; qtot 237.028001
11494         h1    237    ccc    H10  11494 0.11563300   1.008000   ; qtot 237.143634
11495         hc    237    ccc    H11  11495 0.08347900   1.008000   ; qtot 237.227113
11496         hc    237    ccc    H12  11496 0.08347900   1.008000   ; qtot 237.310592
11497          c    237    ccc     C8  11497 0.67254400  12.010000   ; qtot 237.983136
11498          o    237    ccc     O2  11498 -0.52917200  16.000000   ; qtot 237.453964
11499         h1    237    ccc    H13  11499 0.11563300   1.008000   ; qtot 237.569597
11500         h1    237    ccc    H14  11500 0.11563300   1.008000   ; qtot 237.685230
11501         c3    237    ccc     C9  11501 -0.18457900  12.010000   ; qtot 237.500651
11502         hc    237    ccc    H15  11502 0.08347900   1.008000   ; qtot 237.584130
11503         hc    237    ccc    H16  11503 0.08347900   1.008000   ; qtot 237.667609
11504          c    237    ccc    C10  11504 0.67254400  12.010000   ; qtot 238.340153
11505          o    237    ccc     O4  11505 -0.52917200  16.000000   ; qtot 237.810981
11506         c3    237    ccc    C11  11506 0.08518000  12.010000   ; qtot 237.896161
11507         c3    237    ccc    C12  11507 0.07918000  12.010000   ; qtot 237.975341
11508         h1    237    ccc    H17  11508 0.06978000   1.008000   ; qtot 238.045121
11509         c3    237    ccc    C13  11509 0.07918000  12.010000   ; qtot 238.124301
11510         c3    237    ccc    C14  11510 0.03578000  12.010000   ; qtot 238.160081
11511         c3    237    ccc    C15  11511 0.33498000  12.010000   ; qtot 238.495061
11512         h1    237    ccc    H18  11512 0.06178000   1.008000   ; qtot 238.556841
11513         h1    237    ccc    H19  11513 0.11278000   1.008000   ; qtot 238.669621
11514         h2    237    ccc    H20  11514 0.12178000   1.008000   ; qtot 238.791401
11515         oh    237    ccc     O1  11515 -0.56972000  16.000000   ; qtot 238.221681
11516         oh    237    ccc     O6  11516 -0.57772000  16.000000   ; qtot 237.643961
11517         c3    237    ccc    C16  11517 0.14548000  12.010000   ; qtot 237.789441
11518         ho    237    ccc    H21  11518 0.40508000   1.008000   ; qtot 238.194521
11519         hn    237    ccc    H22  11519 0.31758000   1.008000   ; qtot 238.512101
11520         h1    237    ccc    H23  11520 0.06278000   1.008000   ; qtot 238.574881
11521         h1    237    ccc    H24  11521 0.06278000   1.008000   ; qtot 238.637661
11522         oh    237    ccc     O7  11522 -0.59472000  16.000000   ; qtot 238.042941
11523         ho    237    ccc    H25  11523 0.41908000   1.008000   ; qtot 238.462021
11524         os    237    ccc     O8  11524 -0.44552000  16.000000   ; qtot 238.016501
11525         ho    237    ccc    H26  11525 0.41908000   1.008000   ; qtot 238.435581
11526         h1    237    ccc    H27  11526 0.08578000   1.008000   ; qtot 238.521361
11527         oh    237    ccc     O9  11527 -0.58672000  16.000000   ; qtot 237.934641
11528         ho    237    ccc    H28  11528 0.41908000   1.008000   ; qtot 238.353721
11529         n3    237    ccc     N3  11529 -0.54282000  14.010000   ; qtot 237.810901
11530         c3    237    ccc    C17  11530 0.08518000  12.010000   ; qtot 237.896081
11531         c3    237    ccc    C18  11531 0.07918000  12.010000   ; qtot 237.975261
11532         h1    237    ccc    H29  11532 0.06978000   1.008000   ; qtot 238.045041
11533         c3    237    ccc    C19  11533 0.07918000  12.010000   ; qtot 238.124221
11534         c3    237    ccc    C20  11534 0.03578000  12.010000   ; qtot 238.160001
11535         c3    237    ccc    C21  11535 0.33498000  12.010000   ; qtot 238.494981
11536         h1    237    ccc    H30  11536 0.06178000   1.008000   ; qtot 238.556761
11537         h1    237    ccc    H31  11537 0.11278000   1.008000   ; qtot 238.669541
11538         h2    237    ccc    H32  11538 0.12178000   1.008000   ; qtot 238.791321
11539         oh    237    ccc    O10  11539 -0.56972000  16.000000   ; qtot 238.221601
11540         oh    237    ccc    O11  11540 -0.57772000  16.000000   ; qtot 237.643881
11541         c3    237    ccc    C22  11541 0.14548000  12.010000   ; qtot 237.789361
11542         ho    237    ccc    H33  11542 0.40508000   1.008000   ; qtot 238.194441
11543         hn    237    ccc    H34  11543 0.31758000   1.008000   ; qtot 238.512021
11544         h1    237    ccc    H35  11544 0.06278000   1.008000   ; qtot 238.574801
11545         h1    237    ccc    H36  11545 0.06278000   1.008000   ; qtot 238.637581
11546         oh    237    ccc    O12  11546 -0.59472000  16.000000   ; qtot 238.042861
11547         ho    237    ccc    H37  11547 0.41908000   1.008000   ; qtot 238.461941
11548         os    237    ccc    O13  11548 -0.44552000  16.000000   ; qtot 238.016421
11549         ho    237    ccc    H38  11549 0.41908000   1.008000   ; qtot 238.435501
11550         h1    237    ccc    H39  11550 0.08578000   1.008000   ; qtot 238.521281
11551         oh    237    ccc     O5  11551 -0.58672000  16.000000   ; qtot 237.934561
11552         ho    237    ccc    H40  11552 0.41908000   1.008000   ; qtot 238.353641
11553         n3    237    ccc     N4  11553 -0.54282000  14.010000   ; qtot 237.810821
11554         hn    237    ccc    H41  11554 0.17125500   1.008000   ; qtot 237.982076
; residue  238 ccc rtp ccc q 1.0
11555          n    238    ccc     N1  11555 -0.33303000  14.010000   ; qtot 237.649046
11556         hn    238    ccc     H4  11556 0.25916100   1.008000   ; qtot 237.908207
11557         c3    238    ccc     C3  11557 -0.03328100  12.010000   ; qtot 237.874926
11558         h1    238    ccc     H5  11558 0.10618100   1.008000   ; qtot 237.981107
11559         c3    238    ccc     C4  11559 -0.02083000  12.010000   ; qtot 237.960277
11560         h1    238    ccc     H6  11560 0.10618100   1.008000   ; qtot 238.066458
11561         h1    238    ccc     H7  11561 0.07988000   1.008000   ; qtot 238.146338
11562         h1    238    ccc     H8  11562 0.07988000   1.008000   ; qtot 238.226218
11563         n4    238    ccc     N2  11563 -0.02747900  14.010000   ; qtot 238.198739
11564         c3    238    ccc     C5  11564 -0.05097600  12.010000   ; qtot 238.147763
11565         c3    238    ccc     C6  11565 -0.05097600  12.010000   ; qtot 238.096787
11566         h1    238    ccc     H9  11566 0.11563300   1.008000   ; qtot 238.212420
11567         c3    238    ccc     C7  11567 -0.18457900  12.010000   ; qtot 238.027841
11568         h1    238    ccc    H10  11568 0.11563300   1.008000   ; qtot 238.143474
11569         hc    238    ccc    H11  11569 0.08347900   1.008000   ; qtot 238.226953
11570         hc    238    ccc    H12  11570 0.08347900   1.008000   ; qtot 238.310432
11571          c    238    ccc     C8  11571 0.67254400  12.010000   ; qtot 238.982976
11572          o    238    ccc     O2  11572 -0.52917200  16.000000   ; qtot 238.453804
11573         h1    238    ccc    H13  11573 0.11563300   1.008000   ; qtot 238.569437
11574         h1    238    ccc    H14  11574 0.11563300   1.008000   ; qtot 238.685070
11575         c3    238    ccc     C9  11575 -0.18457900  12.010000   ; qtot 238.500491
11576         hc    238    ccc    H15  11576 0.08347900   1.008000   ; qtot 238.583970
11577         hc    238    ccc    H16  11577 0.08347900   1.008000   ; qtot 238.667449
11578          c    238    ccc    C10  11578 0.67254400  12.010000   ; qtot 239.339993
11579          o    238    ccc     O4  11579 -0.52917200  16.000000   ; qtot 238.810821
11580         c3    238    ccc    C11  11580 0.08518000  12.010000   ; qtot 238.896001
11581         c3    238    ccc    C12  11581 0.07918000  12.010000   ; qtot 238.975181
11582         h1    238    ccc    H17  11582 0.06978000   1.008000   ; qtot 239.044961
11583         c3    238    ccc    C13  11583 0.07918000  12.010000   ; qtot 239.124141
11584         c3    238    ccc    C14  11584 0.03578000  12.010000   ; qtot 239.159921
11585         c3    238    ccc    C15  11585 0.33498000  12.010000   ; qtot 239.494901
11586         h1    238    ccc    H18  11586 0.06178000   1.008000   ; qtot 239.556681
11587         h1    238    ccc    H19  11587 0.11278000   1.008000   ; qtot 239.669461
11588         h2    238    ccc    H20  11588 0.12178000   1.008000   ; qtot 239.791241
11589         oh    238    ccc     O1  11589 -0.56972000  16.000000   ; qtot 239.221521
11590         oh    238    ccc     O6  11590 -0.57772000  16.000000   ; qtot 238.643801
11591         c3    238    ccc    C16  11591 0.14548000  12.010000   ; qtot 238.789281
11592         ho    238    ccc    H21  11592 0.40508000   1.008000   ; qtot 239.194361
11593         hn    238    ccc    H22  11593 0.31758000   1.008000   ; qtot 239.511941
11594         h1    238    ccc    H23  11594 0.06278000   1.008000   ; qtot 239.574721
11595         h1    238    ccc    H24  11595 0.06278000   1.008000   ; qtot 239.637501
11596         oh    238    ccc     O7  11596 -0.59472000  16.000000   ; qtot 239.042781
11597         ho    238    ccc    H25  11597 0.41908000   1.008000   ; qtot 239.461861
11598         os    238    ccc     O8  11598 -0.44552000  16.000000   ; qtot 239.016341
11599         ho    238    ccc    H26  11599 0.41908000   1.008000   ; qtot 239.435421
11600         h1    238    ccc    H27  11600 0.08578000   1.008000   ; qtot 239.521201
11601         oh    238    ccc     O9  11601 -0.58672000  16.000000   ; qtot 238.934481
11602         ho    238    ccc    H28  11602 0.41908000   1.008000   ; qtot 239.353561
11603         n3    238    ccc     N3  11603 -0.54282000  14.010000   ; qtot 238.810741
11604         c3    238    ccc    C17  11604 0.08518000  12.010000   ; qtot 238.895921
11605         c3    238    ccc    C18  11605 0.07918000  12.010000   ; qtot 238.975101
11606         h1    238    ccc    H29  11606 0.06978000   1.008000   ; qtot 239.044881
11607         c3    238    ccc    C19  11607 0.07918000  12.010000   ; qtot 239.124061
11608         c3    238    ccc    C20  11608 0.03578000  12.010000   ; qtot 239.159841
11609         c3    238    ccc    C21  11609 0.33498000  12.010000   ; qtot 239.494821
11610         h1    238    ccc    H30  11610 0.06178000   1.008000   ; qtot 239.556601
11611         h1    238    ccc    H31  11611 0.11278000   1.008000   ; qtot 239.669381
11612         h2    238    ccc    H32  11612 0.12178000   1.008000   ; qtot 239.791161
11613         oh    238    ccc    O10  11613 -0.56972000  16.000000   ; qtot 239.221441
11614         oh    238    ccc    O11  11614 -0.57772000  16.000000   ; qtot 238.643721
11615         c3    238    ccc    C22  11615 0.14548000  12.010000   ; qtot 238.789201
11616         ho    238    ccc    H33  11616 0.40508000   1.008000   ; qtot 239.194281
11617         hn    238    ccc    H34  11617 0.31758000   1.008000   ; qtot 239.511861
11618         h1    238    ccc    H35  11618 0.06278000   1.008000   ; qtot 239.574641
11619         h1    238    ccc    H36  11619 0.06278000   1.008000   ; qtot 239.637421
11620         oh    238    ccc    O12  11620 -0.59472000  16.000000   ; qtot 239.042701
11621         ho    238    ccc    H37  11621 0.41908000   1.008000   ; qtot 239.461781
11622         os    238    ccc    O13  11622 -0.44552000  16.000000   ; qtot 239.016261
11623         ho    238    ccc    H38  11623 0.41908000   1.008000   ; qtot 239.435341
11624         h1    238    ccc    H39  11624 0.08578000   1.008000   ; qtot 239.521121
11625         oh    238    ccc     O5  11625 -0.58672000  16.000000   ; qtot 238.934401
11626         ho    238    ccc    H40  11626 0.41908000   1.008000   ; qtot 239.353481
11627         n3    238    ccc     N4  11627 -0.54282000  14.010000   ; qtot 238.810661
11628         hn    238    ccc    H41  11628 0.17125500   1.008000   ; qtot 238.981916
; residue  239 ccc rtp ccc q 1.0
11629          n    239    ccc     N1  11629 -0.33303000  14.010000   ; qtot 238.648886
11630         hn    239    ccc     H4  11630 0.25916100   1.008000   ; qtot 238.908047
11631         c3    239    ccc     C3  11631 -0.03328100  12.010000   ; qtot 238.874766
11632         h1    239    ccc     H5  11632 0.10618100   1.008000   ; qtot 238.980947
11633         c3    239    ccc     C4  11633 -0.02083000  12.010000   ; qtot 238.960117
11634         h1    239    ccc     H6  11634 0.10618100   1.008000   ; qtot 239.066298
11635         h1    239    ccc     H7  11635 0.07988000   1.008000   ; qtot 239.146178
11636         h1    239    ccc     H8  11636 0.07988000   1.008000   ; qtot 239.226058
11637         n4    239    ccc     N2  11637 -0.02747900  14.010000   ; qtot 239.198579
11638         c3    239    ccc     C5  11638 -0.05097600  12.010000   ; qtot 239.147603
11639         c3    239    ccc     C6  11639 -0.05097600  12.010000   ; qtot 239.096627
11640         h1    239    ccc     H9  11640 0.11563300   1.008000   ; qtot 239.212260
11641         c3    239    ccc     C7  11641 -0.18457900  12.010000   ; qtot 239.027681
11642         h1    239    ccc    H10  11642 0.11563300   1.008000   ; qtot 239.143314
11643         hc    239    ccc    H11  11643 0.08347900   1.008000   ; qtot 239.226793
11644         hc    239    ccc    H12  11644 0.08347900   1.008000   ; qtot 239.310272
11645          c    239    ccc     C8  11645 0.67254400  12.010000   ; qtot 239.982816
11646          o    239    ccc     O2  11646 -0.52917200  16.000000   ; qtot 239.453644
11647         h1    239    ccc    H13  11647 0.11563300   1.008000   ; qtot 239.569277
11648         h1    239    ccc    H14  11648 0.11563300   1.008000   ; qtot 239.684910
11649         c3    239    ccc     C9  11649 -0.18457900  12.010000   ; qtot 239.500331
11650         hc    239    ccc    H15  11650 0.08347900   1.008000   ; qtot 239.583810
11651         hc    239    ccc    H16  11651 0.08347900   1.008000   ; qtot 239.667289
11652          c    239    ccc    C10  11652 0.67254400  12.010000   ; qtot 240.339833
11653          o    239    ccc     O4  11653 -0.52917200  16.000000   ; qtot 239.810661
11654         c3    239    ccc    C11  11654 0.08518000  12.010000   ; qtot 239.895841
11655         c3    239    ccc    C12  11655 0.07918000  12.010000   ; qtot 239.975021
11656         h1    239    ccc    H17  11656 0.06978000   1.008000   ; qtot 240.044801
11657         c3    239    ccc    C13  11657 0.07918000  12.010000   ; qtot 240.123981
11658         c3    239    ccc    C14  11658 0.03578000  12.010000   ; qtot 240.159761
11659         c3    239    ccc    C15  11659 0.33498000  12.010000   ; qtot 240.494741
11660         h1    239    ccc    H18  11660 0.06178000   1.008000   ; qtot 240.556521
11661         h1    239    ccc    H19  11661 0.11278000   1.008000   ; qtot 240.669301
11662         h2    239    ccc    H20  11662 0.12178000   1.008000   ; qtot 240.791081
11663         oh    239    ccc     O1  11663 -0.56972000  16.000000   ; qtot 240.221361
11664         oh    239    ccc     O6  11664 -0.57772000  16.000000   ; qtot 239.643641
11665         c3    239    ccc    C16  11665 0.14548000  12.010000   ; qtot 239.789121
11666         ho    239    ccc    H21  11666 0.40508000   1.008000   ; qtot 240.194201
11667         hn    239    ccc    H22  11667 0.31758000   1.008000   ; qtot 240.511781
11668         h1    239    ccc    H23  11668 0.06278000   1.008000   ; qtot 240.574561
11669         h1    239    ccc    H24  11669 0.06278000   1.008000   ; qtot 240.637341
11670         oh    239    ccc     O7  11670 -0.59472000  16.000000   ; qtot 240.042621
11671         ho    239    ccc    H25  11671 0.41908000   1.008000   ; qtot 240.461701
11672         os    239    ccc     O8  11672 -0.44552000  16.000000   ; qtot 240.016181
11673         ho    239    ccc    H26  11673 0.41908000   1.008000   ; qtot 240.435261
11674         h1    239    ccc    H27  11674 0.08578000   1.008000   ; qtot 240.521041
11675         oh    239    ccc     O9  11675 -0.58672000  16.000000   ; qtot 239.934321
11676         ho    239    ccc    H28  11676 0.41908000   1.008000   ; qtot 240.353401
11677         n3    239    ccc     N3  11677 -0.54282000  14.010000   ; qtot 239.810581
11678         c3    239    ccc    C17  11678 0.08518000  12.010000   ; qtot 239.895761
11679         c3    239    ccc    C18  11679 0.07918000  12.010000   ; qtot 239.974941
11680         h1    239    ccc    H29  11680 0.06978000   1.008000   ; qtot 240.044721
11681         c3    239    ccc    C19  11681 0.07918000  12.010000   ; qtot 240.123901
11682         c3    239    ccc    C20  11682 0.03578000  12.010000   ; qtot 240.159681
11683         c3    239    ccc    C21  11683 0.33498000  12.010000   ; qtot 240.494661
11684         h1    239    ccc    H30  11684 0.06178000   1.008000   ; qtot 240.556441
11685         h1    239    ccc    H31  11685 0.11278000   1.008000   ; qtot 240.669221
11686         h2    239    ccc    H32  11686 0.12178000   1.008000   ; qtot 240.791001
11687         oh    239    ccc    O10  11687 -0.56972000  16.000000   ; qtot 240.221281
11688         oh    239    ccc    O11  11688 -0.57772000  16.000000   ; qtot 239.643561
11689         c3    239    ccc    C22  11689 0.14548000  12.010000   ; qtot 239.789041
11690         ho    239    ccc    H33  11690 0.40508000   1.008000   ; qtot 240.194121
11691         hn    239    ccc    H34  11691 0.31758000   1.008000   ; qtot 240.511701
11692         h1    239    ccc    H35  11692 0.06278000   1.008000   ; qtot 240.574481
11693         h1    239    ccc    H36  11693 0.06278000   1.008000   ; qtot 240.637261
11694         oh    239    ccc    O12  11694 -0.59472000  16.000000   ; qtot 240.042541
11695         ho    239    ccc    H37  11695 0.41908000   1.008000   ; qtot 240.461621
11696         os    239    ccc    O13  11696 -0.44552000  16.000000   ; qtot 240.016101
11697         ho    239    ccc    H38  11697 0.41908000   1.008000   ; qtot 240.435181
11698         h1    239    ccc    H39  11698 0.08578000   1.008000   ; qtot 240.520961
11699         oh    239    ccc     O5  11699 -0.58672000  16.000000   ; qtot 239.934241
11700         ho    239    ccc    H40  11700 0.41908000   1.008000   ; qtot 240.353321
11701         n3    239    ccc     N4  11701 -0.54282000  14.010000   ; qtot 239.810501
11702         hn    239    ccc    H41  11702 0.17125500   1.008000   ; qtot 239.981756
; residue  240 ccc rtp ccc q 1.0
11703          n    240    ccc     N1  11703 -0.33303000  14.010000   ; qtot 239.648726
11704         hn    240    ccc     H4  11704 0.25916100   1.008000   ; qtot 239.907887
11705         c3    240    ccc     C3  11705 -0.03328100  12.010000   ; qtot 239.874606
11706         h1    240    ccc     H5  11706 0.10618100   1.008000   ; qtot 239.980787
11707         c3    240    ccc     C4  11707 -0.02083000  12.010000   ; qtot 239.959957
11708         h1    240    ccc     H6  11708 0.10618100   1.008000   ; qtot 240.066138
11709         h1    240    ccc     H7  11709 0.07988000   1.008000   ; qtot 240.146018
11710         h1    240    ccc     H8  11710 0.07988000   1.008000   ; qtot 240.225898
11711         n4    240    ccc     N2  11711 -0.02747900  14.010000   ; qtot 240.198419
11712         c3    240    ccc     C5  11712 -0.05097600  12.010000   ; qtot 240.147443
11713         c3    240    ccc     C6  11713 -0.05097600  12.010000   ; qtot 240.096467
11714         h1    240    ccc     H9  11714 0.11563300   1.008000   ; qtot 240.212100
11715         c3    240    ccc     C7  11715 -0.18457900  12.010000   ; qtot 240.027521
11716         h1    240    ccc    H10  11716 0.11563300   1.008000   ; qtot 240.143154
11717         hc    240    ccc    H11  11717 0.08347900   1.008000   ; qtot 240.226633
11718         hc    240    ccc    H12  11718 0.08347900   1.008000   ; qtot 240.310112
11719          c    240    ccc     C8  11719 0.67254400  12.010000   ; qtot 240.982656
11720          o    240    ccc     O2  11720 -0.52917200  16.000000   ; qtot 240.453484
11721         h1    240    ccc    H13  11721 0.11563300   1.008000   ; qtot 240.569117
11722         h1    240    ccc    H14  11722 0.11563300   1.008000   ; qtot 240.684750
11723         c3    240    ccc     C9  11723 -0.18457900  12.010000   ; qtot 240.500171
11724         hc    240    ccc    H15  11724 0.08347900   1.008000   ; qtot 240.583650
11725         hc    240    ccc    H16  11725 0.08347900   1.008000   ; qtot 240.667129
11726          c    240    ccc    C10  11726 0.67254400  12.010000   ; qtot 241.339673
11727          o    240    ccc     O4  11727 -0.52917200  16.000000   ; qtot 240.810501
11728         c3    240    ccc    C11  11728 0.08518000  12.010000   ; qtot 240.895681
11729         c3    240    ccc    C12  11729 0.07918000  12.010000   ; qtot 240.974861
11730         h1    240    ccc    H17  11730 0.06978000   1.008000   ; qtot 241.044641
11731         c3    240    ccc    C13  11731 0.07918000  12.010000   ; qtot 241.123821
11732         c3    240    ccc    C14  11732 0.03578000  12.010000   ; qtot 241.159601
11733         c3    240    ccc    C15  11733 0.33498000  12.010000   ; qtot 241.494581
11734         h1    240    ccc    H18  11734 0.06178000   1.008000   ; qtot 241.556361
11735         h1    240    ccc    H19  11735 0.11278000   1.008000   ; qtot 241.669141
11736         h2    240    ccc    H20  11736 0.12178000   1.008000   ; qtot 241.790921
11737         oh    240    ccc     O1  11737 -0.56972000  16.000000   ; qtot 241.221201
11738         oh    240    ccc     O6  11738 -0.57772000  16.000000   ; qtot 240.643481
11739         c3    240    ccc    C16  11739 0.14548000  12.010000   ; qtot 240.788961
11740         ho    240    ccc    H21  11740 0.40508000   1.008000   ; qtot 241.194041
11741         hn    240    ccc    H22  11741 0.31758000   1.008000   ; qtot 241.511621
11742         h1    240    ccc    H23  11742 0.06278000   1.008000   ; qtot 241.574401
11743         h1    240    ccc    H24  11743 0.06278000   1.008000   ; qtot 241.637181
11744         oh    240    ccc     O7  11744 -0.59472000  16.000000   ; qtot 241.042461
11745         ho    240    ccc    H25  11745 0.41908000   1.008000   ; qtot 241.461541
11746         os    240    ccc     O8  11746 -0.44552000  16.000000   ; qtot 241.016021
11747         ho    240    ccc    H26  11747 0.41908000   1.008000   ; qtot 241.435101
11748         h1    240    ccc    H27  11748 0.08578000   1.008000   ; qtot 241.520881
11749         oh    240    ccc     O9  11749 -0.58672000  16.000000   ; qtot 240.934161
11750         ho    240    ccc    H28  11750 0.41908000   1.008000   ; qtot 241.353241
11751         n3    240    ccc     N3  11751 -0.54282000  14.010000   ; qtot 240.810421
11752         c3    240    ccc    C17  11752 0.08518000  12.010000   ; qtot 240.895601
11753         c3    240    ccc    C18  11753 0.07918000  12.010000   ; qtot 240.974781
11754         h1    240    ccc    H29  11754 0.06978000   1.008000   ; qtot 241.044561
11755         c3    240    ccc    C19  11755 0.07918000  12.010000   ; qtot 241.123741
11756         c3    240    ccc    C20  11756 0.03578000  12.010000   ; qtot 241.159521
11757         c3    240    ccc    C21  11757 0.33498000  12.010000   ; qtot 241.494501
11758         h1    240    ccc    H30  11758 0.06178000   1.008000   ; qtot 241.556281
11759         h1    240    ccc    H31  11759 0.11278000   1.008000   ; qtot 241.669061
11760         h2    240    ccc    H32  11760 0.12178000   1.008000   ; qtot 241.790841
11761         oh    240    ccc    O10  11761 -0.56972000  16.000000   ; qtot 241.221121
11762         oh    240    ccc    O11  11762 -0.57772000  16.000000   ; qtot 240.643401
11763         c3    240    ccc    C22  11763 0.14548000  12.010000   ; qtot 240.788881
11764         ho    240    ccc    H33  11764 0.40508000   1.008000   ; qtot 241.193961
11765         hn    240    ccc    H34  11765 0.31758000   1.008000   ; qtot 241.511541
11766         h1    240    ccc    H35  11766 0.06278000   1.008000   ; qtot 241.574321
11767         h1    240    ccc    H36  11767 0.06278000   1.008000   ; qtot 241.637101
11768         oh    240    ccc    O12  11768 -0.59472000  16.000000   ; qtot 241.042381
11769         ho    240    ccc    H37  11769 0.41908000   1.008000   ; qtot 241.461461
11770         os    240    ccc    O13  11770 -0.44552000  16.000000   ; qtot 241.015941
11771         ho    240    ccc    H38  11771 0.41908000   1.008000   ; qtot 241.435021
11772         h1    240    ccc    H39  11772 0.08578000   1.008000   ; qtot 241.520801
11773         oh    240    ccc     O5  11773 -0.58672000  16.000000   ; qtot 240.934081
11774         ho    240    ccc    H40  11774 0.41908000   1.008000   ; qtot 241.353161
11775         n3    240    ccc     N4  11775 -0.54282000  14.010000   ; qtot 240.810341
11776         hn    240    ccc    H41  11776 0.17125500   1.008000   ; qtot 240.981596
; residue  241 ccc rtp ccc q 1.0
11777          n    241    ccc     N1  11777 -0.33303000  14.010000   ; qtot 240.648566
11778         hn    241    ccc     H4  11778 0.25916100   1.008000   ; qtot 240.907727
11779         c3    241    ccc     C3  11779 -0.03328100  12.010000   ; qtot 240.874446
11780         h1    241    ccc     H5  11780 0.10618100   1.008000   ; qtot 240.980627
11781         c3    241    ccc     C4  11781 -0.02083000  12.010000   ; qtot 240.959797
11782         h1    241    ccc     H6  11782 0.10618100   1.008000   ; qtot 241.065978
11783         h1    241    ccc     H7  11783 0.07988000   1.008000   ; qtot 241.145858
11784         h1    241    ccc     H8  11784 0.07988000   1.008000   ; qtot 241.225738
11785         n4    241    ccc     N2  11785 -0.02747900  14.010000   ; qtot 241.198259
11786         c3    241    ccc     C5  11786 -0.05097600  12.010000   ; qtot 241.147283
11787         c3    241    ccc     C6  11787 -0.05097600  12.010000   ; qtot 241.096307
11788         h1    241    ccc     H9  11788 0.11563300   1.008000   ; qtot 241.211940
11789         c3    241    ccc     C7  11789 -0.18457900  12.010000   ; qtot 241.027361
11790         h1    241    ccc    H10  11790 0.11563300   1.008000   ; qtot 241.142994
11791         hc    241    ccc    H11  11791 0.08347900   1.008000   ; qtot 241.226473
11792         hc    241    ccc    H12  11792 0.08347900   1.008000   ; qtot 241.309952
11793          c    241    ccc     C8  11793 0.67254400  12.010000   ; qtot 241.982496
11794          o    241    ccc     O2  11794 -0.52917200  16.000000   ; qtot 241.453324
11795         h1    241    ccc    H13  11795 0.11563300   1.008000   ; qtot 241.568957
11796         h1    241    ccc    H14  11796 0.11563300   1.008000   ; qtot 241.684590
11797         c3    241    ccc     C9  11797 -0.18457900  12.010000   ; qtot 241.500011
11798         hc    241    ccc    H15  11798 0.08347900   1.008000   ; qtot 241.583490
11799         hc    241    ccc    H16  11799 0.08347900   1.008000   ; qtot 241.666969
11800          c    241    ccc    C10  11800 0.67254400  12.010000   ; qtot 242.339513
11801          o    241    ccc     O4  11801 -0.52917200  16.000000   ; qtot 241.810341
11802         c3    241    ccc    C11  11802 0.08518000  12.010000   ; qtot 241.895521
11803         c3    241    ccc    C12  11803 0.07918000  12.010000   ; qtot 241.974701
11804         h1    241    ccc    H17  11804 0.06978000   1.008000   ; qtot 242.044481
11805         c3    241    ccc    C13  11805 0.07918000  12.010000   ; qtot 242.123661
11806         c3    241    ccc    C14  11806 0.03578000  12.010000   ; qtot 242.159441
11807         c3    241    ccc    C15  11807 0.33498000  12.010000   ; qtot 242.494421
11808         h1    241    ccc    H18  11808 0.06178000   1.008000   ; qtot 242.556201
11809         h1    241    ccc    H19  11809 0.11278000   1.008000   ; qtot 242.668981
11810         h2    241    ccc    H20  11810 0.12178000   1.008000   ; qtot 242.790761
11811         oh    241    ccc     O1  11811 -0.56972000  16.000000   ; qtot 242.221041
11812         oh    241    ccc     O6  11812 -0.57772000  16.000000   ; qtot 241.643321
11813         c3    241    ccc    C16  11813 0.14548000  12.010000   ; qtot 241.788801
11814         ho    241    ccc    H21  11814 0.40508000   1.008000   ; qtot 242.193881
11815         hn    241    ccc    H22  11815 0.31758000   1.008000   ; qtot 242.511461
11816         h1    241    ccc    H23  11816 0.06278000   1.008000   ; qtot 242.574241
11817         h1    241    ccc    H24  11817 0.06278000   1.008000   ; qtot 242.637021
11818         oh    241    ccc     O7  11818 -0.59472000  16.000000   ; qtot 242.042301
11819         ho    241    ccc    H25  11819 0.41908000   1.008000   ; qtot 242.461381
11820         os    241    ccc     O8  11820 -0.44552000  16.000000   ; qtot 242.015861
11821         ho    241    ccc    H26  11821 0.41908000   1.008000   ; qtot 242.434941
11822         h1    241    ccc    H27  11822 0.08578000   1.008000   ; qtot 242.520721
11823         oh    241    ccc     O9  11823 -0.58672000  16.000000   ; qtot 241.934001
11824         ho    241    ccc    H28  11824 0.41908000   1.008000   ; qtot 242.353081
11825         n3    241    ccc     N3  11825 -0.54282000  14.010000   ; qtot 241.810261
11826         c3    241    ccc    C17  11826 0.08518000  12.010000   ; qtot 241.895441
11827         c3    241    ccc    C18  11827 0.07918000  12.010000   ; qtot 241.974621
11828         h1    241    ccc    H29  11828 0.06978000   1.008000   ; qtot 242.044401
11829         c3    241    ccc    C19  11829 0.07918000  12.010000   ; qtot 242.123581
11830         c3    241    ccc    C20  11830 0.03578000  12.010000   ; qtot 242.159361
11831         c3    241    ccc    C21  11831 0.33498000  12.010000   ; qtot 242.494341
11832         h1    241    ccc    H30  11832 0.06178000   1.008000   ; qtot 242.556121
11833         h1    241    ccc    H31  11833 0.11278000   1.008000   ; qtot 242.668901
11834         h2    241    ccc    H32  11834 0.12178000   1.008000   ; qtot 242.790681
11835         oh    241    ccc    O10  11835 -0.56972000  16.000000   ; qtot 242.220961
11836         oh    241    ccc    O11  11836 -0.57772000  16.000000   ; qtot 241.643241
11837         c3    241    ccc    C22  11837 0.14548000  12.010000   ; qtot 241.788721
11838         ho    241    ccc    H33  11838 0.40508000   1.008000   ; qtot 242.193801
11839         hn    241    ccc    H34  11839 0.31758000   1.008000   ; qtot 242.511381
11840         h1    241    ccc    H35  11840 0.06278000   1.008000   ; qtot 242.574161
11841         h1    241    ccc    H36  11841 0.06278000   1.008000   ; qtot 242.636941
11842         oh    241    ccc    O12  11842 -0.59472000  16.000000   ; qtot 242.042221
11843         ho    241    ccc    H37  11843 0.41908000   1.008000   ; qtot 242.461301
11844         os    241    ccc    O13  11844 -0.44552000  16.000000   ; qtot 242.015781
11845         ho    241    ccc    H38  11845 0.41908000   1.008000   ; qtot 242.434861
11846         h1    241    ccc    H39  11846 0.08578000   1.008000   ; qtot 242.520641
11847         oh    241    ccc     O5  11847 -0.58672000  16.000000   ; qtot 241.933921
11848         ho    241    ccc    H40  11848 0.41908000   1.008000   ; qtot 242.353001
11849         n3    241    ccc     N4  11849 -0.54282000  14.010000   ; qtot 241.810181
11850         hn    241    ccc    H41  11850 0.17125500   1.008000   ; qtot 241.981436
; residue  242 ccc rtp ccc q 1.0
11851          n    242    ccc     N1  11851 -0.33303000  14.010000   ; qtot 241.648406
11852         hn    242    ccc     H4  11852 0.25916100   1.008000   ; qtot 241.907567
11853         c3    242    ccc     C3  11853 -0.03328100  12.010000   ; qtot 241.874286
11854         h1    242    ccc     H5  11854 0.10618100   1.008000   ; qtot 241.980467
11855         c3    242    ccc     C4  11855 -0.02083000  12.010000   ; qtot 241.959637
11856         h1    242    ccc     H6  11856 0.10618100   1.008000   ; qtot 242.065818
11857         h1    242    ccc     H7  11857 0.07988000   1.008000   ; qtot 242.145698
11858         h1    242    ccc     H8  11858 0.07988000   1.008000   ; qtot 242.225578
11859         n4    242    ccc     N2  11859 -0.02747900  14.010000   ; qtot 242.198099
11860         c3    242    ccc     C5  11860 -0.05097600  12.010000   ; qtot 242.147123
11861         c3    242    ccc     C6  11861 -0.05097600  12.010000   ; qtot 242.096147
11862         h1    242    ccc     H9  11862 0.11563300   1.008000   ; qtot 242.211780
11863         c3    242    ccc     C7  11863 -0.18457900  12.010000   ; qtot 242.027201
11864         h1    242    ccc    H10  11864 0.11563300   1.008000   ; qtot 242.142834
11865         hc    242    ccc    H11  11865 0.08347900   1.008000   ; qtot 242.226313
11866         hc    242    ccc    H12  11866 0.08347900   1.008000   ; qtot 242.309792
11867          c    242    ccc     C8  11867 0.67254400  12.010000   ; qtot 242.982336
11868          o    242    ccc     O2  11868 -0.52917200  16.000000   ; qtot 242.453164
11869         h1    242    ccc    H13  11869 0.11563300   1.008000   ; qtot 242.568797
11870         h1    242    ccc    H14  11870 0.11563300   1.008000   ; qtot 242.684430
11871         c3    242    ccc     C9  11871 -0.18457900  12.010000   ; qtot 242.499851
11872         hc    242    ccc    H15  11872 0.08347900   1.008000   ; qtot 242.583330
11873         hc    242    ccc    H16  11873 0.08347900   1.008000   ; qtot 242.666809
11874          c    242    ccc    C10  11874 0.67254400  12.010000   ; qtot 243.339353
11875          o    242    ccc     O4  11875 -0.52917200  16.000000   ; qtot 242.810181
11876         c3    242    ccc    C11  11876 0.08518000  12.010000   ; qtot 242.895361
11877         c3    242    ccc    C12  11877 0.07918000  12.010000   ; qtot 242.974541
11878         h1    242    ccc    H17  11878 0.06978000   1.008000   ; qtot 243.044321
11879         c3    242    ccc    C13  11879 0.07918000  12.010000   ; qtot 243.123501
11880         c3    242    ccc    C14  11880 0.03578000  12.010000   ; qtot 243.159281
11881         c3    242    ccc    C15  11881 0.33498000  12.010000   ; qtot 243.494261
11882         h1    242    ccc    H18  11882 0.06178000   1.008000   ; qtot 243.556041
11883         h1    242    ccc    H19  11883 0.11278000   1.008000   ; qtot 243.668821
11884         h2    242    ccc    H20  11884 0.12178000   1.008000   ; qtot 243.790601
11885         oh    242    ccc     O1  11885 -0.56972000  16.000000   ; qtot 243.220881
11886         oh    242    ccc     O6  11886 -0.57772000  16.000000   ; qtot 242.643161
11887         c3    242    ccc    C16  11887 0.14548000  12.010000   ; qtot 242.788641
11888         ho    242    ccc    H21  11888 0.40508000   1.008000   ; qtot 243.193721
11889         hn    242    ccc    H22  11889 0.31758000   1.008000   ; qtot 243.511301
11890         h1    242    ccc    H23  11890 0.06278000   1.008000   ; qtot 243.574081
11891         h1    242    ccc    H24  11891 0.06278000   1.008000   ; qtot 243.636861
11892         oh    242    ccc     O7  11892 -0.59472000  16.000000   ; qtot 243.042141
11893         ho    242    ccc    H25  11893 0.41908000   1.008000   ; qtot 243.461221
11894         os    242    ccc     O8  11894 -0.44552000  16.000000   ; qtot 243.015701
11895         ho    242    ccc    H26  11895 0.41908000   1.008000   ; qtot 243.434781
11896         h1    242    ccc    H27  11896 0.08578000   1.008000   ; qtot 243.520561
11897         oh    242    ccc     O9  11897 -0.58672000  16.000000   ; qtot 242.933841
11898         ho    242    ccc    H28  11898 0.41908000   1.008000   ; qtot 243.352921
11899         n3    242    ccc     N3  11899 -0.54282000  14.010000   ; qtot 242.810101
11900         c3    242    ccc    C17  11900 0.08518000  12.010000   ; qtot 242.895281
11901         c3    242    ccc    C18  11901 0.07918000  12.010000   ; qtot 242.974461
11902         h1    242    ccc    H29  11902 0.06978000   1.008000   ; qtot 243.044241
11903         c3    242    ccc    C19  11903 0.07918000  12.010000   ; qtot 243.123421
11904         c3    242    ccc    C20  11904 0.03578000  12.010000   ; qtot 243.159201
11905         c3    242    ccc    C21  11905 0.33498000  12.010000   ; qtot 243.494181
11906         h1    242    ccc    H30  11906 0.06178000   1.008000   ; qtot 243.555961
11907         h1    242    ccc    H31  11907 0.11278000   1.008000   ; qtot 243.668741
11908         h2    242    ccc    H32  11908 0.12178000   1.008000   ; qtot 243.790521
11909         oh    242    ccc    O10  11909 -0.56972000  16.000000   ; qtot 243.220801
11910         oh    242    ccc    O11  11910 -0.57772000  16.000000   ; qtot 242.643081
11911         c3    242    ccc    C22  11911 0.14548000  12.010000   ; qtot 242.788561
11912         ho    242    ccc    H33  11912 0.40508000   1.008000   ; qtot 243.193641
11913         hn    242    ccc    H34  11913 0.31758000   1.008000   ; qtot 243.511221
11914         h1    242    ccc    H35  11914 0.06278000   1.008000   ; qtot 243.574001
11915         h1    242    ccc    H36  11915 0.06278000   1.008000   ; qtot 243.636781
11916         oh    242    ccc    O12  11916 -0.59472000  16.000000   ; qtot 243.042061
11917         ho    242    ccc    H37  11917 0.41908000   1.008000   ; qtot 243.461141
11918         os    242    ccc    O13  11918 -0.44552000  16.000000   ; qtot 243.015621
11919         ho    242    ccc    H38  11919 0.41908000   1.008000   ; qtot 243.434701
11920         h1    242    ccc    H39  11920 0.08578000   1.008000   ; qtot 243.520481
11921         oh    242    ccc     O5  11921 -0.58672000  16.000000   ; qtot 242.933761
11922         ho    242    ccc    H40  11922 0.41908000   1.008000   ; qtot 243.352841
11923         n3    242    ccc     N4  11923 -0.54282000  14.010000   ; qtot 242.810021
11924         hn    242    ccc    H41  11924 0.17125500   1.008000   ; qtot 242.981276
; residue  243 ccc rtp ccc q 1.0
11925          n    243    ccc     N1  11925 -0.33303000  14.010000   ; qtot 242.648246
11926         hn    243    ccc     H4  11926 0.25916100   1.008000   ; qtot 242.907407
11927         c3    243    ccc     C3  11927 -0.03328100  12.010000   ; qtot 242.874126
11928         h1    243    ccc     H5  11928 0.10618100   1.008000   ; qtot 242.980307
11929         c3    243    ccc     C4  11929 -0.02083000  12.010000   ; qtot 242.959477
11930         h1    243    ccc     H6  11930 0.10618100   1.008000   ; qtot 243.065658
11931         h1    243    ccc     H7  11931 0.07988000   1.008000   ; qtot 243.145538
11932         h1    243    ccc     H8  11932 0.07988000   1.008000   ; qtot 243.225418
11933         n4    243    ccc     N2  11933 -0.02747900  14.010000   ; qtot 243.197939
11934         c3    243    ccc     C5  11934 -0.05097600  12.010000   ; qtot 243.146963
11935         c3    243    ccc     C6  11935 -0.05097600  12.010000   ; qtot 243.095987
11936         h1    243    ccc     H9  11936 0.11563300   1.008000   ; qtot 243.211620
11937         c3    243    ccc     C7  11937 -0.18457900  12.010000   ; qtot 243.027041
11938         h1    243    ccc    H10  11938 0.11563300   1.008000   ; qtot 243.142674
11939         hc    243    ccc    H11  11939 0.08347900   1.008000   ; qtot 243.226153
11940         hc    243    ccc    H12  11940 0.08347900   1.008000   ; qtot 243.309632
11941          c    243    ccc     C8  11941 0.67254400  12.010000   ; qtot 243.982176
11942          o    243    ccc     O2  11942 -0.52917200  16.000000   ; qtot 243.453004
11943         h1    243    ccc    H13  11943 0.11563300   1.008000   ; qtot 243.568637
11944         h1    243    ccc    H14  11944 0.11563300   1.008000   ; qtot 243.684270
11945         c3    243    ccc     C9  11945 -0.18457900  12.010000   ; qtot 243.499691
11946         hc    243    ccc    H15  11946 0.08347900   1.008000   ; qtot 243.583170
11947         hc    243    ccc    H16  11947 0.08347900   1.008000   ; qtot 243.666649
11948          c    243    ccc    C10  11948 0.67254400  12.010000   ; qtot 244.339193
11949          o    243    ccc     O4  11949 -0.52917200  16.000000   ; qtot 243.810021
11950         c3    243    ccc    C11  11950 0.08518000  12.010000   ; qtot 243.895201
11951         c3    243    ccc    C12  11951 0.07918000  12.010000   ; qtot 243.974381
11952         h1    243    ccc    H17  11952 0.06978000   1.008000   ; qtot 244.044161
11953         c3    243    ccc    C13  11953 0.07918000  12.010000   ; qtot 244.123341
11954         c3    243    ccc    C14  11954 0.03578000  12.010000   ; qtot 244.159121
11955         c3    243    ccc    C15  11955 0.33498000  12.010000   ; qtot 244.494101
11956         h1    243    ccc    H18  11956 0.06178000   1.008000   ; qtot 244.555881
11957         h1    243    ccc    H19  11957 0.11278000   1.008000   ; qtot 244.668661
11958         h2    243    ccc    H20  11958 0.12178000   1.008000   ; qtot 244.790441
11959         oh    243    ccc     O1  11959 -0.56972000  16.000000   ; qtot 244.220721
11960         oh    243    ccc     O6  11960 -0.57772000  16.000000   ; qtot 243.643001
11961         c3    243    ccc    C16  11961 0.14548000  12.010000   ; qtot 243.788481
11962         ho    243    ccc    H21  11962 0.40508000   1.008000   ; qtot 244.193561
11963         hn    243    ccc    H22  11963 0.31758000   1.008000   ; qtot 244.511141
11964         h1    243    ccc    H23  11964 0.06278000   1.008000   ; qtot 244.573921
11965         h1    243    ccc    H24  11965 0.06278000   1.008000   ; qtot 244.636701
11966         oh    243    ccc     O7  11966 -0.59472000  16.000000   ; qtot 244.041981
11967         ho    243    ccc    H25  11967 0.41908000   1.008000   ; qtot 244.461061
11968         os    243    ccc     O8  11968 -0.44552000  16.000000   ; qtot 244.015541
11969         ho    243    ccc    H26  11969 0.41908000   1.008000   ; qtot 244.434621
11970         h1    243    ccc    H27  11970 0.08578000   1.008000   ; qtot 244.520401
11971         oh    243    ccc     O9  11971 -0.58672000  16.000000   ; qtot 243.933681
11972         ho    243    ccc    H28  11972 0.41908000   1.008000   ; qtot 244.352761
11973         n3    243    ccc     N3  11973 -0.54282000  14.010000   ; qtot 243.809941
11974         c3    243    ccc    C17  11974 0.08518000  12.010000   ; qtot 243.895121
11975         c3    243    ccc    C18  11975 0.07918000  12.010000   ; qtot 243.974301
11976         h1    243    ccc    H29  11976 0.06978000   1.008000   ; qtot 244.044081
11977         c3    243    ccc    C19  11977 0.07918000  12.010000   ; qtot 244.123261
11978         c3    243    ccc    C20  11978 0.03578000  12.010000   ; qtot 244.159041
11979         c3    243    ccc    C21  11979 0.33498000  12.010000   ; qtot 244.494021
11980         h1    243    ccc    H30  11980 0.06178000   1.008000   ; qtot 244.555801
11981         h1    243    ccc    H31  11981 0.11278000   1.008000   ; qtot 244.668581
11982         h2    243    ccc    H32  11982 0.12178000   1.008000   ; qtot 244.790361
11983         oh    243    ccc    O10  11983 -0.56972000  16.000000   ; qtot 244.220641
11984         oh    243    ccc    O11  11984 -0.57772000  16.000000   ; qtot 243.642921
11985         c3    243    ccc    C22  11985 0.14548000  12.010000   ; qtot 243.788401
11986         ho    243    ccc    H33  11986 0.40508000   1.008000   ; qtot 244.193481
11987         hn    243    ccc    H34  11987 0.31758000   1.008000   ; qtot 244.511061
11988         h1    243    ccc    H35  11988 0.06278000   1.008000   ; qtot 244.573841
11989         h1    243    ccc    H36  11989 0.06278000   1.008000   ; qtot 244.636621
11990         oh    243    ccc    O12  11990 -0.59472000  16.000000   ; qtot 244.041901
11991         ho    243    ccc    H37  11991 0.41908000   1.008000   ; qtot 244.460981
11992         os    243    ccc    O13  11992 -0.44552000  16.000000   ; qtot 244.015461
11993         ho    243    ccc    H38  11993 0.41908000   1.008000   ; qtot 244.434541
11994         h1    243    ccc    H39  11994 0.08578000   1.008000   ; qtot 244.520321
11995         oh    243    ccc     O5  11995 -0.58672000  16.000000   ; qtot 243.933601
11996         ho    243    ccc    H40  11996 0.41908000   1.008000   ; qtot 244.352681
11997         n3    243    ccc     N4  11997 -0.54282000  14.010000   ; qtot 243.809861
11998         hn    243    ccc    H41  11998 0.17125500   1.008000   ; qtot 243.981116
; residue  244 ccc rtp ccc q 1.0
11999          n    244    ccc     N1  11999 -0.33303000  14.010000   ; qtot 243.648086
12000         hn    244    ccc     H4  12000 0.25916100   1.008000   ; qtot 243.907247
12001         c3    244    ccc     C3  12001 -0.03328100  12.010000   ; qtot 243.873966
12002         h1    244    ccc     H5  12002 0.10618100   1.008000   ; qtot 243.980147
12003         c3    244    ccc     C4  12003 -0.02083000  12.010000   ; qtot 243.959317
12004         h1    244    ccc     H6  12004 0.10618100   1.008000   ; qtot 244.065498
12005         h1    244    ccc     H7  12005 0.07988000   1.008000   ; qtot 244.145378
12006         h1    244    ccc     H8  12006 0.07988000   1.008000   ; qtot 244.225258
12007         n4    244    ccc     N2  12007 -0.02747900  14.010000   ; qtot 244.197779
12008         c3    244    ccc     C5  12008 -0.05097600  12.010000   ; qtot 244.146803
12009         c3    244    ccc     C6  12009 -0.05097600  12.010000   ; qtot 244.095827
12010         h1    244    ccc     H9  12010 0.11563300   1.008000   ; qtot 244.211460
12011         c3    244    ccc     C7  12011 -0.18457900  12.010000   ; qtot 244.026881
12012         h1    244    ccc    H10  12012 0.11563300   1.008000   ; qtot 244.142514
12013         hc    244    ccc    H11  12013 0.08347900   1.008000   ; qtot 244.225993
12014         hc    244    ccc    H12  12014 0.08347900   1.008000   ; qtot 244.309472
12015          c    244    ccc     C8  12015 0.67254400  12.010000   ; qtot 244.982016
12016          o    244    ccc     O2  12016 -0.52917200  16.000000   ; qtot 244.452844
12017         h1    244    ccc    H13  12017 0.11563300   1.008000   ; qtot 244.568477
12018         h1    244    ccc    H14  12018 0.11563300   1.008000   ; qtot 244.684110
12019         c3    244    ccc     C9  12019 -0.18457900  12.010000   ; qtot 244.499531
12020         hc    244    ccc    H15  12020 0.08347900   1.008000   ; qtot 244.583010
12021         hc    244    ccc    H16  12021 0.08347900   1.008000   ; qtot 244.666489
12022          c    244    ccc    C10  12022 0.67254400  12.010000   ; qtot 245.339033
12023          o    244    ccc     O4  12023 -0.52917200  16.000000   ; qtot 244.809861
12024         c3    244    ccc    C11  12024 0.08518000  12.010000   ; qtot 244.895041
12025         c3    244    ccc    C12  12025 0.07918000  12.010000   ; qtot 244.974221
12026         h1    244    ccc    H17  12026 0.06978000   1.008000   ; qtot 245.044001
12027         c3    244    ccc    C13  12027 0.07918000  12.010000   ; qtot 245.123181
12028         c3    244    ccc    C14  12028 0.03578000  12.010000   ; qtot 245.158961
12029         c3    244    ccc    C15  12029 0.33498000  12.010000   ; qtot 245.493941
12030         h1    244    ccc    H18  12030 0.06178000   1.008000   ; qtot 245.555721
12031         h1    244    ccc    H19  12031 0.11278000   1.008000   ; qtot 245.668501
12032         h2    244    ccc    H20  12032 0.12178000   1.008000   ; qtot 245.790281
12033         oh    244    ccc     O1  12033 -0.56972000  16.000000   ; qtot 245.220561
12034         oh    244    ccc     O6  12034 -0.57772000  16.000000   ; qtot 244.642841
12035         c3    244    ccc    C16  12035 0.14548000  12.010000   ; qtot 244.788321
12036         ho    244    ccc    H21  12036 0.40508000   1.008000   ; qtot 245.193401
12037         hn    244    ccc    H22  12037 0.31758000   1.008000   ; qtot 245.510981
12038         h1    244    ccc    H23  12038 0.06278000   1.008000   ; qtot 245.573761
12039         h1    244    ccc    H24  12039 0.06278000   1.008000   ; qtot 245.636541
12040         oh    244    ccc     O7  12040 -0.59472000  16.000000   ; qtot 245.041821
12041         ho    244    ccc    H25  12041 0.41908000   1.008000   ; qtot 245.460901
12042         os    244    ccc     O8  12042 -0.44552000  16.000000   ; qtot 245.015381
12043         ho    244    ccc    H26  12043 0.41908000   1.008000   ; qtot 245.434461
12044         h1    244    ccc    H27  12044 0.08578000   1.008000   ; qtot 245.520241
12045         oh    244    ccc     O9  12045 -0.58672000  16.000000   ; qtot 244.933521
12046         ho    244    ccc    H28  12046 0.41908000   1.008000   ; qtot 245.352601
12047         n3    244    ccc     N3  12047 -0.54282000  14.010000   ; qtot 244.809781
12048         c3    244    ccc    C17  12048 0.08518000  12.010000   ; qtot 244.894961
12049         c3    244    ccc    C18  12049 0.07918000  12.010000   ; qtot 244.974141
12050         h1    244    ccc    H29  12050 0.06978000   1.008000   ; qtot 245.043921
12051         c3    244    ccc    C19  12051 0.07918000  12.010000   ; qtot 245.123101
12052         c3    244    ccc    C20  12052 0.03578000  12.010000   ; qtot 245.158881
12053         c3    244    ccc    C21  12053 0.33498000  12.010000   ; qtot 245.493861
12054         h1    244    ccc    H30  12054 0.06178000   1.008000   ; qtot 245.555641
12055         h1    244    ccc    H31  12055 0.11278000   1.008000   ; qtot 245.668421
12056         h2    244    ccc    H32  12056 0.12178000   1.008000   ; qtot 245.790201
12057         oh    244    ccc    O10  12057 -0.56972000  16.000000   ; qtot 245.220481
12058         oh    244    ccc    O11  12058 -0.57772000  16.000000   ; qtot 244.642761
12059         c3    244    ccc    C22  12059 0.14548000  12.010000   ; qtot 244.788241
12060         ho    244    ccc    H33  12060 0.40508000   1.008000   ; qtot 245.193321
12061         hn    244    ccc    H34  12061 0.31758000   1.008000   ; qtot 245.510901
12062         h1    244    ccc    H35  12062 0.06278000   1.008000   ; qtot 245.573681
12063         h1    244    ccc    H36  12063 0.06278000   1.008000   ; qtot 245.636461
12064         oh    244    ccc    O12  12064 -0.59472000  16.000000   ; qtot 245.041741
12065         ho    244    ccc    H37  12065 0.41908000   1.008000   ; qtot 245.460821
12066         os    244    ccc    O13  12066 -0.44552000  16.000000   ; qtot 245.015301
12067         ho    244    ccc    H38  12067 0.41908000   1.008000   ; qtot 245.434381
12068         h1    244    ccc    H39  12068 0.08578000   1.008000   ; qtot 245.520161
12069         oh    244    ccc     O5  12069 -0.58672000  16.000000   ; qtot 244.933441
12070         ho    244    ccc    H40  12070 0.41908000   1.008000   ; qtot 245.352521
12071         n3    244    ccc     N4  12071 -0.54282000  14.010000   ; qtot 244.809701
12072         hn    244    ccc    H41  12072 0.17125500   1.008000   ; qtot 244.980956
; residue  245 ccc rtp ccc q 1.0
12073          n    245    ccc     N1  12073 -0.33303000  14.010000   ; qtot 244.647926
12074         hn    245    ccc     H4  12074 0.25916100   1.008000   ; qtot 244.907087
12075         c3    245    ccc     C3  12075 -0.03328100  12.010000   ; qtot 244.873806
12076         h1    245    ccc     H5  12076 0.10618100   1.008000   ; qtot 244.979987
12077         c3    245    ccc     C4  12077 -0.02083000  12.010000   ; qtot 244.959157
12078         h1    245    ccc     H6  12078 0.10618100   1.008000   ; qtot 245.065338
12079         h1    245    ccc     H7  12079 0.07988000   1.008000   ; qtot 245.145218
12080         h1    245    ccc     H8  12080 0.07988000   1.008000   ; qtot 245.225098
12081         n4    245    ccc     N2  12081 -0.02747900  14.010000   ; qtot 245.197619
12082         c3    245    ccc     C5  12082 -0.05097600  12.010000   ; qtot 245.146643
12083         c3    245    ccc     C6  12083 -0.05097600  12.010000   ; qtot 245.095667
12084         h1    245    ccc     H9  12084 0.11563300   1.008000   ; qtot 245.211300
12085         c3    245    ccc     C7  12085 -0.18457900  12.010000   ; qtot 245.026721
12086         h1    245    ccc    H10  12086 0.11563300   1.008000   ; qtot 245.142354
12087         hc    245    ccc    H11  12087 0.08347900   1.008000   ; qtot 245.225833
12088         hc    245    ccc    H12  12088 0.08347900   1.008000   ; qtot 245.309312
12089          c    245    ccc     C8  12089 0.67254400  12.010000   ; qtot 245.981856
12090          o    245    ccc     O2  12090 -0.52917200  16.000000   ; qtot 245.452684
12091         h1    245    ccc    H13  12091 0.11563300   1.008000   ; qtot 245.568317
12092         h1    245    ccc    H14  12092 0.11563300   1.008000   ; qtot 245.683950
12093         c3    245    ccc     C9  12093 -0.18457900  12.010000   ; qtot 245.499371
12094         hc    245    ccc    H15  12094 0.08347900   1.008000   ; qtot 245.582850
12095         hc    245    ccc    H16  12095 0.08347900   1.008000   ; qtot 245.666329
12096          c    245    ccc    C10  12096 0.67254400  12.010000   ; qtot 246.338873
12097          o    245    ccc     O4  12097 -0.52917200  16.000000   ; qtot 245.809701
12098         c3    245    ccc    C11  12098 0.08518000  12.010000   ; qtot 245.894881
12099         c3    245    ccc    C12  12099 0.07918000  12.010000   ; qtot 245.974061
12100         h1    245    ccc    H17  12100 0.06978000   1.008000   ; qtot 246.043841
12101         c3    245    ccc    C13  12101 0.07918000  12.010000   ; qtot 246.123021
12102         c3    245    ccc    C14  12102 0.03578000  12.010000   ; qtot 246.158801
12103         c3    245    ccc    C15  12103 0.33498000  12.010000   ; qtot 246.493781
12104         h1    245    ccc    H18  12104 0.06178000   1.008000   ; qtot 246.555561
12105         h1    245    ccc    H19  12105 0.11278000   1.008000   ; qtot 246.668341
12106         h2    245    ccc    H20  12106 0.12178000   1.008000   ; qtot 246.790121
12107         oh    245    ccc     O1  12107 -0.56972000  16.000000   ; qtot 246.220401
12108         oh    245    ccc     O6  12108 -0.57772000  16.000000   ; qtot 245.642681
12109         c3    245    ccc    C16  12109 0.14548000  12.010000   ; qtot 245.788161
12110         ho    245    ccc    H21  12110 0.40508000   1.008000   ; qtot 246.193241
12111         hn    245    ccc    H22  12111 0.31758000   1.008000   ; qtot 246.510821
12112         h1    245    ccc    H23  12112 0.06278000   1.008000   ; qtot 246.573601
12113         h1    245    ccc    H24  12113 0.06278000   1.008000   ; qtot 246.636381
12114         oh    245    ccc     O7  12114 -0.59472000  16.000000   ; qtot 246.041661
12115         ho    245    ccc    H25  12115 0.41908000   1.008000   ; qtot 246.460741
12116         os    245    ccc     O8  12116 -0.44552000  16.000000   ; qtot 246.015221
12117         ho    245    ccc    H26  12117 0.41908000   1.008000   ; qtot 246.434301
12118         h1    245    ccc    H27  12118 0.08578000   1.008000   ; qtot 246.520081
12119         oh    245    ccc     O9  12119 -0.58672000  16.000000   ; qtot 245.933361
12120         ho    245    ccc    H28  12120 0.41908000   1.008000   ; qtot 246.352441
12121         n3    245    ccc     N3  12121 -0.54282000  14.010000   ; qtot 245.809621
12122         c3    245    ccc    C17  12122 0.08518000  12.010000   ; qtot 245.894801
12123         c3    245    ccc    C18  12123 0.07918000  12.010000   ; qtot 245.973981
12124         h1    245    ccc    H29  12124 0.06978000   1.008000   ; qtot 246.043761
12125         c3    245    ccc    C19  12125 0.07918000  12.010000   ; qtot 246.122941
12126         c3    245    ccc    C20  12126 0.03578000  12.010000   ; qtot 246.158721
12127         c3    245    ccc    C21  12127 0.33498000  12.010000   ; qtot 246.493701
12128         h1    245    ccc    H30  12128 0.06178000   1.008000   ; qtot 246.555481
12129         h1    245    ccc    H31  12129 0.11278000   1.008000   ; qtot 246.668261
12130         h2    245    ccc    H32  12130 0.12178000   1.008000   ; qtot 246.790041
12131         oh    245    ccc    O10  12131 -0.56972000  16.000000   ; qtot 246.220321
12132         oh    245    ccc    O11  12132 -0.57772000  16.000000   ; qtot 245.642601
12133         c3    245    ccc    C22  12133 0.14548000  12.010000   ; qtot 245.788081
12134         ho    245    ccc    H33  12134 0.40508000   1.008000   ; qtot 246.193161
12135         hn    245    ccc    H34  12135 0.31758000   1.008000   ; qtot 246.510741
12136         h1    245    ccc    H35  12136 0.06278000   1.008000   ; qtot 246.573521
12137         h1    245    ccc    H36  12137 0.06278000   1.008000   ; qtot 246.636301
12138         oh    245    ccc    O12  12138 -0.59472000  16.000000   ; qtot 246.041581
12139         ho    245    ccc    H37  12139 0.41908000   1.008000   ; qtot 246.460661
12140         os    245    ccc    O13  12140 -0.44552000  16.000000   ; qtot 246.015141
12141         ho    245    ccc    H38  12141 0.41908000   1.008000   ; qtot 246.434221
12142         h1    245    ccc    H39  12142 0.08578000   1.008000   ; qtot 246.520001
12143         oh    245    ccc     O5  12143 -0.58672000  16.000000   ; qtot 245.933281
12144         ho    245    ccc    H40  12144 0.41908000   1.008000   ; qtot 246.352361
12145         n3    245    ccc     N4  12145 -0.54282000  14.010000   ; qtot 245.809541
12146         hn    245    ccc    H41  12146 0.17125500   1.008000   ; qtot 245.980796
; residue  246 ccc rtp ccc q 1.0
12147          n    246    ccc     N1  12147 -0.33303000  14.010000   ; qtot 245.647766
12148         hn    246    ccc     H4  12148 0.25916100   1.008000   ; qtot 245.906927
12149         c3    246    ccc     C3  12149 -0.03328100  12.010000   ; qtot 245.873646
12150         h1    246    ccc     H5  12150 0.10618100   1.008000   ; qtot 245.979827
12151         c3    246    ccc     C4  12151 -0.02083000  12.010000   ; qtot 245.958997
12152         h1    246    ccc     H6  12152 0.10618100   1.008000   ; qtot 246.065178
12153         h1    246    ccc     H7  12153 0.07988000   1.008000   ; qtot 246.145058
12154         h1    246    ccc     H8  12154 0.07988000   1.008000   ; qtot 246.224938
12155         n4    246    ccc     N2  12155 -0.02747900  14.010000   ; qtot 246.197459
12156         c3    246    ccc     C5  12156 -0.05097600  12.010000   ; qtot 246.146483
12157         c3    246    ccc     C6  12157 -0.05097600  12.010000   ; qtot 246.095507
12158         h1    246    ccc     H9  12158 0.11563300   1.008000   ; qtot 246.211140
12159         c3    246    ccc     C7  12159 -0.18457900  12.010000   ; qtot 246.026561
12160         h1    246    ccc    H10  12160 0.11563300   1.008000   ; qtot 246.142194
12161         hc    246    ccc    H11  12161 0.08347900   1.008000   ; qtot 246.225673
12162         hc    246    ccc    H12  12162 0.08347900   1.008000   ; qtot 246.309152
12163          c    246    ccc     C8  12163 0.67254400  12.010000   ; qtot 246.981696
12164          o    246    ccc     O2  12164 -0.52917200  16.000000   ; qtot 246.452524
12165         h1    246    ccc    H13  12165 0.11563300   1.008000   ; qtot 246.568157
12166         h1    246    ccc    H14  12166 0.11563300   1.008000   ; qtot 246.683790
12167         c3    246    ccc     C9  12167 -0.18457900  12.010000   ; qtot 246.499211
12168         hc    246    ccc    H15  12168 0.08347900   1.008000   ; qtot 246.582690
12169         hc    246    ccc    H16  12169 0.08347900   1.008000   ; qtot 246.666169
12170          c    246    ccc    C10  12170 0.67254400  12.010000   ; qtot 247.338713
12171          o    246    ccc     O4  12171 -0.52917200  16.000000   ; qtot 246.809541
12172         c3    246    ccc    C11  12172 0.08518000  12.010000   ; qtot 246.894721
12173         c3    246    ccc    C12  12173 0.07918000  12.010000   ; qtot 246.973901
12174         h1    246    ccc    H17  12174 0.06978000   1.008000   ; qtot 247.043681
12175         c3    246    ccc    C13  12175 0.07918000  12.010000   ; qtot 247.122861
12176         c3    246    ccc    C14  12176 0.03578000  12.010000   ; qtot 247.158641
12177         c3    246    ccc    C15  12177 0.33498000  12.010000   ; qtot 247.493621
12178         h1    246    ccc    H18  12178 0.06178000   1.008000   ; qtot 247.555401
12179         h1    246    ccc    H19  12179 0.11278000   1.008000   ; qtot 247.668181
12180         h2    246    ccc    H20  12180 0.12178000   1.008000   ; qtot 247.789961
12181         oh    246    ccc     O1  12181 -0.56972000  16.000000   ; qtot 247.220241
12182         oh    246    ccc     O6  12182 -0.57772000  16.000000   ; qtot 246.642521
12183         c3    246    ccc    C16  12183 0.14548000  12.010000   ; qtot 246.788001
12184         ho    246    ccc    H21  12184 0.40508000   1.008000   ; qtot 247.193081
12185         hn    246    ccc    H22  12185 0.31758000   1.008000   ; qtot 247.510661
12186         h1    246    ccc    H23  12186 0.06278000   1.008000   ; qtot 247.573441
12187         h1    246    ccc    H24  12187 0.06278000   1.008000   ; qtot 247.636221
12188         oh    246    ccc     O7  12188 -0.59472000  16.000000   ; qtot 247.041501
12189         ho    246    ccc    H25  12189 0.41908000   1.008000   ; qtot 247.460581
12190         os    246    ccc     O8  12190 -0.44552000  16.000000   ; qtot 247.015061
12191         ho    246    ccc    H26  12191 0.41908000   1.008000   ; qtot 247.434141
12192         h1    246    ccc    H27  12192 0.08578000   1.008000   ; qtot 247.519921
12193         oh    246    ccc     O9  12193 -0.58672000  16.000000   ; qtot 246.933201
12194         ho    246    ccc    H28  12194 0.41908000   1.008000   ; qtot 247.352281
12195         n3    246    ccc     N3  12195 -0.54282000  14.010000   ; qtot 246.809461
12196         c3    246    ccc    C17  12196 0.08518000  12.010000   ; qtot 246.894641
12197         c3    246    ccc    C18  12197 0.07918000  12.010000   ; qtot 246.973821
12198         h1    246    ccc    H29  12198 0.06978000   1.008000   ; qtot 247.043601
12199         c3    246    ccc    C19  12199 0.07918000  12.010000   ; qtot 247.122781
12200         c3    246    ccc    C20  12200 0.03578000  12.010000   ; qtot 247.158561
12201         c3    246    ccc    C21  12201 0.33498000  12.010000   ; qtot 247.493541
12202         h1    246    ccc    H30  12202 0.06178000   1.008000   ; qtot 247.555321
12203         h1    246    ccc    H31  12203 0.11278000   1.008000   ; qtot 247.668101
12204         h2    246    ccc    H32  12204 0.12178000   1.008000   ; qtot 247.789881
12205         oh    246    ccc    O10  12205 -0.56972000  16.000000   ; qtot 247.220161
12206         oh    246    ccc    O11  12206 -0.57772000  16.000000   ; qtot 246.642441
12207         c3    246    ccc    C22  12207 0.14548000  12.010000   ; qtot 246.787921
12208         ho    246    ccc    H33  12208 0.40508000   1.008000   ; qtot 247.193001
12209         hn    246    ccc    H34  12209 0.31758000   1.008000   ; qtot 247.510581
12210         h1    246    ccc    H35  12210 0.06278000   1.008000   ; qtot 247.573361
12211         h1    246    ccc    H36  12211 0.06278000   1.008000   ; qtot 247.636141
12212         oh    246    ccc    O12  12212 -0.59472000  16.000000   ; qtot 247.041421
12213         ho    246    ccc    H37  12213 0.41908000   1.008000   ; qtot 247.460501
12214         os    246    ccc    O13  12214 -0.44552000  16.000000   ; qtot 247.014981
12215         ho    246    ccc    H38  12215 0.41908000   1.008000   ; qtot 247.434061
12216         h1    246    ccc    H39  12216 0.08578000   1.008000   ; qtot 247.519841
12217         oh    246    ccc     O5  12217 -0.58672000  16.000000   ; qtot 246.933121
12218         ho    246    ccc    H40  12218 0.41908000   1.008000   ; qtot 247.352201
12219         n3    246    ccc     N4  12219 -0.54282000  14.010000   ; qtot 246.809381
12220         hn    246    ccc    H41  12220 0.17125500   1.008000   ; qtot 246.980636
; residue  247 ccc rtp ccc q 1.0
12221          n    247    ccc     N1  12221 -0.33303000  14.010000   ; qtot 246.647606
12222         hn    247    ccc     H4  12222 0.25916100   1.008000   ; qtot 246.906767
12223         c3    247    ccc     C3  12223 -0.03328100  12.010000   ; qtot 246.873486
12224         h1    247    ccc     H5  12224 0.10618100   1.008000   ; qtot 246.979667
12225         c3    247    ccc     C4  12225 -0.02083000  12.010000   ; qtot 246.958837
12226         h1    247    ccc     H6  12226 0.10618100   1.008000   ; qtot 247.065018
12227         h1    247    ccc     H7  12227 0.07988000   1.008000   ; qtot 247.144898
12228         h1    247    ccc     H8  12228 0.07988000   1.008000   ; qtot 247.224778
12229         n4    247    ccc     N2  12229 -0.02747900  14.010000   ; qtot 247.197299
12230         c3    247    ccc     C5  12230 -0.05097600  12.010000   ; qtot 247.146323
12231         c3    247    ccc     C6  12231 -0.05097600  12.010000   ; qtot 247.095347
12232         h1    247    ccc     H9  12232 0.11563300   1.008000   ; qtot 247.210980
12233         c3    247    ccc     C7  12233 -0.18457900  12.010000   ; qtot 247.026401
12234         h1    247    ccc    H10  12234 0.11563300   1.008000   ; qtot 247.142034
12235         hc    247    ccc    H11  12235 0.08347900   1.008000   ; qtot 247.225513
12236         hc    247    ccc    H12  12236 0.08347900   1.008000   ; qtot 247.308992
12237          c    247    ccc     C8  12237 0.67254400  12.010000   ; qtot 247.981536
12238          o    247    ccc     O2  12238 -0.52917200  16.000000   ; qtot 247.452364
12239         h1    247    ccc    H13  12239 0.11563300   1.008000   ; qtot 247.567997
12240         h1    247    ccc    H14  12240 0.11563300   1.008000   ; qtot 247.683630
12241         c3    247    ccc     C9  12241 -0.18457900  12.010000   ; qtot 247.499051
12242         hc    247    ccc    H15  12242 0.08347900   1.008000   ; qtot 247.582530
12243         hc    247    ccc    H16  12243 0.08347900   1.008000   ; qtot 247.666009
12244          c    247    ccc    C10  12244 0.67254400  12.010000   ; qtot 248.338553
12245          o    247    ccc     O4  12245 -0.52917200  16.000000   ; qtot 247.809381
12246         c3    247    ccc    C11  12246 0.08518000  12.010000   ; qtot 247.894561
12247         c3    247    ccc    C12  12247 0.07918000  12.010000   ; qtot 247.973741
12248         h1    247    ccc    H17  12248 0.06978000   1.008000   ; qtot 248.043521
12249         c3    247    ccc    C13  12249 0.07918000  12.010000   ; qtot 248.122701
12250         c3    247    ccc    C14  12250 0.03578000  12.010000   ; qtot 248.158481
12251         c3    247    ccc    C15  12251 0.33498000  12.010000   ; qtot 248.493461
12252         h1    247    ccc    H18  12252 0.06178000   1.008000   ; qtot 248.555241
12253         h1    247    ccc    H19  12253 0.11278000   1.008000   ; qtot 248.668021
12254         h2    247    ccc    H20  12254 0.12178000   1.008000   ; qtot 248.789801
12255         oh    247    ccc     O1  12255 -0.56972000  16.000000   ; qtot 248.220081
12256         oh    247    ccc     O6  12256 -0.57772000  16.000000   ; qtot 247.642361
12257         c3    247    ccc    C16  12257 0.14548000  12.010000   ; qtot 247.787841
12258         ho    247    ccc    H21  12258 0.40508000   1.008000   ; qtot 248.192921
12259         hn    247    ccc    H22  12259 0.31758000   1.008000   ; qtot 248.510501
12260         h1    247    ccc    H23  12260 0.06278000   1.008000   ; qtot 248.573281
12261         h1    247    ccc    H24  12261 0.06278000   1.008000   ; qtot 248.636061
12262         oh    247    ccc     O7  12262 -0.59472000  16.000000   ; qtot 248.041341
12263         ho    247    ccc    H25  12263 0.41908000   1.008000   ; qtot 248.460421
12264         os    247    ccc     O8  12264 -0.44552000  16.000000   ; qtot 248.014901
12265         ho    247    ccc    H26  12265 0.41908000   1.008000   ; qtot 248.433981
12266         h1    247    ccc    H27  12266 0.08578000   1.008000   ; qtot 248.519761
12267         oh    247    ccc     O9  12267 -0.58672000  16.000000   ; qtot 247.933041
12268         ho    247    ccc    H28  12268 0.41908000   1.008000   ; qtot 248.352121
12269         n3    247    ccc     N3  12269 -0.54282000  14.010000   ; qtot 247.809301
12270         c3    247    ccc    C17  12270 0.08518000  12.010000   ; qtot 247.894481
12271         c3    247    ccc    C18  12271 0.07918000  12.010000   ; qtot 247.973661
12272         h1    247    ccc    H29  12272 0.06978000   1.008000   ; qtot 248.043441
12273         c3    247    ccc    C19  12273 0.07918000  12.010000   ; qtot 248.122621
12274         c3    247    ccc    C20  12274 0.03578000  12.010000   ; qtot 248.158401
12275         c3    247    ccc    C21  12275 0.33498000  12.010000   ; qtot 248.493381
12276         h1    247    ccc    H30  12276 0.06178000   1.008000   ; qtot 248.555161
12277         h1    247    ccc    H31  12277 0.11278000   1.008000   ; qtot 248.667941
12278         h2    247    ccc    H32  12278 0.12178000   1.008000   ; qtot 248.789721
12279         oh    247    ccc    O10  12279 -0.56972000  16.000000   ; qtot 248.220001
12280         oh    247    ccc    O11  12280 -0.57772000  16.000000   ; qtot 247.642281
12281         c3    247    ccc    C22  12281 0.14548000  12.010000   ; qtot 247.787761
12282         ho    247    ccc    H33  12282 0.40508000   1.008000   ; qtot 248.192841
12283         hn    247    ccc    H34  12283 0.31758000   1.008000   ; qtot 248.510421
12284         h1    247    ccc    H35  12284 0.06278000   1.008000   ; qtot 248.573201
12285         h1    247    ccc    H36  12285 0.06278000   1.008000   ; qtot 248.635981
12286         oh    247    ccc    O12  12286 -0.59472000  16.000000   ; qtot 248.041261
12287         ho    247    ccc    H37  12287 0.41908000   1.008000   ; qtot 248.460341
12288         os    247    ccc    O13  12288 -0.44552000  16.000000   ; qtot 248.014821
12289         ho    247    ccc    H38  12289 0.41908000   1.008000   ; qtot 248.433901
12290         h1    247    ccc    H39  12290 0.08578000   1.008000   ; qtot 248.519681
12291         oh    247    ccc     O5  12291 -0.58672000  16.000000   ; qtot 247.932961
12292         ho    247    ccc    H40  12292 0.41908000   1.008000   ; qtot 248.352041
12293         n3    247    ccc     N4  12293 -0.54282000  14.010000   ; qtot 247.809221
12294         hn    247    ccc    H41  12294 0.17125500   1.008000   ; qtot 247.980476
; residue  248 ccc rtp ccc q 1.0
12295          n    248    ccc     N1  12295 -0.33303000  14.010000   ; qtot 247.647446
12296         hn    248    ccc     H4  12296 0.25916100   1.008000   ; qtot 247.906607
12297         c3    248    ccc     C3  12297 -0.03328100  12.010000   ; qtot 247.873326
12298         h1    248    ccc     H5  12298 0.10618100   1.008000   ; qtot 247.979507
12299         c3    248    ccc     C4  12299 -0.02083000  12.010000   ; qtot 247.958677
12300         h1    248    ccc     H6  12300 0.10618100   1.008000   ; qtot 248.064858
12301         h1    248    ccc     H7  12301 0.07988000   1.008000   ; qtot 248.144738
12302         h1    248    ccc     H8  12302 0.07988000   1.008000   ; qtot 248.224618
12303         n4    248    ccc     N2  12303 -0.02747900  14.010000   ; qtot 248.197139
12304         c3    248    ccc     C5  12304 -0.05097600  12.010000   ; qtot 248.146163
12305         c3    248    ccc     C6  12305 -0.05097600  12.010000   ; qtot 248.095187
12306         h1    248    ccc     H9  12306 0.11563300   1.008000   ; qtot 248.210820
12307         c3    248    ccc     C7  12307 -0.18457900  12.010000   ; qtot 248.026241
12308         h1    248    ccc    H10  12308 0.11563300   1.008000   ; qtot 248.141874
12309         hc    248    ccc    H11  12309 0.08347900   1.008000   ; qtot 248.225353
12310         hc    248    ccc    H12  12310 0.08347900   1.008000   ; qtot 248.308832
12311          c    248    ccc     C8  12311 0.67254400  12.010000   ; qtot 248.981376
12312          o    248    ccc     O2  12312 -0.52917200  16.000000   ; qtot 248.452204
12313         h1    248    ccc    H13  12313 0.11563300   1.008000   ; qtot 248.567837
12314         h1    248    ccc    H14  12314 0.11563300   1.008000   ; qtot 248.683470
12315         c3    248    ccc     C9  12315 -0.18457900  12.010000   ; qtot 248.498891
12316         hc    248    ccc    H15  12316 0.08347900   1.008000   ; qtot 248.582370
12317         hc    248    ccc    H16  12317 0.08347900   1.008000   ; qtot 248.665849
12318          c    248    ccc    C10  12318 0.67254400  12.010000   ; qtot 249.338393
12319          o    248    ccc     O4  12319 -0.52917200  16.000000   ; qtot 248.809221
12320         c3    248    ccc    C11  12320 0.08518000  12.010000   ; qtot 248.894401
12321         c3    248    ccc    C12  12321 0.07918000  12.010000   ; qtot 248.973581
12322         h1    248    ccc    H17  12322 0.06978000   1.008000   ; qtot 249.043361
12323         c3    248    ccc    C13  12323 0.07918000  12.010000   ; qtot 249.122541
12324         c3    248    ccc    C14  12324 0.03578000  12.010000   ; qtot 249.158321
12325         c3    248    ccc    C15  12325 0.33498000  12.010000   ; qtot 249.493301
12326         h1    248    ccc    H18  12326 0.06178000   1.008000   ; qtot 249.555081
12327         h1    248    ccc    H19  12327 0.11278000   1.008000   ; qtot 249.667861
12328         h2    248    ccc    H20  12328 0.12178000   1.008000   ; qtot 249.789641
12329         oh    248    ccc     O1  12329 -0.56972000  16.000000   ; qtot 249.219921
12330         oh    248    ccc     O6  12330 -0.57772000  16.000000   ; qtot 248.642201
12331         c3    248    ccc    C16  12331 0.14548000  12.010000   ; qtot 248.787681
12332         ho    248    ccc    H21  12332 0.40508000   1.008000   ; qtot 249.192761
12333         hn    248    ccc    H22  12333 0.31758000   1.008000   ; qtot 249.510341
12334         h1    248    ccc    H23  12334 0.06278000   1.008000   ; qtot 249.573121
12335         h1    248    ccc    H24  12335 0.06278000   1.008000   ; qtot 249.635901
12336         oh    248    ccc     O7  12336 -0.59472000  16.000000   ; qtot 249.041181
12337         ho    248    ccc    H25  12337 0.41908000   1.008000   ; qtot 249.460261
12338         os    248    ccc     O8  12338 -0.44552000  16.000000   ; qtot 249.014741
12339         ho    248    ccc    H26  12339 0.41908000   1.008000   ; qtot 249.433821
12340         h1    248    ccc    H27  12340 0.08578000   1.008000   ; qtot 249.519601
12341         oh    248    ccc     O9  12341 -0.58672000  16.000000   ; qtot 248.932881
12342         ho    248    ccc    H28  12342 0.41908000   1.008000   ; qtot 249.351961
12343         n3    248    ccc     N3  12343 -0.54282000  14.010000   ; qtot 248.809141
12344         c3    248    ccc    C17  12344 0.08518000  12.010000   ; qtot 248.894321
12345         c3    248    ccc    C18  12345 0.07918000  12.010000   ; qtot 248.973501
12346         h1    248    ccc    H29  12346 0.06978000   1.008000   ; qtot 249.043281
12347         c3    248    ccc    C19  12347 0.07918000  12.010000   ; qtot 249.122461
12348         c3    248    ccc    C20  12348 0.03578000  12.010000   ; qtot 249.158241
12349         c3    248    ccc    C21  12349 0.33498000  12.010000   ; qtot 249.493221
12350         h1    248    ccc    H30  12350 0.06178000   1.008000   ; qtot 249.555001
12351         h1    248    ccc    H31  12351 0.11278000   1.008000   ; qtot 249.667781
12352         h2    248    ccc    H32  12352 0.12178000   1.008000   ; qtot 249.789561
12353         oh    248    ccc    O10  12353 -0.56972000  16.000000   ; qtot 249.219841
12354         oh    248    ccc    O11  12354 -0.57772000  16.000000   ; qtot 248.642121
12355         c3    248    ccc    C22  12355 0.14548000  12.010000   ; qtot 248.787601
12356         ho    248    ccc    H33  12356 0.40508000   1.008000   ; qtot 249.192681
12357         hn    248    ccc    H34  12357 0.31758000   1.008000   ; qtot 249.510261
12358         h1    248    ccc    H35  12358 0.06278000   1.008000   ; qtot 249.573041
12359         h1    248    ccc    H36  12359 0.06278000   1.008000   ; qtot 249.635821
12360         oh    248    ccc    O12  12360 -0.59472000  16.000000   ; qtot 249.041101
12361         ho    248    ccc    H37  12361 0.41908000   1.008000   ; qtot 249.460181
12362         os    248    ccc    O13  12362 -0.44552000  16.000000   ; qtot 249.014661
12363         ho    248    ccc    H38  12363 0.41908000   1.008000   ; qtot 249.433741
12364         h1    248    ccc    H39  12364 0.08578000   1.008000   ; qtot 249.519521
12365         oh    248    ccc     O5  12365 -0.58672000  16.000000   ; qtot 248.932801
12366         ho    248    ccc    H40  12366 0.41908000   1.008000   ; qtot 249.351881
12367         n3    248    ccc     N4  12367 -0.54282000  14.010000   ; qtot 248.809061
12368         hn    248    ccc    H41  12368 0.17125500   1.008000   ; qtot 248.980316
; residue  249 ccc rtp ccc q 1.0
12369          n    249    ccc     N1  12369 -0.33303000  14.010000   ; qtot 248.647286
12370         hn    249    ccc     H4  12370 0.25916100   1.008000   ; qtot 248.906447
12371         c3    249    ccc     C3  12371 -0.03328100  12.010000   ; qtot 248.873166
12372         h1    249    ccc     H5  12372 0.10618100   1.008000   ; qtot 248.979347
12373         c3    249    ccc     C4  12373 -0.02083000  12.010000   ; qtot 248.958517
12374         h1    249    ccc     H6  12374 0.10618100   1.008000   ; qtot 249.064698
12375         h1    249    ccc     H7  12375 0.07988000   1.008000   ; qtot 249.144578
12376         h1    249    ccc     H8  12376 0.07988000   1.008000   ; qtot 249.224458
12377         n4    249    ccc     N2  12377 -0.02747900  14.010000   ; qtot 249.196979
12378         c3    249    ccc     C5  12378 -0.05097600  12.010000   ; qtot 249.146003
12379         c3    249    ccc     C6  12379 -0.05097600  12.010000   ; qtot 249.095027
12380         h1    249    ccc     H9  12380 0.11563300   1.008000   ; qtot 249.210660
12381         c3    249    ccc     C7  12381 -0.18457900  12.010000   ; qtot 249.026081
12382         h1    249    ccc    H10  12382 0.11563300   1.008000   ; qtot 249.141714
12383         hc    249    ccc    H11  12383 0.08347900   1.008000   ; qtot 249.225193
12384         hc    249    ccc    H12  12384 0.08347900   1.008000   ; qtot 249.308672
12385          c    249    ccc     C8  12385 0.67254400  12.010000   ; qtot 249.981216
12386          o    249    ccc     O2  12386 -0.52917200  16.000000   ; qtot 249.452044
12387         h1    249    ccc    H13  12387 0.11563300   1.008000   ; qtot 249.567677
12388         h1    249    ccc    H14  12388 0.11563300   1.008000   ; qtot 249.683310
12389         c3    249    ccc     C9  12389 -0.18457900  12.010000   ; qtot 249.498731
12390         hc    249    ccc    H15  12390 0.08347900   1.008000   ; qtot 249.582210
12391         hc    249    ccc    H16  12391 0.08347900   1.008000   ; qtot 249.665689
12392          c    249    ccc    C10  12392 0.67254400  12.010000   ; qtot 250.338233
12393          o    249    ccc     O4  12393 -0.52917200  16.000000   ; qtot 249.809061
12394         c3    249    ccc    C11  12394 0.08518000  12.010000   ; qtot 249.894241
12395         c3    249    ccc    C12  12395 0.07918000  12.010000   ; qtot 249.973421
12396         h1    249    ccc    H17  12396 0.06978000   1.008000   ; qtot 250.043201
12397         c3    249    ccc    C13  12397 0.07918000  12.010000   ; qtot 250.122381
12398         c3    249    ccc    C14  12398 0.03578000  12.010000   ; qtot 250.158161
12399         c3    249    ccc    C15  12399 0.33498000  12.010000   ; qtot 250.493141
12400         h1    249    ccc    H18  12400 0.06178000   1.008000   ; qtot 250.554921
12401         h1    249    ccc    H19  12401 0.11278000   1.008000   ; qtot 250.667701
12402         h2    249    ccc    H20  12402 0.12178000   1.008000   ; qtot 250.789481
12403         oh    249    ccc     O1  12403 -0.56972000  16.000000   ; qtot 250.219761
12404         oh    249    ccc     O6  12404 -0.57772000  16.000000   ; qtot 249.642041
12405         c3    249    ccc    C16  12405 0.14548000  12.010000   ; qtot 249.787521
12406         ho    249    ccc    H21  12406 0.40508000   1.008000   ; qtot 250.192601
12407         hn    249    ccc    H22  12407 0.31758000   1.008000   ; qtot 250.510181
12408         h1    249    ccc    H23  12408 0.06278000   1.008000   ; qtot 250.572961
12409         h1    249    ccc    H24  12409 0.06278000   1.008000   ; qtot 250.635741
12410         oh    249    ccc     O7  12410 -0.59472000  16.000000   ; qtot 250.041021
12411         ho    249    ccc    H25  12411 0.41908000   1.008000   ; qtot 250.460101
12412         os    249    ccc     O8  12412 -0.44552000  16.000000   ; qtot 250.014581
12413         ho    249    ccc    H26  12413 0.41908000   1.008000   ; qtot 250.433661
12414         h1    249    ccc    H27  12414 0.08578000   1.008000   ; qtot 250.519441
12415         oh    249    ccc     O9  12415 -0.58672000  16.000000   ; qtot 249.932721
12416         ho    249    ccc    H28  12416 0.41908000   1.008000   ; qtot 250.351801
12417         n3    249    ccc     N3  12417 -0.54282000  14.010000   ; qtot 249.808981
12418         c3    249    ccc    C17  12418 0.08518000  12.010000   ; qtot 249.894161
12419         c3    249    ccc    C18  12419 0.07918000  12.010000   ; qtot 249.973341
12420         h1    249    ccc    H29  12420 0.06978000   1.008000   ; qtot 250.043121
12421         c3    249    ccc    C19  12421 0.07918000  12.010000   ; qtot 250.122301
12422         c3    249    ccc    C20  12422 0.03578000  12.010000   ; qtot 250.158081
12423         c3    249    ccc    C21  12423 0.33498000  12.010000   ; qtot 250.493061
12424         h1    249    ccc    H30  12424 0.06178000   1.008000   ; qtot 250.554841
12425         h1    249    ccc    H31  12425 0.11278000   1.008000   ; qtot 250.667621
12426         h2    249    ccc    H32  12426 0.12178000   1.008000   ; qtot 250.789401
12427         oh    249    ccc    O10  12427 -0.56972000  16.000000   ; qtot 250.219681
12428         oh    249    ccc    O11  12428 -0.57772000  16.000000   ; qtot 249.641961
12429         c3    249    ccc    C22  12429 0.14548000  12.010000   ; qtot 249.787441
12430         ho    249    ccc    H33  12430 0.40508000   1.008000   ; qtot 250.192521
12431         hn    249    ccc    H34  12431 0.31758000   1.008000   ; qtot 250.510101
12432         h1    249    ccc    H35  12432 0.06278000   1.008000   ; qtot 250.572881
12433         h1    249    ccc    H36  12433 0.06278000   1.008000   ; qtot 250.635661
12434         oh    249    ccc    O12  12434 -0.59472000  16.000000   ; qtot 250.040941
12435         ho    249    ccc    H37  12435 0.41908000   1.008000   ; qtot 250.460021
12436         os    249    ccc    O13  12436 -0.44552000  16.000000   ; qtot 250.014501
12437         ho    249    ccc    H38  12437 0.41908000   1.008000   ; qtot 250.433581
12438         h1    249    ccc    H39  12438 0.08578000   1.008000   ; qtot 250.519361
12439         oh    249    ccc     O5  12439 -0.58672000  16.000000   ; qtot 249.932641
12440         ho    249    ccc    H40  12440 0.41908000   1.008000   ; qtot 250.351721
12441         n3    249    ccc     N4  12441 -0.54282000  14.010000   ; qtot 249.808901
12442         hn    249    ccc    H41  12442 0.17125500   1.008000   ; qtot 249.980156
; residue  250 ccc rtp ccc q 1.0
12443          n    250    ccc     N1  12443 -0.33303000  14.010000   ; qtot 249.647126
12444         hn    250    ccc     H4  12444 0.25916100   1.008000   ; qtot 249.906287
12445         c3    250    ccc     C3  12445 -0.03328100  12.010000   ; qtot 249.873006
12446         h1    250    ccc     H5  12446 0.10618100   1.008000   ; qtot 249.979187
12447         c3    250    ccc     C4  12447 -0.02083000  12.010000   ; qtot 249.958357
12448         h1    250    ccc     H6  12448 0.10618100   1.008000   ; qtot 250.064538
12449         h1    250    ccc     H7  12449 0.07988000   1.008000   ; qtot 250.144418
12450         h1    250    ccc     H8  12450 0.07988000   1.008000   ; qtot 250.224298
12451         n4    250    ccc     N2  12451 -0.02747900  14.010000   ; qtot 250.196819
12452         c3    250    ccc     C5  12452 -0.05097600  12.010000   ; qtot 250.145843
12453         c3    250    ccc     C6  12453 -0.05097600  12.010000   ; qtot 250.094867
12454         h1    250    ccc     H9  12454 0.11563300   1.008000   ; qtot 250.210500
12455         c3    250    ccc     C7  12455 -0.18457900  12.010000   ; qtot 250.025921
12456         h1    250    ccc    H10  12456 0.11563300   1.008000   ; qtot 250.141554
12457         hc    250    ccc    H11  12457 0.08347900   1.008000   ; qtot 250.225033
12458         hc    250    ccc    H12  12458 0.08347900   1.008000   ; qtot 250.308512
12459          c    250    ccc     C8  12459 0.67254400  12.010000   ; qtot 250.981056
12460          o    250    ccc     O2  12460 -0.52917200  16.000000   ; qtot 250.451884
12461         h1    250    ccc    H13  12461 0.11563300   1.008000   ; qtot 250.567517
12462         h1    250    ccc    H14  12462 0.11563300   1.008000   ; qtot 250.683150
12463         c3    250    ccc     C9  12463 -0.18457900  12.010000   ; qtot 250.498571
12464         hc    250    ccc    H15  12464 0.08347900   1.008000   ; qtot 250.582050
12465         hc    250    ccc    H16  12465 0.08347900   1.008000   ; qtot 250.665529
12466          c    250    ccc    C10  12466 0.67254400  12.010000   ; qtot 251.338073
12467          o    250    ccc     O4  12467 -0.52917200  16.000000   ; qtot 250.808901
12468         c3    250    ccc    C11  12468 0.08518000  12.010000   ; qtot 250.894081
12469         c3    250    ccc    C12  12469 0.07918000  12.010000   ; qtot 250.973261
12470         h1    250    ccc    H17  12470 0.06978000   1.008000   ; qtot 251.043041
12471         c3    250    ccc    C13  12471 0.07918000  12.010000   ; qtot 251.122221
12472         c3    250    ccc    C14  12472 0.03578000  12.010000   ; qtot 251.158001
12473         c3    250    ccc    C15  12473 0.33498000  12.010000   ; qtot 251.492981
12474         h1    250    ccc    H18  12474 0.06178000   1.008000   ; qtot 251.554761
12475         h1    250    ccc    H19  12475 0.11278000   1.008000   ; qtot 251.667541
12476         h2    250    ccc    H20  12476 0.12178000   1.008000   ; qtot 251.789321
12477         oh    250    ccc     O1  12477 -0.56972000  16.000000   ; qtot 251.219601
12478         oh    250    ccc     O6  12478 -0.57772000  16.000000   ; qtot 250.641881
12479         c3    250    ccc    C16  12479 0.14548000  12.010000   ; qtot 250.787361
12480         ho    250    ccc    H21  12480 0.40508000   1.008000   ; qtot 251.192441
12481         hn    250    ccc    H22  12481 0.31758000   1.008000   ; qtot 251.510021
12482         h1    250    ccc    H23  12482 0.06278000   1.008000   ; qtot 251.572801
12483         h1    250    ccc    H24  12483 0.06278000   1.008000   ; qtot 251.635581
12484         oh    250    ccc     O7  12484 -0.59472000  16.000000   ; qtot 251.040861
12485         ho    250    ccc    H25  12485 0.41908000   1.008000   ; qtot 251.459941
12486         os    250    ccc     O8  12486 -0.44552000  16.000000   ; qtot 251.014421
12487         ho    250    ccc    H26  12487 0.41908000   1.008000   ; qtot 251.433501
12488         h1    250    ccc    H27  12488 0.08578000   1.008000   ; qtot 251.519281
12489         oh    250    ccc     O9  12489 -0.58672000  16.000000   ; qtot 250.932561
12490         ho    250    ccc    H28  12490 0.41908000   1.008000   ; qtot 251.351641
12491         n3    250    ccc     N3  12491 -0.54282000  14.010000   ; qtot 250.808821
12492         c3    250    ccc    C17  12492 0.08518000  12.010000   ; qtot 250.894001
12493         c3    250    ccc    C18  12493 0.07918000  12.010000   ; qtot 250.973181
12494         h1    250    ccc    H29  12494 0.06978000   1.008000   ; qtot 251.042961
12495         c3    250    ccc    C19  12495 0.07918000  12.010000   ; qtot 251.122141
12496         c3    250    ccc    C20  12496 0.03578000  12.010000   ; qtot 251.157921
12497         c3    250    ccc    C21  12497 0.33498000  12.010000   ; qtot 251.492901
12498         h1    250    ccc    H30  12498 0.06178000   1.008000   ; qtot 251.554681
12499         h1    250    ccc    H31  12499 0.11278000   1.008000   ; qtot 251.667461
12500         h2    250    ccc    H32  12500 0.12178000   1.008000   ; qtot 251.789241
12501         oh    250    ccc    O10  12501 -0.56972000  16.000000   ; qtot 251.219521
12502         oh    250    ccc    O11  12502 -0.57772000  16.000000   ; qtot 250.641801
12503         c3    250    ccc    C22  12503 0.14548000  12.010000   ; qtot 250.787281
12504         ho    250    ccc    H33  12504 0.40508000   1.008000   ; qtot 251.192361
12505         hn    250    ccc    H34  12505 0.31758000   1.008000   ; qtot 251.509941
12506         h1    250    ccc    H35  12506 0.06278000   1.008000   ; qtot 251.572721
12507         h1    250    ccc    H36  12507 0.06278000   1.008000   ; qtot 251.635501
12508         oh    250    ccc    O12  12508 -0.59472000  16.000000   ; qtot 251.040781
12509         ho    250    ccc    H37  12509 0.41908000   1.008000   ; qtot 251.459861
12510         os    250    ccc    O13  12510 -0.44552000  16.000000   ; qtot 251.014341
12511         ho    250    ccc    H38  12511 0.41908000   1.008000   ; qtot 251.433421
12512         h1    250    ccc    H39  12512 0.08578000   1.008000   ; qtot 251.519201
12513         oh    250    ccc     O5  12513 -0.58672000  16.000000   ; qtot 250.932481
12514         ho    250    ccc    H40  12514 0.41908000   1.008000   ; qtot 251.351561
12515         n3    250    ccc     N4  12515 -0.54282000  14.010000   ; qtot 250.808741
12516         hn    250    ccc    H41  12516 0.17125500   1.008000   ; qtot 250.979996
; residue  251 ccc rtp ccc q 1.0
12517          n    251    ccc     N1  12517 -0.33303000  14.010000   ; qtot 250.646966
12518         hn    251    ccc     H4  12518 0.25916100   1.008000   ; qtot 250.906127
12519         c3    251    ccc     C3  12519 -0.03328100  12.010000   ; qtot 250.872846
12520         h1    251    ccc     H5  12520 0.10618100   1.008000   ; qtot 250.979027
12521         c3    251    ccc     C4  12521 -0.02083000  12.010000   ; qtot 250.958197
12522         h1    251    ccc     H6  12522 0.10618100   1.008000   ; qtot 251.064378
12523         h1    251    ccc     H7  12523 0.07988000   1.008000   ; qtot 251.144258
12524         h1    251    ccc     H8  12524 0.07988000   1.008000   ; qtot 251.224138
12525         n4    251    ccc     N2  12525 -0.02747900  14.010000   ; qtot 251.196659
12526         c3    251    ccc     C5  12526 -0.05097600  12.010000   ; qtot 251.145683
12527         c3    251    ccc     C6  12527 -0.05097600  12.010000   ; qtot 251.094707
12528         h1    251    ccc     H9  12528 0.11563300   1.008000   ; qtot 251.210340
12529         c3    251    ccc     C7  12529 -0.18457900  12.010000   ; qtot 251.025761
12530         h1    251    ccc    H10  12530 0.11563300   1.008000   ; qtot 251.141394
12531         hc    251    ccc    H11  12531 0.08347900   1.008000   ; qtot 251.224873
12532         hc    251    ccc    H12  12532 0.08347900   1.008000   ; qtot 251.308352
12533          c    251    ccc     C8  12533 0.67254400  12.010000   ; qtot 251.980896
12534          o    251    ccc     O2  12534 -0.52917200  16.000000   ; qtot 251.451724
12535         h1    251    ccc    H13  12535 0.11563300   1.008000   ; qtot 251.567357
12536         h1    251    ccc    H14  12536 0.11563300   1.008000   ; qtot 251.682990
12537         c3    251    ccc     C9  12537 -0.18457900  12.010000   ; qtot 251.498411
12538         hc    251    ccc    H15  12538 0.08347900   1.008000   ; qtot 251.581890
12539         hc    251    ccc    H16  12539 0.08347900   1.008000   ; qtot 251.665369
12540          c    251    ccc    C10  12540 0.67254400  12.010000   ; qtot 252.337913
12541          o    251    ccc     O4  12541 -0.52917200  16.000000   ; qtot 251.808741
12542         c3    251    ccc    C11  12542 0.08518000  12.010000   ; qtot 251.893921
12543         c3    251    ccc    C12  12543 0.07918000  12.010000   ; qtot 251.973101
12544         h1    251    ccc    H17  12544 0.06978000   1.008000   ; qtot 252.042881
12545         c3    251    ccc    C13  12545 0.07918000  12.010000   ; qtot 252.122061
12546         c3    251    ccc    C14  12546 0.03578000  12.010000   ; qtot 252.157841
12547         c3    251    ccc    C15  12547 0.33498000  12.010000   ; qtot 252.492821
12548         h1    251    ccc    H18  12548 0.06178000   1.008000   ; qtot 252.554601
12549         h1    251    ccc    H19  12549 0.11278000   1.008000   ; qtot 252.667381
12550         h2    251    ccc    H20  12550 0.12178000   1.008000   ; qtot 252.789161
12551         oh    251    ccc     O1  12551 -0.56972000  16.000000   ; qtot 252.219441
12552         oh    251    ccc     O6  12552 -0.57772000  16.000000   ; qtot 251.641721
12553         c3    251    ccc    C16  12553 0.14548000  12.010000   ; qtot 251.787201
12554         ho    251    ccc    H21  12554 0.40508000   1.008000   ; qtot 252.192281
12555         hn    251    ccc    H22  12555 0.31758000   1.008000   ; qtot 252.509861
12556         h1    251    ccc    H23  12556 0.06278000   1.008000   ; qtot 252.572641
12557         h1    251    ccc    H24  12557 0.06278000   1.008000   ; qtot 252.635421
12558         oh    251    ccc     O7  12558 -0.59472000  16.000000   ; qtot 252.040701
12559         ho    251    ccc    H25  12559 0.41908000   1.008000   ; qtot 252.459781
12560         os    251    ccc     O8  12560 -0.44552000  16.000000   ; qtot 252.014261
12561         ho    251    ccc    H26  12561 0.41908000   1.008000   ; qtot 252.433341
12562         h1    251    ccc    H27  12562 0.08578000   1.008000   ; qtot 252.519121
12563         oh    251    ccc     O9  12563 -0.58672000  16.000000   ; qtot 251.932401
12564         ho    251    ccc    H28  12564 0.41908000   1.008000   ; qtot 252.351481
12565         n3    251    ccc     N3  12565 -0.54282000  14.010000   ; qtot 251.808661
12566         c3    251    ccc    C17  12566 0.08518000  12.010000   ; qtot 251.893841
12567         c3    251    ccc    C18  12567 0.07918000  12.010000   ; qtot 251.973021
12568         h1    251    ccc    H29  12568 0.06978000   1.008000   ; qtot 252.042801
12569         c3    251    ccc    C19  12569 0.07918000  12.010000   ; qtot 252.121981
12570         c3    251    ccc    C20  12570 0.03578000  12.010000   ; qtot 252.157761
12571         c3    251    ccc    C21  12571 0.33498000  12.010000   ; qtot 252.492741
12572         h1    251    ccc    H30  12572 0.06178000   1.008000   ; qtot 252.554521
12573         h1    251    ccc    H31  12573 0.11278000   1.008000   ; qtot 252.667301
12574         h2    251    ccc    H32  12574 0.12178000   1.008000   ; qtot 252.789081
12575         oh    251    ccc    O10  12575 -0.56972000  16.000000   ; qtot 252.219361
12576         oh    251    ccc    O11  12576 -0.57772000  16.000000   ; qtot 251.641641
12577         c3    251    ccc    C22  12577 0.14548000  12.010000   ; qtot 251.787121
12578         ho    251    ccc    H33  12578 0.40508000   1.008000   ; qtot 252.192201
12579         hn    251    ccc    H34  12579 0.31758000   1.008000   ; qtot 252.509781
12580         h1    251    ccc    H35  12580 0.06278000   1.008000   ; qtot 252.572561
12581         h1    251    ccc    H36  12581 0.06278000   1.008000   ; qtot 252.635341
12582         oh    251    ccc    O12  12582 -0.59472000  16.000000   ; qtot 252.040621
12583         ho    251    ccc    H37  12583 0.41908000   1.008000   ; qtot 252.459701
12584         os    251    ccc    O13  12584 -0.44552000  16.000000   ; qtot 252.014181
12585         ho    251    ccc    H38  12585 0.41908000   1.008000   ; qtot 252.433261
12586         h1    251    ccc    H39  12586 0.08578000   1.008000   ; qtot 252.519041
12587         oh    251    ccc     O5  12587 -0.58672000  16.000000   ; qtot 251.932321
12588         ho    251    ccc    H40  12588 0.41908000   1.008000   ; qtot 252.351401
12589         n3    251    ccc     N4  12589 -0.54282000  14.010000   ; qtot 251.808581
12590         hn    251    ccc    H41  12590 0.17125500   1.008000   ; qtot 251.979836
; residue  252 ccc rtp ccc q 1.0
12591          n    252    ccc     N1  12591 -0.33303000  14.010000   ; qtot 251.646806
12592         hn    252    ccc     H4  12592 0.25916100   1.008000   ; qtot 251.905967
12593         c3    252    ccc     C3  12593 -0.03328100  12.010000   ; qtot 251.872686
12594         h1    252    ccc     H5  12594 0.10618100   1.008000   ; qtot 251.978867
12595         c3    252    ccc     C4  12595 -0.02083000  12.010000   ; qtot 251.958037
12596         h1    252    ccc     H6  12596 0.10618100   1.008000   ; qtot 252.064218
12597         h1    252    ccc     H7  12597 0.07988000   1.008000   ; qtot 252.144098
12598         h1    252    ccc     H8  12598 0.07988000   1.008000   ; qtot 252.223978
12599         n4    252    ccc     N2  12599 -0.02747900  14.010000   ; qtot 252.196499
12600         c3    252    ccc     C5  12600 -0.05097600  12.010000   ; qtot 252.145523
12601         c3    252    ccc     C6  12601 -0.05097600  12.010000   ; qtot 252.094547
12602         h1    252    ccc     H9  12602 0.11563300   1.008000   ; qtot 252.210180
12603         c3    252    ccc     C7  12603 -0.18457900  12.010000   ; qtot 252.025601
12604         h1    252    ccc    H10  12604 0.11563300   1.008000   ; qtot 252.141234
12605         hc    252    ccc    H11  12605 0.08347900   1.008000   ; qtot 252.224713
12606         hc    252    ccc    H12  12606 0.08347900   1.008000   ; qtot 252.308192
12607          c    252    ccc     C8  12607 0.67254400  12.010000   ; qtot 252.980736
12608          o    252    ccc     O2  12608 -0.52917200  16.000000   ; qtot 252.451564
12609         h1    252    ccc    H13  12609 0.11563300   1.008000   ; qtot 252.567197
12610         h1    252    ccc    H14  12610 0.11563300   1.008000   ; qtot 252.682830
12611         c3    252    ccc     C9  12611 -0.18457900  12.010000   ; qtot 252.498251
12612         hc    252    ccc    H15  12612 0.08347900   1.008000   ; qtot 252.581730
12613         hc    252    ccc    H16  12613 0.08347900   1.008000   ; qtot 252.665209
12614          c    252    ccc    C10  12614 0.67254400  12.010000   ; qtot 253.337753
12615          o    252    ccc     O4  12615 -0.52917200  16.000000   ; qtot 252.808581
12616         c3    252    ccc    C11  12616 0.08518000  12.010000   ; qtot 252.893761
12617         c3    252    ccc    C12  12617 0.07918000  12.010000   ; qtot 252.972941
12618         h1    252    ccc    H17  12618 0.06978000   1.008000   ; qtot 253.042721
12619         c3    252    ccc    C13  12619 0.07918000  12.010000   ; qtot 253.121901
12620         c3    252    ccc    C14  12620 0.03578000  12.010000   ; qtot 253.157681
12621         c3    252    ccc    C15  12621 0.33498000  12.010000   ; qtot 253.492661
12622         h1    252    ccc    H18  12622 0.06178000   1.008000   ; qtot 253.554441
12623         h1    252    ccc    H19  12623 0.11278000   1.008000   ; qtot 253.667221
12624         h2    252    ccc    H20  12624 0.12178000   1.008000   ; qtot 253.789001
12625         oh    252    ccc     O1  12625 -0.56972000  16.000000   ; qtot 253.219281
12626         oh    252    ccc     O6  12626 -0.57772000  16.000000   ; qtot 252.641561
12627         c3    252    ccc    C16  12627 0.14548000  12.010000   ; qtot 252.787041
12628         ho    252    ccc    H21  12628 0.40508000   1.008000   ; qtot 253.192121
12629         hn    252    ccc    H22  12629 0.31758000   1.008000   ; qtot 253.509701
12630         h1    252    ccc    H23  12630 0.06278000   1.008000   ; qtot 253.572481
12631         h1    252    ccc    H24  12631 0.06278000   1.008000   ; qtot 253.635261
12632         oh    252    ccc     O7  12632 -0.59472000  16.000000   ; qtot 253.040541
12633         ho    252    ccc    H25  12633 0.41908000   1.008000   ; qtot 253.459621
12634         os    252    ccc     O8  12634 -0.44552000  16.000000   ; qtot 253.014101
12635         ho    252    ccc    H26  12635 0.41908000   1.008000   ; qtot 253.433181
12636         h1    252    ccc    H27  12636 0.08578000   1.008000   ; qtot 253.518961
12637         oh    252    ccc     O9  12637 -0.58672000  16.000000   ; qtot 252.932241
12638         ho    252    ccc    H28  12638 0.41908000   1.008000   ; qtot 253.351321
12639         n3    252    ccc     N3  12639 -0.54282000  14.010000   ; qtot 252.808501
12640         c3    252    ccc    C17  12640 0.08518000  12.010000   ; qtot 252.893681
12641         c3    252    ccc    C18  12641 0.07918000  12.010000   ; qtot 252.972861
12642         h1    252    ccc    H29  12642 0.06978000   1.008000   ; qtot 253.042641
12643         c3    252    ccc    C19  12643 0.07918000  12.010000   ; qtot 253.121821
12644         c3    252    ccc    C20  12644 0.03578000  12.010000   ; qtot 253.157601
12645         c3    252    ccc    C21  12645 0.33498000  12.010000   ; qtot 253.492581
12646         h1    252    ccc    H30  12646 0.06178000   1.008000   ; qtot 253.554361
12647         h1    252    ccc    H31  12647 0.11278000   1.008000   ; qtot 253.667141
12648         h2    252    ccc    H32  12648 0.12178000   1.008000   ; qtot 253.788921
12649         oh    252    ccc    O10  12649 -0.56972000  16.000000   ; qtot 253.219201
12650         oh    252    ccc    O11  12650 -0.57772000  16.000000   ; qtot 252.641481
12651         c3    252    ccc    C22  12651 0.14548000  12.010000   ; qtot 252.786961
12652         ho    252    ccc    H33  12652 0.40508000   1.008000   ; qtot 253.192041
12653         hn    252    ccc    H34  12653 0.31758000   1.008000   ; qtot 253.509621
12654         h1    252    ccc    H35  12654 0.06278000   1.008000   ; qtot 253.572401
12655         h1    252    ccc    H36  12655 0.06278000   1.008000   ; qtot 253.635181
12656         oh    252    ccc    O12  12656 -0.59472000  16.000000   ; qtot 253.040461
12657         ho    252    ccc    H37  12657 0.41908000   1.008000   ; qtot 253.459541
12658         os    252    ccc    O13  12658 -0.44552000  16.000000   ; qtot 253.014021
12659         ho    252    ccc    H38  12659 0.41908000   1.008000   ; qtot 253.433101
12660         h1    252    ccc    H39  12660 0.08578000   1.008000   ; qtot 253.518881
12661         oh    252    ccc     O5  12661 -0.58672000  16.000000   ; qtot 252.932161
12662         ho    252    ccc    H40  12662 0.41908000   1.008000   ; qtot 253.351241
12663         n3    252    ccc     N4  12663 -0.54282000  14.010000   ; qtot 252.808421
12664         hn    252    ccc    H41  12664 0.17125500   1.008000   ; qtot 252.979676
; residue  253 ccc rtp ccc q 1.0
12665          n    253    ccc     N1  12665 -0.33303000  14.010000   ; qtot 252.646646
12666         hn    253    ccc     H4  12666 0.25916100   1.008000   ; qtot 252.905807
12667         c3    253    ccc     C3  12667 -0.03328100  12.010000   ; qtot 252.872526
12668         h1    253    ccc     H5  12668 0.10618100   1.008000   ; qtot 252.978707
12669         c3    253    ccc     C4  12669 -0.02083000  12.010000   ; qtot 252.957877
12670         h1    253    ccc     H6  12670 0.10618100   1.008000   ; qtot 253.064058
12671         h1    253    ccc     H7  12671 0.07988000   1.008000   ; qtot 253.143938
12672         h1    253    ccc     H8  12672 0.07988000   1.008000   ; qtot 253.223818
12673         n4    253    ccc     N2  12673 -0.02747900  14.010000   ; qtot 253.196339
12674         c3    253    ccc     C5  12674 -0.05097600  12.010000   ; qtot 253.145363
12675         c3    253    ccc     C6  12675 -0.05097600  12.010000   ; qtot 253.094387
12676         h1    253    ccc     H9  12676 0.11563300   1.008000   ; qtot 253.210020
12677         c3    253    ccc     C7  12677 -0.18457900  12.010000   ; qtot 253.025441
12678         h1    253    ccc    H10  12678 0.11563300   1.008000   ; qtot 253.141074
12679         hc    253    ccc    H11  12679 0.08347900   1.008000   ; qtot 253.224553
12680         hc    253    ccc    H12  12680 0.08347900   1.008000   ; qtot 253.308032
12681          c    253    ccc     C8  12681 0.67254400  12.010000   ; qtot 253.980576
12682          o    253    ccc     O2  12682 -0.52917200  16.000000   ; qtot 253.451404
12683         h1    253    ccc    H13  12683 0.11563300   1.008000   ; qtot 253.567037
12684         h1    253    ccc    H14  12684 0.11563300   1.008000   ; qtot 253.682670
12685         c3    253    ccc     C9  12685 -0.18457900  12.010000   ; qtot 253.498091
12686         hc    253    ccc    H15  12686 0.08347900   1.008000   ; qtot 253.581570
12687         hc    253    ccc    H16  12687 0.08347900   1.008000   ; qtot 253.665049
12688          c    253    ccc    C10  12688 0.67254400  12.010000   ; qtot 254.337593
12689          o    253    ccc     O4  12689 -0.52917200  16.000000   ; qtot 253.808421
12690         c3    253    ccc    C11  12690 0.08518000  12.010000   ; qtot 253.893601
12691         c3    253    ccc    C12  12691 0.07918000  12.010000   ; qtot 253.972781
12692         h1    253    ccc    H17  12692 0.06978000   1.008000   ; qtot 254.042561
12693         c3    253    ccc    C13  12693 0.07918000  12.010000   ; qtot 254.121741
12694         c3    253    ccc    C14  12694 0.03578000  12.010000   ; qtot 254.157521
12695         c3    253    ccc    C15  12695 0.33498000  12.010000   ; qtot 254.492501
12696         h1    253    ccc    H18  12696 0.06178000   1.008000   ; qtot 254.554281
12697         h1    253    ccc    H19  12697 0.11278000   1.008000   ; qtot 254.667061
12698         h2    253    ccc    H20  12698 0.12178000   1.008000   ; qtot 254.788841
12699         oh    253    ccc     O1  12699 -0.56972000  16.000000   ; qtot 254.219121
12700         oh    253    ccc     O6  12700 -0.57772000  16.000000   ; qtot 253.641401
12701         c3    253    ccc    C16  12701 0.14548000  12.010000   ; qtot 253.786881
12702         ho    253    ccc    H21  12702 0.40508000   1.008000   ; qtot 254.191961
12703         hn    253    ccc    H22  12703 0.31758000   1.008000   ; qtot 254.509541
12704         h1    253    ccc    H23  12704 0.06278000   1.008000   ; qtot 254.572321
12705         h1    253    ccc    H24  12705 0.06278000   1.008000   ; qtot 254.635101
12706         oh    253    ccc     O7  12706 -0.59472000  16.000000   ; qtot 254.040381
12707         ho    253    ccc    H25  12707 0.41908000   1.008000   ; qtot 254.459461
12708         os    253    ccc     O8  12708 -0.44552000  16.000000   ; qtot 254.013941
12709         ho    253    ccc    H26  12709 0.41908000   1.008000   ; qtot 254.433021
12710         h1    253    ccc    H27  12710 0.08578000   1.008000   ; qtot 254.518801
12711         oh    253    ccc     O9  12711 -0.58672000  16.000000   ; qtot 253.932081
12712         ho    253    ccc    H28  12712 0.41908000   1.008000   ; qtot 254.351161
12713         n3    253    ccc     N3  12713 -0.54282000  14.010000   ; qtot 253.808341
12714         c3    253    ccc    C17  12714 0.08518000  12.010000   ; qtot 253.893521
12715         c3    253    ccc    C18  12715 0.07918000  12.010000   ; qtot 253.972701
12716         h1    253    ccc    H29  12716 0.06978000   1.008000   ; qtot 254.042481
12717         c3    253    ccc    C19  12717 0.07918000  12.010000   ; qtot 254.121661
12718         c3    253    ccc    C20  12718 0.03578000  12.010000   ; qtot 254.157441
12719         c3    253    ccc    C21  12719 0.33498000  12.010000   ; qtot 254.492421
12720         h1    253    ccc    H30  12720 0.06178000   1.008000   ; qtot 254.554201
12721         h1    253    ccc    H31  12721 0.11278000   1.008000   ; qtot 254.666981
12722         h2    253    ccc    H32  12722 0.12178000   1.008000   ; qtot 254.788761
12723         oh    253    ccc    O10  12723 -0.56972000  16.000000   ; qtot 254.219041
12724         oh    253    ccc    O11  12724 -0.57772000  16.000000   ; qtot 253.641321
12725         c3    253    ccc    C22  12725 0.14548000  12.010000   ; qtot 253.786801
12726         ho    253    ccc    H33  12726 0.40508000   1.008000   ; qtot 254.191881
12727         hn    253    ccc    H34  12727 0.31758000   1.008000   ; qtot 254.509461
12728         h1    253    ccc    H35  12728 0.06278000   1.008000   ; qtot 254.572241
12729         h1    253    ccc    H36  12729 0.06278000   1.008000   ; qtot 254.635021
12730         oh    253    ccc    O12  12730 -0.59472000  16.000000   ; qtot 254.040301
12731         ho    253    ccc    H37  12731 0.41908000   1.008000   ; qtot 254.459381
12732         os    253    ccc    O13  12732 -0.44552000  16.000000   ; qtot 254.013861
12733         ho    253    ccc    H38  12733 0.41908000   1.008000   ; qtot 254.432941
12734         h1    253    ccc    H39  12734 0.08578000   1.008000   ; qtot 254.518721
12735         oh    253    ccc     O5  12735 -0.58672000  16.000000   ; qtot 253.932001
12736         ho    253    ccc    H40  12736 0.41908000   1.008000   ; qtot 254.351081
12737         n3    253    ccc     N4  12737 -0.54282000  14.010000   ; qtot 253.808261
12738         hn    253    ccc    H41  12738 0.17125500   1.008000   ; qtot 253.979516

[ bonds ]
;    ai     aj funct         c0         c1         c2         c3
      1      2     1   0.15110 237065.440000
      1      7     1   0.15110 237065.440000
      1      8     1   0.15110 237065.440000
      2      3     1   0.15375 251793.120000
      3      4     1   0.15110 237065.440000
      4      5     1   0.15110 237065.440000
      4      6     1   0.15110 237065.440000
      5     11     1   0.15375 251793.120000
      6      9     1   0.15375 251793.120000
      7     13     1   0.15375 251793.120000
      8     15     1   0.15375 251793.120000
      9     10     1   0.15241 261918.400000
     10     18     1   0.12183 533627.360000
     10     52     1   0.13789 357815.680000
     11     12     1   0.15241 261918.400000
     12     17     1   0.12183 533627.360000
     12     78     1   0.13789 357815.680000
     13     14     1   0.15241 261918.400000
     14     20     1   0.12183 533627.360000
     14    104     1   0.13789 357815.680000
     15     16     1   0.15241 261918.400000
     16     19     1   0.12183 533627.360000
     16    130     1   0.13789 357815.680000
     43     44     1   0.15110 237065.440000
     43     45     1   0.15110 237065.440000
     43     50     1   0.15110 237065.440000
     44     46     1   0.15375 251793.120000
     45     48     1   0.15375 251793.120000
     46     47     1   0.15241 261918.400000
     47     53     1   0.12183 533627.360000
     47    156     1   0.13789 357815.680000
     48     49     1   0.15241 261918.400000
     49     54     1   0.12183 533627.360000
     49    182     1   0.13789 357815.680000
     50     51     1   0.15375 251793.120000
     51     52     1   0.14619 275056.160000
     69     70     1   0.15110 237065.440000
     69     71     1   0.15110 237065.440000
     69     76     1   0.15110 237065.440000
     70     72     1   0.15375 251793.120000
     71     74     1   0.15375 251793.120000
     72     73     1   0.15241 261918.400000
     73     79     1   0.12183 533627.360000
     73    208     1   0.13789 357815.680000
     74     75     1   0.15241 261918.400000
     75     80     1   0.12183 533627.360000
     75    234     1   0.13789 357815.680000
     76     77     1   0.15375 251793.120000
     77     78     1   0.14619 275056.160000
     95     96     1   0.15110 237065.440000
     95     97     1   0.15110 237065.440000
     95    102     1   0.15110 237065.440000
     96     98     1   0.15375 251793.120000
     97    100     1   0.15375 251793.120000
     98     99     1   0.15241 261918.400000
     99    105     1   0.12183 533627.360000
     99    260     1   0.13789 357815.680000
    100    101     1   0.15241 261918.400000
    101    106     1   0.12183 533627.360000
    101    286     1   0.13789 357815.680000
    102    103     1   0.15375 251793.120000
    103    104     1   0.14619 275056.160000
    121    122     1   0.15110 237065.440000
    121    123     1   0.15110 237065.440000
    121    128     1   0.15110 237065.440000
    122    124     1   0.15375 251793.120000
    123    126     1   0.15375 251793.120000
    124    125     1   0.15241 261918.400000
    125    131     1   0.12183 533627.360000
    125    312     1   0.13789 357815.680000
    126    127     1   0.15241 261918.400000
    127    132     1   0.12183 533627.360000
    127    338     1   0.13789 357815.680000
    128    129     1   0.15375 251793.120000
    129    130     1   0.14619 275056.160000
    147    148     1   0.15110 237065.440000
    147    149     1   0.15110 237065.440000
    147    154     1   0.15110 237065.440000
    148    150     1   0.15375 251793.120000
    149    152     1   0.15375 251793.120000
    150    151     1   0.15241 261918.400000
    151    157     1   0.12183 533627.360000
    151    364     1   0.13789 357815.680000
    152    153     1   0.15241 261918.400000
    153    158     1   0.12183 533627.360000
    153    390     1   0.13789 357815.680000
    154    155     1   0.15375 251793.120000
    155    156     1   0.14619 275056.160000
    173    174     1   0.15110 237065.440000
    173    175     1   0.15110 237065.440000
    173    180     1   0.15110 237065.440000
    174    176     1   0.15375 251793.120000
    175    178     1   0.15375 251793.120000
    176    177     1   0.15241 261918.400000
    177    183     1   0.12183 533627.360000
    177    416     1   0.13789 357815.680000
    178    179     1   0.15241 261918.400000
    179    184     1   0.12183 533627.360000
    179    442     1   0.13789 357815.680000
    180    181     1   0.15375 251793.120000
    181    182     1   0.14619 275056.160000
    199    200     1   0.15110 237065.440000
    199    201     1   0.15110 237065.440000
    199    206     1   0.15110 237065.440000
    200    202     1   0.15375 251793.120000
    201    204     1   0.15375 251793.120000
    202    203     1   0.15241 261918.400000
    203    209     1   0.12183 533627.360000
    203    468     1   0.13789 357815.680000
    204    205     1   0.15241 261918.400000
    205    210     1   0.12183 533627.360000
    205    494     1   0.13789 357815.680000
    206    207     1   0.15375 251793.120000
    207    208     1   0.14619 275056.160000
    225    226     1   0.15110 237065.440000
    225    227     1   0.15110 237065.440000
    225    232     1   0.15110 237065.440000
    226    228     1   0.15375 251793.120000
    227    230     1   0.15375 251793.120000
    228    229     1   0.15241 261918.400000
    229    235     1   0.12183 533627.360000
    229    520     1   0.13789 357815.680000
    230    231     1   0.15241 261918.400000
    231    236     1   0.12183 533627.360000
    231    546     1   0.13789 357815.680000
    232    233     1   0.15375 251793.120000
    233    234     1   0.14619 275056.160000
    251    252     1   0.15110 237065.440000
    251    253     1   0.15110 237065.440000
    251    258     1   0.15110 237065.440000
    252    254     1   0.15375 251793.120000
    253    256     1   0.15375 251793.120000
    254    255     1   0.15241 261918.400000
    255    261     1   0.12183 533627.360000
    255    572     1   0.13789 357815.680000
    256    257     1   0.15241 261918.400000
    257    262     1   0.12183 533627.360000
    257    598     1   0.13789 357815.680000
    258    259     1   0.15375 251793.120000
    259    260     1   0.14619 275056.160000
    277    278     1   0.15110 237065.440000
    277    279     1   0.15110 237065.440000
    277    284     1   0.15110 237065.440000
    278    280     1   0.15375 251793.120000
    279    282     1   0.15375 251793.120000
    280    281     1   0.15241 261918.400000
    281    287     1   0.12183 533627.360000
    281    624     1   0.13789 357815.680000
    282    283     1   0.15241 261918.400000
    283    288     1   0.12183 533627.360000
    283    650     1   0.13789 357815.680000
    284    285     1   0.15375 251793.120000
    285    286     1   0.14619 275056.160000
    303    304     1   0.15110 237065.440000
    303    305     1   0.15110 237065.440000
    303    310     1   0.15110 237065.440000
    304    306     1   0.15375 251793.120000
    305    308     1   0.15375 251793.120000
    306    307     1   0.15241 261918.400000
    307    313     1   0.12183 533627.360000
    307    676     1   0.13789 357815.680000
    308    309     1   0.15241 261918.400000
    309    314     1   0.12183 533627.360000
    309    702     1   0.13789 357815.680000
    310    311     1   0.15375 251793.120000
    311    312     1   0.14619 275056.160000
    329    330     1   0.15110 237065.440000
    329    331     1   0.15110 237065.440000
    329    336     1   0.15110 237065.440000
    330    332     1   0.15375 251793.120000
    331    334     1   0.15375 251793.120000
    332    333     1   0.15241 261918.400000
    333    339     1   0.12183 533627.360000
    333    728     1   0.13789 357815.680000
    334    335     1   0.15241 261918.400000
    335    340     1   0.12183 533627.360000
    335    754     1   0.13789 357815.680000
    336    337     1   0.15375 251793.120000
    337    338     1   0.14619 275056.160000
    355    356     1   0.15110 237065.440000
    355    357     1   0.15110 237065.440000
    355    362     1   0.15110 237065.440000
    356    358     1   0.15375 251793.120000
    357    360     1   0.15375 251793.120000
    358    359     1   0.15241 261918.400000
    359    365     1   0.12183 533627.360000
    359    780     1   0.13789 357815.680000
    360    361     1   0.15241 261918.400000
    361    366     1   0.12183 533627.360000
    361    806     1   0.13789 357815.680000
    362    363     1   0.15375 251793.120000
    363    364     1   0.14619 275056.160000
    381    382     1   0.15110 237065.440000
    381    383     1   0.15110 237065.440000
    381    388     1   0.15110 237065.440000
    382    384     1   0.15375 251793.120000
    383    386     1   0.15375 251793.120000
    384    385     1   0.15241 261918.400000
    385    391     1   0.12183 533627.360000
    385    832     1   0.13789 357815.680000
    386    387     1   0.15241 261918.400000
    387    392     1   0.12183 533627.360000
    387    858     1   0.13789 357815.680000
    388    389     1   0.15375 251793.120000
    389    390     1   0.14619 275056.160000
    407    408     1   0.15110 237065.440000
    407    409     1   0.15110 237065.440000
    407    414     1   0.15110 237065.440000
    408    410     1   0.15375 251793.120000
    409    412     1   0.15375 251793.120000
    410    411     1   0.15241 261918.400000
    411    417     1   0.12183 533627.360000
    411    884     1   0.13789 357815.680000
    412    413     1   0.15241 261918.400000
    413    418     1   0.12183 533627.360000
    413    910     1   0.13789 357815.680000
    414    415     1   0.15375 251793.120000
    415    416     1   0.14619 275056.160000
    433    434     1   0.15110 237065.440000
    433    435     1   0.15110 237065.440000
    433    440     1   0.15110 237065.440000
    434    436     1   0.15375 251793.120000
    435    438     1   0.15375 251793.120000
    436    437     1   0.15241 261918.400000
    437    443     1   0.12183 533627.360000
    437    936     1   0.13789 357815.680000
    438    439     1   0.15241 261918.400000
    439    444     1   0.12183 533627.360000
    439    962     1   0.13789 357815.680000
    440    441     1   0.15375 251793.120000
    441    442     1   0.14619 275056.160000
    459    460     1   0.15110 237065.440000
    459    461     1   0.15110 237065.440000
    459    466     1   0.15110 237065.440000
    460    462     1   0.15375 251793.120000
    461    464     1   0.15375 251793.120000
    462    463     1   0.15241 261918.400000
    463    469     1   0.12183 533627.360000
    463    988     1   0.13789 357815.680000
    464    465     1   0.15241 261918.400000
    465    470     1   0.12183 533627.360000
    465   1014     1   0.13789 357815.680000
    466    467     1   0.15375 251793.120000
    467    468     1   0.14619 275056.160000
    485    486     1   0.15110 237065.440000
    485    487     1   0.15110 237065.440000
    485    492     1   0.15110 237065.440000
    486    488     1   0.15375 251793.120000
    487    490     1   0.15375 251793.120000
    488    489     1   0.15241 261918.400000
    489    495     1   0.12183 533627.360000
    489   1040     1   0.13789 357815.680000
    490    491     1   0.15241 261918.400000
    491    496     1   0.12183 533627.360000
    491   1066     1   0.13789 357815.680000
    492    493     1   0.15375 251793.120000
    493    494     1   0.14619 275056.160000
    511    512     1   0.15110 237065.440000
    511    513     1   0.15110 237065.440000
    511    518     1   0.15110 237065.440000
    512    514     1   0.15375 251793.120000
    513    516     1   0.15375 251793.120000
    514    515     1   0.15241 261918.400000
    515    521     1   0.12183 533627.360000
    515   1092     1   0.13789 357815.680000
    516    517     1   0.15241 261918.400000
    517    522     1   0.12183 533627.360000
    517   1118     1   0.13789 357815.680000
    518    519     1   0.15375 251793.120000
    519    520     1   0.14619 275056.160000
    537    538     1   0.15110 237065.440000
    537    539     1   0.15110 237065.440000
    537    544     1   0.15110 237065.440000
    538    540     1   0.15375 251793.120000
    539    542     1   0.15375 251793.120000
    540    541     1   0.15241 261918.400000
    541    547     1   0.12183 533627.360000
    541   1144     1   0.13789 357815.680000
    542    543     1   0.15241 261918.400000
    543    548     1   0.12183 533627.360000
    543   1170     1   0.13789 357815.680000
    544    545     1   0.15375 251793.120000
    545    546     1   0.14619 275056.160000
    563    564     1   0.15110 237065.440000
    563    565     1   0.15110 237065.440000
    563    570     1   0.15110 237065.440000
    564    566     1   0.15375 251793.120000
    565    568     1   0.15375 251793.120000
    566    567     1   0.15241 261918.400000
    567    573     1   0.12183 533627.360000
    567   1196     1   0.13789 357815.680000
    568    569     1   0.15241 261918.400000
    569    574     1   0.12183 533627.360000
    569   1222     1   0.13789 357815.680000
    570    571     1   0.15375 251793.120000
    571    572     1   0.14619 275056.160000
    589    590     1   0.15110 237065.440000
    589    591     1   0.15110 237065.440000
    589    596     1   0.15110 237065.440000
    590    592     1   0.15375 251793.120000
    591    594     1   0.15375 251793.120000
    592    593     1   0.15241 261918.400000
    593    599     1   0.12183 533627.360000
    593   1248     1   0.13789 357815.680000
    594    595     1   0.15241 261918.400000
    595    600     1   0.12183 533627.360000
    595   1274     1   0.13789 357815.680000
    596    597     1   0.15375 251793.120000
    597    598     1   0.14619 275056.160000
    615    616     1   0.15110 237065.440000
    615    617     1   0.15110 237065.440000
    615    622     1   0.15110 237065.440000
    616    618     1   0.15375 251793.120000
    617    620     1   0.15375 251793.120000
    618    619     1   0.15241 261918.400000
    619    625     1   0.12183 533627.360000
    619   1300     1   0.13789 357815.680000
    620    621     1   0.15241 261918.400000
    621    626     1   0.12183 533627.360000
    621   1326     1   0.13789 357815.680000
    622    623     1   0.15375 251793.120000
    623    624     1   0.14619 275056.160000
    641    642     1   0.15110 237065.440000
    641    643     1   0.15110 237065.440000
    641    648     1   0.15110 237065.440000
    642    644     1   0.15375 251793.120000
    643    646     1   0.15375 251793.120000
    644    645     1   0.15241 261918.400000
    645    651     1   0.12183 533627.360000
    645   1352     1   0.13789 357815.680000
    646    647     1   0.15241 261918.400000
    647    652     1   0.12183 533627.360000
    647   1378     1   0.13789 357815.680000
    648    649     1   0.15375 251793.120000
    649    650     1   0.14619 275056.160000
    667    668     1   0.15110 237065.440000
    667    669     1   0.15110 237065.440000
    667    674     1   0.15110 237065.440000
    668    670     1   0.15375 251793.120000
    669    672     1   0.15375 251793.120000
    670    671     1   0.15241 261918.400000
    671    677     1   0.12183 533627.360000
    671   1404     1   0.13789 357815.680000
    672    673     1   0.15241 261918.400000
    673    678     1   0.12183 533627.360000
    673   1430     1   0.13789 357815.680000
    674    675     1   0.15375 251793.120000
    675    676     1   0.14619 275056.160000
    693    694     1   0.15110 237065.440000
    693    695     1   0.15110 237065.440000
    693    700     1   0.15110 237065.440000
    694    696     1   0.15375 251793.120000
    695    698     1   0.15375 251793.120000
    696    697     1   0.15241 261918.400000
    697    703     1   0.12183 533627.360000
    697   1456     1   0.13789 357815.680000
    698    699     1   0.15241 261918.400000
    699    704     1   0.12183 533627.360000
    699   1482     1   0.13789 357815.680000
    700    701     1   0.15375 251793.120000
    701    702     1   0.14619 275056.160000
    719    720     1   0.15110 237065.440000
    719    721     1   0.15110 237065.440000
    719    726     1   0.15110 237065.440000
    720    722     1   0.15375 251793.120000
    721    724     1   0.15375 251793.120000
    722    723     1   0.15241 261918.400000
    723    729     1   0.12183 533627.360000
    723   1508     1   0.13789 357815.680000
    724    725     1   0.15241 261918.400000
    725    730     1   0.12183 533627.360000
    725   1534     1   0.13789 357815.680000
    726    727     1   0.15375 251793.120000
    727    728     1   0.14619 275056.160000
    745    746     1   0.15110 237065.440000
    745    747     1   0.15110 237065.440000
    745    752     1   0.15110 237065.440000
    746    748     1   0.15375 251793.120000
    747    750     1   0.15375 251793.120000
    748    749     1   0.15241 261918.400000
    749    755     1   0.12183 533627.360000
    749   1560     1   0.13789 357815.680000
    750    751     1   0.15241 261918.400000
    751    756     1   0.12183 533627.360000
    751   1586     1   0.13789 357815.680000
    752    753     1   0.15375 251793.120000
    753    754     1   0.14619 275056.160000
    771    772     1   0.15110 237065.440000
    771    773     1   0.15110 237065.440000
    771    778     1   0.15110 237065.440000
    772    774     1   0.15375 251793.120000
    773    776     1   0.15375 251793.120000
    774    775     1   0.15241 261918.400000
    775    781     1   0.12183 533627.360000
    775   1612     1   0.13789 357815.680000
    776    777     1   0.15241 261918.400000
    777    782     1   0.12183 533627.360000
    777   1638     1   0.13789 357815.680000
    778    779     1   0.15375 251793.120000
    779    780     1   0.14619 275056.160000
    797    798     1   0.15110 237065.440000
    797    799     1   0.15110 237065.440000
    797    804     1   0.15110 237065.440000
    798    800     1   0.15375 251793.120000
    799    802     1   0.15375 251793.120000
    800    801     1   0.15241 261918.400000
    801    807     1   0.12183 533627.360000
    801   1664     1   0.13789 357815.680000
    802    803     1   0.15241 261918.400000
    803    808     1   0.12183 533627.360000
    803   1690     1   0.13789 357815.680000
    804    805     1   0.15375 251793.120000
    805    806     1   0.14619 275056.160000
    823    824     1   0.15110 237065.440000
    823    825     1   0.15110 237065.440000
    823    830     1   0.15110 237065.440000
    824    826     1   0.15375 251793.120000
    825    828     1   0.15375 251793.120000
    826    827     1   0.15241 261918.400000
    827    833     1   0.12183 533627.360000
    827   1716     1   0.13789 357815.680000
    828    829     1   0.15241 261918.400000
    829    834     1   0.12183 533627.360000
    829   1742     1   0.13789 357815.680000
    830    831     1   0.15375 251793.120000
    831    832     1   0.14619 275056.160000
    849    850     1   0.15110 237065.440000
    849    851     1   0.15110 237065.440000
    849    856     1   0.15110 237065.440000
    850    852     1   0.15375 251793.120000
    851    854     1   0.15375 251793.120000
    852    853     1   0.15241 261918.400000
    853    859     1   0.12183 533627.360000
    853   1768     1   0.13789 357815.680000
    854    855     1   0.15241 261918.400000
    855    860     1   0.12183 533627.360000
    855   1794     1   0.13789 357815.680000
    856    857     1   0.15375 251793.120000
    857    858     1   0.14619 275056.160000
    875    876     1   0.15110 237065.440000
    875    877     1   0.15110 237065.440000
    875    882     1   0.15110 237065.440000
    876    878     1   0.15375 251793.120000
    877    880     1   0.15375 251793.120000
    878    879     1   0.15241 261918.400000
    879    885     1   0.12183 533627.360000
    879   1820     1   0.13789 357815.680000
    880    881     1   0.15241 261918.400000
    881    886     1   0.12183 533627.360000
    881   1846     1   0.13789 357815.680000
    882    883     1   0.15375 251793.120000
    883    884     1   0.14619 275056.160000
    901    902     1   0.15110 237065.440000
    901    903     1   0.15110 237065.440000
    901    908     1   0.15110 237065.440000
    902    904     1   0.15375 251793.120000
    903    906     1   0.15375 251793.120000
    904    905     1   0.15241 261918.400000
    905    911     1   0.12183 533627.360000
    905   1872     1   0.13789 357815.680000
    906    907     1   0.15241 261918.400000
    907    912     1   0.12183 533627.360000
    907   1898     1   0.13789 357815.680000
    908    909     1   0.15375 251793.120000
    909    910     1   0.14619 275056.160000
    927    928     1   0.15110 237065.440000
    927    929     1   0.15110 237065.440000
    927    934     1   0.15110 237065.440000
    928    930     1   0.15375 251793.120000
    929    932     1   0.15375 251793.120000
    930    931     1   0.15241 261918.400000
    931    937     1   0.12183 533627.360000
    931   1924     1   0.13789 357815.680000
    932    933     1   0.15241 261918.400000
    933    938     1   0.12183 533627.360000
    933   1950     1   0.13789 357815.680000
    934    935     1   0.15375 251793.120000
    935    936     1   0.14619 275056.160000
    953    954     1   0.15110 237065.440000
    953    955     1   0.15110 237065.440000
    953    960     1   0.15110 237065.440000
    954    956     1   0.15375 251793.120000
    955    958     1   0.15375 251793.120000
    956    957     1   0.15241 261918.400000
    957    963     1   0.12183 533627.360000
    957   1976     1   0.13789 357815.680000
    958    959     1   0.15241 261918.400000
    959    964     1   0.12183 533627.360000
    959   2002     1   0.13789 357815.680000
    960    961     1   0.15375 251793.120000
    961    962     1   0.14619 275056.160000
    979    980     1   0.15110 237065.440000
    979    981     1   0.15110 237065.440000
    979    986     1   0.15110 237065.440000
    980    982     1   0.15375 251793.120000
    981    984     1   0.15375 251793.120000
    982    983     1   0.15241 261918.400000
    983    989     1   0.12183 533627.360000
    983   2028     1   0.13789 357815.680000
    984    985     1   0.15241 261918.400000
    985    990     1   0.12183 533627.360000
    985   2054     1   0.13789 357815.680000
    986    987     1   0.15375 251793.120000
    987    988     1   0.14619 275056.160000
   1005   1006     1   0.15110 237065.440000
   1005   1007     1   0.15110 237065.440000
   1005   1012     1   0.15110 237065.440000
   1006   1008     1   0.15375 251793.120000
   1007   1010     1   0.15375 251793.120000
   1008   1009     1   0.15241 261918.400000
   1009   1015     1   0.12183 533627.360000
   1009   2080     1   0.13789 357815.680000
   1010   1011     1   0.15241 261918.400000
   1011   1016     1   0.12183 533627.360000
   1011   2106     1   0.13789 357815.680000
   1012   1013     1   0.15375 251793.120000
   1013   1014     1   0.14619 275056.160000
   1031   1032     1   0.15110 237065.440000
   1031   1033     1   0.15110 237065.440000
   1031   1038     1   0.15110 237065.440000
   1032   1034     1   0.15375 251793.120000
   1033   1036     1   0.15375 251793.120000
   1034   1035     1   0.15241 261918.400000
   1035   1041     1   0.12183 533627.360000
   1035   2132     1   0.13789 357815.680000
   1036   1037     1   0.15241 261918.400000
   1037   1042     1   0.12183 533627.360000
   1037   2158     1   0.13789 357815.680000
   1038   1039     1   0.15375 251793.120000
   1039   1040     1   0.14619 275056.160000
   1057   1058     1   0.15110 237065.440000
   1057   1059     1   0.15110 237065.440000
   1057   1064     1   0.15110 237065.440000
   1058   1060     1   0.15375 251793.120000
   1059   1062     1   0.15375 251793.120000
   1060   1061     1   0.15241 261918.400000
   1061   1067     1   0.12183 533627.360000
   1061   2184     1   0.13789 357815.680000
   1062   1063     1   0.15241 261918.400000
   1063   1068     1   0.12183 533627.360000
   1063   2210     1   0.13789 357815.680000
   1064   1065     1   0.15375 251793.120000
   1065   1066     1   0.14619 275056.160000
   1083   1084     1   0.15110 237065.440000
   1083   1085     1   0.15110 237065.440000
   1083   1090     1   0.15110 237065.440000
   1084   1086     1   0.15375 251793.120000
   1085   1088     1   0.15375 251793.120000
   1086   1087     1   0.15241 261918.400000
   1087   1093     1   0.12183 533627.360000
   1087   2236     1   0.13789 357815.680000
   1088   1089     1   0.15241 261918.400000
   1089   1094     1   0.12183 533627.360000
   1089   2262     1   0.13789 357815.680000
   1090   1091     1   0.15375 251793.120000
   1091   1092     1   0.14619 275056.160000
   1109   1110     1   0.15110 237065.440000
   1109   1111     1   0.15110 237065.440000
   1109   1116     1   0.15110 237065.440000
   1110   1112     1   0.15375 251793.120000
   1111   1114     1   0.15375 251793.120000
   1112   1113     1   0.15241 261918.400000
   1113   1119     1   0.12183 533627.360000
   1113   2288     1   0.13789 357815.680000
   1114   1115     1   0.15241 261918.400000
   1115   1120     1   0.12183 533627.360000
   1115   2314     1   0.13789 357815.680000
   1116   1117     1   0.15375 251793.120000
   1117   1118     1   0.14619 275056.160000
   1135   1136     1   0.15110 237065.440000
   1135   1137     1   0.15110 237065.440000
   1135   1142     1   0.15110 237065.440000
   1136   1138     1   0.15375 251793.120000
   1137   1140     1   0.15375 251793.120000
   1138   1139     1   0.15241 261918.400000
   1139   1145     1   0.12183 533627.360000
   1139   2340     1   0.13789 357815.680000
   1140   1141     1   0.15241 261918.400000
   1141   1146     1   0.12183 533627.360000
   1141   2366     1   0.13789 357815.680000
   1142   1143     1   0.15375 251793.120000
   1143   1144     1   0.14619 275056.160000
   1161   1162     1   0.15110 237065.440000
   1161   1163     1   0.15110 237065.440000
   1161   1168     1   0.15110 237065.440000
   1162   1164     1   0.15375 251793.120000
   1163   1166     1   0.15375 251793.120000
   1164   1165     1   0.15241 261918.400000
   1165   1171     1   0.12183 533627.360000
   1165   2392     1   0.13789 357815.680000
   1166   1167     1   0.15241 261918.400000
   1167   1172     1   0.12183 533627.360000
   1167   2418     1   0.13789 357815.680000
   1168   1169     1   0.15375 251793.120000
   1169   1170     1   0.14619 275056.160000
   1187   1188     1   0.15110 237065.440000
   1187   1189     1   0.15110 237065.440000
   1187   1194     1   0.15110 237065.440000
   1188   1190     1   0.15375 251793.120000
   1189   1192     1   0.15375 251793.120000
   1190   1191     1   0.15241 261918.400000
   1191   1197     1   0.12183 533627.360000
   1191   2444     1   0.13789 357815.680000
   1192   1193     1   0.15241 261918.400000
   1193   1198     1   0.12183 533627.360000
   1193   2470     1   0.13789 357815.680000
   1194   1195     1   0.15375 251793.120000
   1195   1196     1   0.14619 275056.160000
   1213   1214     1   0.15110 237065.440000
   1213   1215     1   0.15110 237065.440000
   1213   1220     1   0.15110 237065.440000
   1214   1216     1   0.15375 251793.120000
   1215   1218     1   0.15375 251793.120000
   1216   1217     1   0.15241 261918.400000
   1217   1223     1   0.12183 533627.360000
   1217   2496     1   0.13789 357815.680000
   1218   1219     1   0.15241 261918.400000
   1219   1224     1   0.12183 533627.360000
   1219   2522     1   0.13789 357815.680000
   1220   1221     1   0.15375 251793.120000
   1221   1222     1   0.14619 275056.160000
   1239   1240     1   0.15110 237065.440000
   1239   1241     1   0.15110 237065.440000
   1239   1246     1   0.15110 237065.440000
   1240   1242     1   0.15375 251793.120000
   1241   1244     1   0.15375 251793.120000
   1242   1243     1   0.15241 261918.400000
   1243   1249     1   0.12183 533627.360000
   1243   2548     1   0.13789 357815.680000
   1244   1245     1   0.15241 261918.400000
   1245   1250     1   0.12183 533627.360000
   1245   2574     1   0.13789 357815.680000
   1246   1247     1   0.15375 251793.120000
   1247   1248     1   0.14619 275056.160000
   1265   1266     1   0.15110 237065.440000
   1265   1267     1   0.15110 237065.440000
   1265   1272     1   0.15110 237065.440000
   1266   1268     1   0.15375 251793.120000
   1267   1270     1   0.15375 251793.120000
   1268   1269     1   0.15241 261918.400000
   1269   1275     1   0.12183 533627.360000
   1269   2600     1   0.13789 357815.680000
   1270   1271     1   0.15241 261918.400000
   1271   1276     1   0.12183 533627.360000
   1271   2626     1   0.13789 357815.680000
   1272   1273     1   0.15375 251793.120000
   1273   1274     1   0.14619 275056.160000
   1291   1292     1   0.15110 237065.440000
   1291   1293     1   0.15110 237065.440000
   1291   1298     1   0.15110 237065.440000
   1292   1294     1   0.15375 251793.120000
   1293   1296     1   0.15375 251793.120000
   1294   1295     1   0.15241 261918.400000
   1295   1301     1   0.12183 533627.360000
   1295   2652     1   0.13789 357815.680000
   1296   1297     1   0.15241 261918.400000
   1297   1302     1   0.12183 533627.360000
   1297   2678     1   0.13789 357815.680000
   1298   1299     1   0.15375 251793.120000
   1299   1300     1   0.14619 275056.160000
   1317   1318     1   0.15110 237065.440000
   1317   1319     1   0.15110 237065.440000
   1317   1324     1   0.15110 237065.440000
   1318   1320     1   0.15375 251793.120000
   1319   1322     1   0.15375 251793.120000
   1320   1321     1   0.15241 261918.400000
   1321   1327     1   0.12183 533627.360000
   1321   2704     1   0.13789 357815.680000
   1322   1323     1   0.15241 261918.400000
   1323   1328     1   0.12183 533627.360000
   1323   2730     1   0.13789 357815.680000
   1324   1325     1   0.15375 251793.120000
   1325   1326     1   0.14619 275056.160000
   1343   1344     1   0.15110 237065.440000
   1343   1345     1   0.15110 237065.440000
   1343   1350     1   0.15110 237065.440000
   1344   1346     1   0.15375 251793.120000
   1345   1348     1   0.15375 251793.120000
   1346   1347     1   0.15241 261918.400000
   1347   1353     1   0.12183 533627.360000
   1347   2756     1   0.13789 357815.680000
   1348   1349     1   0.15241 261918.400000
   1349   1354     1   0.12183 533627.360000
   1349   2782     1   0.13789 357815.680000
   1350   1351     1   0.15375 251793.120000
   1351   1352     1   0.14619 275056.160000
   1369   1370     1   0.15110 237065.440000
   1369   1371     1   0.15110 237065.440000
   1369   1376     1   0.15110 237065.440000
   1370   1372     1   0.15375 251793.120000
   1371   1374     1   0.15375 251793.120000
   1372   1373     1   0.15241 261918.400000
   1373   1379     1   0.12183 533627.360000
   1373   2808     1   0.13789 357815.680000
   1374   1375     1   0.15241 261918.400000
   1375   1380     1   0.12183 533627.360000
   1375   2834     1   0.13789 357815.680000
   1376   1377     1   0.15375 251793.120000
   1377   1378     1   0.14619 275056.160000
   1395   1396     1   0.15110 237065.440000
   1395   1397     1   0.15110 237065.440000
   1395   1402     1   0.15110 237065.440000
   1396   1398     1   0.15375 251793.120000
   1397   1400     1   0.15375 251793.120000
   1398   1399     1   0.15241 261918.400000
   1399   1405     1   0.12183 533627.360000
   1399   2860     1   0.13789 357815.680000
   1400   1401     1   0.15241 261918.400000
   1401   1406     1   0.12183 533627.360000
   1401   2886     1   0.13789 357815.680000
   1402   1403     1   0.15375 251793.120000
   1403   1404     1   0.14619 275056.160000
   1421   1422     1   0.15110 237065.440000
   1421   1423     1   0.15110 237065.440000
   1421   1428     1   0.15110 237065.440000
   1422   1424     1   0.15375 251793.120000
   1423   1426     1   0.15375 251793.120000
   1424   1425     1   0.15241 261918.400000
   1425   1431     1   0.12183 533627.360000
   1425   2912     1   0.13789 357815.680000
   1426   1427     1   0.15241 261918.400000
   1427   1432     1   0.12183 533627.360000
   1427   2938     1   0.13789 357815.680000
   1428   1429     1   0.15375 251793.120000
   1429   1430     1   0.14619 275056.160000
   1447   1448     1   0.15110 237065.440000
   1447   1449     1   0.15110 237065.440000
   1447   1454     1   0.15110 237065.440000
   1448   1450     1   0.15375 251793.120000
   1449   1452     1   0.15375 251793.120000
   1450   1451     1   0.15241 261918.400000
   1451   1457     1   0.12183 533627.360000
   1451   2964     1   0.13789 357815.680000
   1452   1453     1   0.15241 261918.400000
   1453   1458     1   0.12183 533627.360000
   1453   2990     1   0.13789 357815.680000
   1454   1455     1   0.15375 251793.120000
   1455   1456     1   0.14619 275056.160000
   1473   1474     1   0.15110 237065.440000
   1473   1475     1   0.15110 237065.440000
   1473   1480     1   0.15110 237065.440000
   1474   1476     1   0.15375 251793.120000
   1475   1478     1   0.15375 251793.120000
   1476   1477     1   0.15241 261918.400000
   1477   1483     1   0.12183 533627.360000
   1477   3016     1   0.13789 357815.680000
   1478   1479     1   0.15241 261918.400000
   1479   1484     1   0.12183 533627.360000
   1479   3042     1   0.13789 357815.680000
   1480   1481     1   0.15375 251793.120000
   1481   1482     1   0.14619 275056.160000
   1499   1500     1   0.15110 237065.440000
   1499   1501     1   0.15110 237065.440000
   1499   1506     1   0.15110 237065.440000
   1500   1502     1   0.15375 251793.120000
   1501   1504     1   0.15375 251793.120000
   1502   1503     1   0.15241 261918.400000
   1503   1509     1   0.12183 533627.360000
   1503   3068     1   0.13789 357815.680000
   1504   1505     1   0.15241 261918.400000
   1505   1510     1   0.12183 533627.360000
   1505   3094     1   0.13789 357815.680000
   1506   1507     1   0.15375 251793.120000
   1507   1508     1   0.14619 275056.160000
   1525   1526     1   0.15110 237065.440000
   1525   1527     1   0.15110 237065.440000
   1525   1532     1   0.15110 237065.440000
   1526   1528     1   0.15375 251793.120000
   1527   1530     1   0.15375 251793.120000
   1528   1529     1   0.15241 261918.400000
   1529   1535     1   0.12183 533627.360000
   1529   3120     1   0.13789 357815.680000
   1530   1531     1   0.15241 261918.400000
   1531   1536     1   0.12183 533627.360000
   1531   3146     1   0.13789 357815.680000
   1532   1533     1   0.15375 251793.120000
   1533   1534     1   0.14619 275056.160000
   1551   1552     1   0.15110 237065.440000
   1551   1553     1   0.15110 237065.440000
   1551   1558     1   0.15110 237065.440000
   1552   1554     1   0.15375 251793.120000
   1553   1556     1   0.15375 251793.120000
   1554   1555     1   0.15241 261918.400000
   1555   1561     1   0.12183 533627.360000
   1555   3172     1   0.13789 357815.680000
   1556   1557     1   0.15241 261918.400000
   1557   1562     1   0.12183 533627.360000
   1557   3198     1   0.13789 357815.680000
   1558   1559     1   0.15375 251793.120000
   1559   1560     1   0.14619 275056.160000
   1577   1578     1   0.15110 237065.440000
   1577   1579     1   0.15110 237065.440000
   1577   1584     1   0.15110 237065.440000
   1578   1580     1   0.15375 251793.120000
   1579   1582     1   0.15375 251793.120000
   1580   1581     1   0.15241 261918.400000
   1581   1587     1   0.12183 533627.360000
   1581   3224     1   0.13789 357815.680000
   1582   1583     1   0.15241 261918.400000
   1583   1588     1   0.12183 533627.360000
   1583   3250     1   0.13789 357815.680000
   1584   1585     1   0.15375 251793.120000
   1585   1586     1   0.14619 275056.160000
   1603   1604     1   0.15110 237065.440000
   1603   1605     1   0.15110 237065.440000
   1603   1610     1   0.15110 237065.440000
   1604   1606     1   0.15375 251793.120000
   1605   1608     1   0.15375 251793.120000
   1606   1607     1   0.15241 261918.400000
   1607   3267     1   0.13789 357815.680000
   1607   1613     1   0.12183 533627.360000
   1608   1609     1   0.15241 261918.400000
   1609   1614     1   0.12183 533627.360000
   1609   3341     1   0.13789 357815.680000
   1610   1611     1   0.15375 251793.120000
   1611   1612     1   0.14619 275056.160000
   1629   1630     1   0.15110 237065.440000
   1629   1631     1   0.15110 237065.440000
   1629   1636     1   0.15110 237065.440000
   1630   1632     1   0.15375 251793.120000
   1631   1634     1   0.15375 251793.120000
   1632   1633     1   0.15241 261918.400000
   1633   3415     1   0.13789 357815.680000
   1633   1639     1   0.12183 533627.360000
   1634   1635     1   0.15241 261918.400000
   1635   1640     1   0.12183 533627.360000
   1635   3489     1   0.13789 357815.680000
   1636   1637     1   0.15375 251793.120000
   1637   1638     1   0.14619 275056.160000
   1655   1656     1   0.15110 237065.440000
   1655   1657     1   0.15110 237065.440000
   1655   1662     1   0.15110 237065.440000
   1656   1658     1   0.15375 251793.120000
   1657   1660     1   0.15375 251793.120000
   1658   1659     1   0.15241 261918.400000
   1659   3563     1   0.13789 357815.680000
   1659   1665     1   0.12183 533627.360000
   1660   1661     1   0.15241 261918.400000
   1661   1666     1   0.12183 533627.360000
   1661   3637     1   0.13789 357815.680000
   1662   1663     1   0.15375 251793.120000
   1663   1664     1   0.14619 275056.160000
   1681   1682     1   0.15110 237065.440000
   1681   1683     1   0.15110 237065.440000
   1681   1688     1   0.15110 237065.440000
   1682   1684     1   0.15375 251793.120000
   1683   1686     1   0.15375 251793.120000
   1684   1685     1   0.15241 261918.400000
   1685   3711     1   0.13789 357815.680000
   1685   1691     1   0.12183 533627.360000
   1686   1687     1   0.15241 261918.400000
   1687   1692     1   0.12183 533627.360000
   1687   3785     1   0.13789 357815.680000
   1688   1689     1   0.15375 251793.120000
   1689   1690     1   0.14619 275056.160000
   1707   1708     1   0.15110 237065.440000
   1707   1709     1   0.15110 237065.440000
   1707   1714     1   0.15110 237065.440000
   1708   1710     1   0.15375 251793.120000
   1709   1712     1   0.15375 251793.120000
   1710   1711     1   0.15241 261918.400000
   1711   3859     1   0.13789 357815.680000
   1711   1717     1   0.12183 533627.360000
   1712   1713     1   0.15241 261918.400000
   1713   1718     1   0.12183 533627.360000
   1713   3933     1   0.13789 357815.680000
   1714   1715     1   0.15375 251793.120000
   1715   1716     1   0.14619 275056.160000
   1733   1734     1   0.15110 237065.440000
   1733   1735     1   0.15110 237065.440000
   1733   1740     1   0.15110 237065.440000
   1734   1736     1   0.15375 251793.120000
   1735   1738     1   0.15375 251793.120000
   1736   1737     1   0.15241 261918.400000
   1737   4007     1   0.13789 357815.680000
   1737   1743     1   0.12183 533627.360000
   1738   1739     1   0.15241 261918.400000
   1739   1744     1   0.12183 533627.360000
   1739   4081     1   0.13789 357815.680000
   1740   1741     1   0.15375 251793.120000
   1741   1742     1   0.14619 275056.160000
   1759   1760     1   0.15110 237065.440000
   1759   1761     1   0.15110 237065.440000
   1759   1766     1   0.15110 237065.440000
   1760   1762     1   0.15375 251793.120000
   1761   1764     1   0.15375 251793.120000
   1762   1763     1   0.15241 261918.400000
   1763   4155     1   0.13789 357815.680000
   1763   1769     1   0.12183 533627.360000
   1764   1765     1   0.15241 261918.400000
   1765   1770     1   0.12183 533627.360000
   1765   4229     1   0.13789 357815.680000
   1766   1767     1   0.15375 251793.120000
   1767   1768     1   0.14619 275056.160000
   1785   1786     1   0.15110 237065.440000
   1785   1787     1   0.15110 237065.440000
   1785   1792     1   0.15110 237065.440000
   1786   1788     1   0.15375 251793.120000
   1787   1790     1   0.15375 251793.120000
   1788   1789     1   0.15241 261918.400000
   1789   4303     1   0.13789 357815.680000
   1789   1795     1   0.12183 533627.360000
   1790   1791     1   0.15241 261918.400000
   1791   1796     1   0.12183 533627.360000
   1791   4377     1   0.13789 357815.680000
   1792   1793     1   0.15375 251793.120000
   1793   1794     1   0.14619 275056.160000
   1811   1812     1   0.15110 237065.440000
   1811   1813     1   0.15110 237065.440000
   1811   1818     1   0.15110 237065.440000
   1812   1814     1   0.15375 251793.120000
   1813   1816     1   0.15375 251793.120000
   1814   1815     1   0.15241 261918.400000
   1815   4451     1   0.13789 357815.680000
   1815   1821     1   0.12183 533627.360000
   1816   1817     1   0.15241 261918.400000
   1817   1822     1   0.12183 533627.360000
   1817   4525     1   0.13789 357815.680000
   1818   1819     1   0.15375 251793.120000
   1819   1820     1   0.14619 275056.160000
   1837   1838     1   0.15110 237065.440000
   1837   1839     1   0.15110 237065.440000
   1837   1844     1   0.15110 237065.440000
   1838   1840     1   0.15375 251793.120000
   1839   1842     1   0.15375 251793.120000
   1840   1841     1   0.15241 261918.400000
   1841   4599     1   0.13789 357815.680000
   1841   1847     1   0.12183 533627.360000
   1842   1843     1   0.15241 261918.400000
   1843   1848     1   0.12183 533627.360000
   1843   4673     1   0.13789 357815.680000
   1844   1845     1   0.15375 251793.120000
   1845   1846     1   0.14619 275056.160000
   1863   1864     1   0.15110 237065.440000
   1863   1865     1   0.15110 237065.440000
   1863   1870     1   0.15110 237065.440000
   1864   1866     1   0.15375 251793.120000
   1865   1868     1   0.15375 251793.120000
   1866   1867     1   0.15241 261918.400000
   1867   4747     1   0.13789 357815.680000
   1867   1873     1   0.12183 533627.360000
   1868   1869     1   0.15241 261918.400000
   1869   1874     1   0.12183 533627.360000
   1869   4821     1   0.13789 357815.680000
   1870   1871     1   0.15375 251793.120000
   1871   1872     1   0.14619 275056.160000
   1889   1890     1   0.15110 237065.440000
   1889   1891     1   0.15110 237065.440000
   1889   1896     1   0.15110 237065.440000
   1890   1892     1   0.15375 251793.120000
   1891   1894     1   0.15375 251793.120000
   1892   1893     1   0.15241 261918.400000
   1893   4895     1   0.13789 357815.680000
   1893   1899     1   0.12183 533627.360000
   1894   1895     1   0.15241 261918.400000
   1895   1900     1   0.12183 533627.360000
   1895   4969     1   0.13789 357815.680000
   1896   1897     1   0.15375 251793.120000
   1897   1898     1   0.14619 275056.160000
   1915   1916     1   0.15110 237065.440000
   1915   1917     1   0.15110 237065.440000
   1915   1922     1   0.15110 237065.440000
   1916   1918     1   0.15375 251793.120000
   1917   1920     1   0.15375 251793.120000
   1918   1919     1   0.15241 261918.400000
   1919   5043     1   0.13789 357815.680000
   1919   1925     1   0.12183 533627.360000
   1920   1921     1   0.15241 261918.400000
   1921   1926     1   0.12183 533627.360000
   1921   5117     1   0.13789 357815.680000
   1922   1923     1   0.15375 251793.120000
   1923   1924     1   0.14619 275056.160000
   1941   1942     1   0.15110 237065.440000
   1941   1943     1   0.15110 237065.440000
   1941   1948     1   0.15110 237065.440000
   1942   1944     1   0.15375 251793.120000
   1943   1946     1   0.15375 251793.120000
   1944   1945     1   0.15241 261918.400000
   1945   5191     1   0.13789 357815.680000
   1945   1951     1   0.12183 533627.360000
   1946   1947     1   0.15241 261918.400000
   1947   1952     1   0.12183 533627.360000
   1947   5265     1   0.13789 357815.680000
   1948   1949     1   0.15375 251793.120000
   1949   1950     1   0.14619 275056.160000
   1967   1968     1   0.15110 237065.440000
   1967   1969     1   0.15110 237065.440000
   1967   1974     1   0.15110 237065.440000
   1968   1970     1   0.15375 251793.120000
   1969   1972     1   0.15375 251793.120000
   1970   1971     1   0.15241 261918.400000
   1971   5339     1   0.13789 357815.680000
   1971   1977     1   0.12183 533627.360000
   1972   1973     1   0.15241 261918.400000
   1973   1978     1   0.12183 533627.360000
   1973   5413     1   0.13789 357815.680000
   1974   1975     1   0.15375 251793.120000
   1975   1976     1   0.14619 275056.160000
   1993   1994     1   0.15110 237065.440000
   1993   1995     1   0.15110 237065.440000
   1993   2000     1   0.15110 237065.440000
   1994   1996     1   0.15375 251793.120000
   1995   1998     1   0.15375 251793.120000
   1996   1997     1   0.15241 261918.400000
   1997   5487     1   0.13789 357815.680000
   1997   2003     1   0.12183 533627.360000
   1998   1999     1   0.15241 261918.400000
   1999   2004     1   0.12183 533627.360000
   1999   5561     1   0.13789 357815.680000
   2000   2001     1   0.15375 251793.120000
   2001   2002     1   0.14619 275056.160000
   2019   2020     1   0.15110 237065.440000
   2019   2021     1   0.15110 237065.440000
   2019   2026     1   0.15110 237065.440000
   2020   2022     1   0.15375 251793.120000
   2021   2024     1   0.15375 251793.120000
   2022   2023     1   0.15241 261918.400000
   2023   5635     1   0.13789 357815.680000
   2023   2029     1   0.12183 533627.360000
   2024   2025     1   0.15241 261918.400000
   2025   2030     1   0.12183 533627.360000
   2025   5709     1   0.13789 357815.680000
   2026   2027     1   0.15375 251793.120000
   2027   2028     1   0.14619 275056.160000
   2045   2046     1   0.15110 237065.440000
   2045   2047     1   0.15110 237065.440000
   2045   2052     1   0.15110 237065.440000
   2046   2048     1   0.15375 251793.120000
   2047   2050     1   0.15375 251793.120000
   2048   2049     1   0.15241 261918.400000
   2049   5783     1   0.13789 357815.680000
   2049   2055     1   0.12183 533627.360000
   2050   2051     1   0.15241 261918.400000
   2051   2056     1   0.12183 533627.360000
   2051   5857     1   0.13789 357815.680000
   2052   2053     1   0.15375 251793.120000
   2053   2054     1   0.14619 275056.160000
   2071   2072     1   0.15110 237065.440000
   2071   2073     1   0.15110 237065.440000
   2071   2078     1   0.15110 237065.440000
   2072   2074     1   0.15375 251793.120000
   2073   2076     1   0.15375 251793.120000
   2074   2075     1   0.15241 261918.400000
   2075   5931     1   0.13789 357815.680000
   2075   2081     1   0.12183 533627.360000
   2076   2077     1   0.15241 261918.400000
   2077   2082     1   0.12183 533627.360000
   2077   6005     1   0.13789 357815.680000
   2078   2079     1   0.15375 251793.120000
   2079   2080     1   0.14619 275056.160000
   2097   2098     1   0.15110 237065.440000
   2097   2099     1   0.15110 237065.440000
   2097   2104     1   0.15110 237065.440000
   2098   2100     1   0.15375 251793.120000
   2099   2102     1   0.15375 251793.120000
   2100   2101     1   0.15241 261918.400000
   2101   6079     1   0.13789 357815.680000
   2101   2107     1   0.12183 533627.360000
   2102   2103     1   0.15241 261918.400000
   2103   2108     1   0.12183 533627.360000
   2103   6153     1   0.13789 357815.680000
   2104   2105     1   0.15375 251793.120000
   2105   2106     1   0.14619 275056.160000
   2123   2124     1   0.15110 237065.440000
   2123   2125     1   0.15110 237065.440000
   2123   2130     1   0.15110 237065.440000
   2124   2126     1   0.15375 251793.120000
   2125   2128     1   0.15375 251793.120000
   2126   2127     1   0.15241 261918.400000
   2127   6227     1   0.13789 357815.680000
   2127   2133     1   0.12183 533627.360000
   2128   2129     1   0.15241 261918.400000
   2129   2134     1   0.12183 533627.360000
   2129   6301     1   0.13789 357815.680000
   2130   2131     1   0.15375 251793.120000
   2131   2132     1   0.14619 275056.160000
   2149   2150     1   0.15110 237065.440000
   2149   2151     1   0.15110 237065.440000
   2149   2156     1   0.15110 237065.440000
   2150   2152     1   0.15375 251793.120000
   2151   2154     1   0.15375 251793.120000
   2152   2153     1   0.15241 261918.400000
   2153   6375     1   0.13789 357815.680000
   2153   2159     1   0.12183 533627.360000
   2154   2155     1   0.15241 261918.400000
   2155   2160     1   0.12183 533627.360000
   2155   6449     1   0.13789 357815.680000
   2156   2157     1   0.15375 251793.120000
   2157   2158     1   0.14619 275056.160000
   2175   2176     1   0.15110 237065.440000
   2175   2177     1   0.15110 237065.440000
   2175   2182     1   0.15110 237065.440000
   2176   2178     1   0.15375 251793.120000
   2177   2180     1   0.15375 251793.120000
   2178   2179     1   0.15241 261918.400000
   2179   6523     1   0.13789 357815.680000
   2179   2185     1   0.12183 533627.360000
   2180   2181     1   0.15241 261918.400000
   2181   2186     1   0.12183 533627.360000
   2181   6597     1   0.13789 357815.680000
   2182   2183     1   0.15375 251793.120000
   2183   2184     1   0.14619 275056.160000
   2201   2202     1   0.15110 237065.440000
   2201   2203     1   0.15110 237065.440000
   2201   2208     1   0.15110 237065.440000
   2202   2204     1   0.15375 251793.120000
   2203   2206     1   0.15375 251793.120000
   2204   2205     1   0.15241 261918.400000
   2205   6671     1   0.13789 357815.680000
   2205   2211     1   0.12183 533627.360000
   2206   2207     1   0.15241 261918.400000
   2207   2212     1   0.12183 533627.360000
   2207   6745     1   0.13789 357815.680000
   2208   2209     1   0.15375 251793.120000
   2209   2210     1   0.14619 275056.160000
   2227   2228     1   0.15110 237065.440000
   2227   2229     1   0.15110 237065.440000
   2227   2234     1   0.15110 237065.440000
   2228   2230     1   0.15375 251793.120000
   2229   2232     1   0.15375 251793.120000
   2230   2231     1   0.15241 261918.400000
   2231   6819     1   0.13789 357815.680000
   2231   2237     1   0.12183 533627.360000
   2232   2233     1   0.15241 261918.400000
   2233   2238     1   0.12183 533627.360000
   2233   6893     1   0.13789 357815.680000
   2234   2235     1   0.15375 251793.120000
   2235   2236     1   0.14619 275056.160000
   2253   2254     1   0.15110 237065.440000
   2253   2255     1   0.15110 237065.440000
   2253   2260     1   0.15110 237065.440000
   2254   2256     1   0.15375 251793.120000
   2255   2258     1   0.15375 251793.120000
   2256   2257     1   0.15241 261918.400000
   2257   6967     1   0.13789 357815.680000
   2257   2263     1   0.12183 533627.360000
   2258   2259     1   0.15241 261918.400000
   2259   2264     1   0.12183 533627.360000
   2259   7041     1   0.13789 357815.680000
   2260   2261     1   0.15375 251793.120000
   2261   2262     1   0.14619 275056.160000
   2279   2280     1   0.15110 237065.440000
   2279   2281     1   0.15110 237065.440000
   2279   2286     1   0.15110 237065.440000
   2280   2282     1   0.15375 251793.120000
   2281   2284     1   0.15375 251793.120000
   2282   2283     1   0.15241 261918.400000
   2283   7115     1   0.13789 357815.680000
   2283   2289     1   0.12183 533627.360000
   2284   2285     1   0.15241 261918.400000
   2285   2290     1   0.12183 533627.360000
   2285   7189     1   0.13789 357815.680000
   2286   2287     1   0.15375 251793.120000
   2287   2288     1   0.14619 275056.160000
   2305   2306     1   0.15110 237065.440000
   2305   2307     1   0.15110 237065.440000
   2305   2312     1   0.15110 237065.440000
   2306   2308     1   0.15375 251793.120000
   2307   2310     1   0.15375 251793.120000
   2308   2309     1   0.15241 261918.400000
   2309   7263     1   0.13789 357815.680000
   2309   2315     1   0.12183 533627.360000
   2310   2311     1   0.15241 261918.400000
   2311   2316     1   0.12183 533627.360000
   2311   7337     1   0.13789 357815.680000
   2312   2313     1   0.15375 251793.120000
   2313   2314     1   0.14619 275056.160000
   2331   2332     1   0.15110 237065.440000
   2331   2333     1   0.15110 237065.440000
   2331   2338     1   0.15110 237065.440000
   2332   2334     1   0.15375 251793.120000
   2333   2336     1   0.15375 251793.120000
   2334   2335     1   0.15241 261918.400000
   2335   7411     1   0.13789 357815.680000
   2335   2341     1   0.12183 533627.360000
   2336   2337     1   0.15241 261918.400000
   2337   2342     1   0.12183 533627.360000
   2337   7485     1   0.13789 357815.680000
   2338   2339     1   0.15375 251793.120000
   2339   2340     1   0.14619 275056.160000
   2357   2358     1   0.15110 237065.440000
   2357   2359     1   0.15110 237065.440000
   2357   2364     1   0.15110 237065.440000
   2358   2360     1   0.15375 251793.120000
   2359   2362     1   0.15375 251793.120000
   2360   2361     1   0.15241 261918.400000
   2361   7559     1   0.13789 357815.680000
   2361   2367     1   0.12183 533627.360000
   2362   2363     1   0.15241 261918.400000
   2363   2368     1   0.12183 533627.360000
   2363   7633     1   0.13789 357815.680000
   2364   2365     1   0.15375 251793.120000
   2365   2366     1   0.14619 275056.160000
   2383   2384     1   0.15110 237065.440000
   2383   2385     1   0.15110 237065.440000
   2383   2390     1   0.15110 237065.440000
   2384   2386     1   0.15375 251793.120000
   2385   2388     1   0.15375 251793.120000
   2386   2387     1   0.15241 261918.400000
   2387   7707     1   0.13789 357815.680000
   2387   2393     1   0.12183 533627.360000
   2388   2389     1   0.15241 261918.400000
   2389   2394     1   0.12183 533627.360000
   2389   7781     1   0.13789 357815.680000
   2390   2391     1   0.15375 251793.120000
   2391   2392     1   0.14619 275056.160000
   2409   2410     1   0.15110 237065.440000
   2409   2411     1   0.15110 237065.440000
   2409   2416     1   0.15110 237065.440000
   2410   2412     1   0.15375 251793.120000
   2411   2414     1   0.15375 251793.120000
   2412   2413     1   0.15241 261918.400000
   2413   7855     1   0.13789 357815.680000
   2413   2419     1   0.12183 533627.360000
   2414   2415     1   0.15241 261918.400000
   2415   2420     1   0.12183 533627.360000
   2415   7929     1   0.13789 357815.680000
   2416   2417     1   0.15375 251793.120000
   2417   2418     1   0.14619 275056.160000
   2435   2436     1   0.15110 237065.440000
   2435   2437     1   0.15110 237065.440000
   2435   2442     1   0.15110 237065.440000
   2436   2438     1   0.15375 251793.120000
   2437   2440     1   0.15375 251793.120000
   2438   2439     1   0.15241 261918.400000
   2439   8003     1   0.13789 357815.680000
   2439   2445     1   0.12183 533627.360000
   2440   2441     1   0.15241 261918.400000
   2441   2446     1   0.12183 533627.360000
   2441   8077     1   0.13789 357815.680000
   2442   2443     1   0.15375 251793.120000
   2443   2444     1   0.14619 275056.160000
   2461   2462     1   0.15110 237065.440000
   2461   2463     1   0.15110 237065.440000
   2461   2468     1   0.15110 237065.440000
   2462   2464     1   0.15375 251793.120000
   2463   2466     1   0.15375 251793.120000
   2464   2465     1   0.15241 261918.400000
   2465   8151     1   0.13789 357815.680000
   2465   2471     1   0.12183 533627.360000
   2466   2467     1   0.15241 261918.400000
   2467   2472     1   0.12183 533627.360000
   2467   8225     1   0.13789 357815.680000
   2468   2469     1   0.15375 251793.120000
   2469   2470     1   0.14619 275056.160000
   2487   2488     1   0.15110 237065.440000
   2487   2489     1   0.15110 237065.440000
   2487   2494     1   0.15110 237065.440000
   2488   2490     1   0.15375 251793.120000
   2489   2492     1   0.15375 251793.120000
   2490   2491     1   0.15241 261918.400000
   2491   8299     1   0.13789 357815.680000
   2491   2497     1   0.12183 533627.360000
   2492   2493     1   0.15241 261918.400000
   2493   2498     1   0.12183 533627.360000
   2493   8373     1   0.13789 357815.680000
   2494   2495     1   0.15375 251793.120000
   2495   2496     1   0.14619 275056.160000
   2513   2514     1   0.15110 237065.440000
   2513   2515     1   0.15110 237065.440000
   2513   2520     1   0.15110 237065.440000
   2514   2516     1   0.15375 251793.120000
   2515   2518     1   0.15375 251793.120000
   2516   2517     1   0.15241 261918.400000
   2517   8447     1   0.13789 357815.680000
   2517   2523     1   0.12183 533627.360000
   2518   2519     1   0.15241 261918.400000
   2519   2524     1   0.12183 533627.360000
   2519   8521     1   0.13789 357815.680000
   2520   2521     1   0.15375 251793.120000
   2521   2522     1   0.14619 275056.160000
   2539   2540     1   0.15110 237065.440000
   2539   2541     1   0.15110 237065.440000
   2539   2546     1   0.15110 237065.440000
   2540   2542     1   0.15375 251793.120000
   2541   2544     1   0.15375 251793.120000
   2542   2543     1   0.15241 261918.400000
   2543   8595     1   0.13789 357815.680000
   2543   2549     1   0.12183 533627.360000
   2544   2545     1   0.15241 261918.400000
   2545   2550     1   0.12183 533627.360000
   2545   8669     1   0.13789 357815.680000
   2546   2547     1   0.15375 251793.120000
   2547   2548     1   0.14619 275056.160000
   2565   2566     1   0.15110 237065.440000
   2565   2567     1   0.15110 237065.440000
   2565   2572     1   0.15110 237065.440000
   2566   2568     1   0.15375 251793.120000
   2567   2570     1   0.15375 251793.120000
   2568   2569     1   0.15241 261918.400000
   2569   8743     1   0.13789 357815.680000
   2569   2575     1   0.12183 533627.360000
   2570   2571     1   0.15241 261918.400000
   2571   2576     1   0.12183 533627.360000
   2571   8817     1   0.13789 357815.680000
   2572   2573     1   0.15375 251793.120000
   2573   2574     1   0.14619 275056.160000
   2591   2592     1   0.15110 237065.440000
   2591   2593     1   0.15110 237065.440000
   2591   2598     1   0.15110 237065.440000
   2592   2594     1   0.15375 251793.120000
   2593   2596     1   0.15375 251793.120000
   2594   2595     1   0.15241 261918.400000
   2595   8891     1   0.13789 357815.680000
   2595   2601     1   0.12183 533627.360000
   2596   2597     1   0.15241 261918.400000
   2597   2602     1   0.12183 533627.360000
   2597   8965     1   0.13789 357815.680000
   2598   2599     1   0.15375 251793.120000
   2599   2600     1   0.14619 275056.160000
   2617   2618     1   0.15110 237065.440000
   2617   2619     1   0.15110 237065.440000
   2617   2624     1   0.15110 237065.440000
   2618   2620     1   0.15375 251793.120000
   2619   2622     1   0.15375 251793.120000
   2620   2621     1   0.15241 261918.400000
   2621   9039     1   0.13789 357815.680000
   2621   2627     1   0.12183 533627.360000
   2622   2623     1   0.15241 261918.400000
   2623   2628     1   0.12183 533627.360000
   2623   9113     1   0.13789 357815.680000
   2624   2625     1   0.15375 251793.120000
   2625   2626     1   0.14619 275056.160000
   2643   2644     1   0.15110 237065.440000
   2643   2645     1   0.15110 237065.440000
   2643   2650     1   0.15110 237065.440000
   2644   2646     1   0.15375 251793.120000
   2645   2648     1   0.15375 251793.120000
   2646   2647     1   0.15241 261918.400000
   2647   9187     1   0.13789 357815.680000
   2647   2653     1   0.12183 533627.360000
   2648   2649     1   0.15241 261918.400000
   2649   2654     1   0.12183 533627.360000
   2649   9261     1   0.13789 357815.680000
   2650   2651     1   0.15375 251793.120000
   2651   2652     1   0.14619 275056.160000
   2669   2670     1   0.15110 237065.440000
   2669   2671     1   0.15110 237065.440000
   2669   2676     1   0.15110 237065.440000
   2670   2672     1   0.15375 251793.120000
   2671   2674     1   0.15375 251793.120000
   2672   2673     1   0.15241 261918.400000
   2673   9335     1   0.13789 357815.680000
   2673   2679     1   0.12183 533627.360000
   2674   2675     1   0.15241 261918.400000
   2675   2680     1   0.12183 533627.360000
   2675   9409     1   0.13789 357815.680000
   2676   2677     1   0.15375 251793.120000
   2677   2678     1   0.14619 275056.160000
   2695   2696     1   0.15110 237065.440000
   2695   2697     1   0.15110 237065.440000
   2695   2702     1   0.15110 237065.440000
   2696   2698     1   0.15375 251793.120000
   2697   2700     1   0.15375 251793.120000
   2698   2699     1   0.15241 261918.400000
   2699   9483     1   0.13789 357815.680000
   2699   2705     1   0.12183 533627.360000
   2700   2701     1   0.15241 261918.400000
   2701   2706     1   0.12183 533627.360000
   2701   9557     1   0.13789 357815.680000
   2702   2703     1   0.15375 251793.120000
   2703   2704     1   0.14619 275056.160000
   2721   2722     1   0.15110 237065.440000
   2721   2723     1   0.15110 237065.440000
   2721   2728     1   0.15110 237065.440000
   2722   2724     1   0.15375 251793.120000
   2723   2726     1   0.15375 251793.120000
   2724   2725     1   0.15241 261918.400000
   2725   9631     1   0.13789 357815.680000
   2725   2731     1   0.12183 533627.360000
   2726   2727     1   0.15241 261918.400000
   2727   2732     1   0.12183 533627.360000
   2727   9705     1   0.13789 357815.680000
   2728   2729     1   0.15375 251793.120000
   2729   2730     1   0.14619 275056.160000
   2747   2748     1   0.15110 237065.440000
   2747   2749     1   0.15110 237065.440000
   2747   2754     1   0.15110 237065.440000
   2748   2750     1   0.15375 251793.120000
   2749   2752     1   0.15375 251793.120000
   2750   2751     1   0.15241 261918.400000
   2751   9779     1   0.13789 357815.680000
   2751   2757     1   0.12183 533627.360000
   2752   2753     1   0.15241 261918.400000
   2753   2758     1   0.12183 533627.360000
   2753   9853     1   0.13789 357815.680000
   2754   2755     1   0.15375 251793.120000
   2755   2756     1   0.14619 275056.160000
   2773   2774     1   0.15110 237065.440000
   2773   2775     1   0.15110 237065.440000
   2773   2780     1   0.15110 237065.440000
   2774   2776     1   0.15375 251793.120000
   2775   2778     1   0.15375 251793.120000
   2776   2777     1   0.15241 261918.400000
   2777   9927     1   0.13789 357815.680000
   2777   2783     1   0.12183 533627.360000
   2778   2779     1   0.15241 261918.400000
   2779   2784     1   0.12183 533627.360000
   2779  10001     1   0.13789 357815.680000
   2780   2781     1   0.15375 251793.120000
   2781   2782     1   0.14619 275056.160000
   2799   2800     1   0.15110 237065.440000
   2799   2801     1   0.15110 237065.440000
   2799   2806     1   0.15110 237065.440000
   2800   2802     1   0.15375 251793.120000
   2801   2804     1   0.15375 251793.120000
   2802   2803     1   0.15241 261918.400000
   2803  10075     1   0.13789 357815.680000
   2803   2809     1   0.12183 533627.360000
   2804   2805     1   0.15241 261918.400000
   2805   2810     1   0.12183 533627.360000
   2805  10149     1   0.13789 357815.680000
   2806   2807     1   0.15375 251793.120000
   2807   2808     1   0.14619 275056.160000
   2825   2826     1   0.15110 237065.440000
   2825   2827     1   0.15110 237065.440000
   2825   2832     1   0.15110 237065.440000
   2826   2828     1   0.15375 251793.120000
   2827   2830     1   0.15375 251793.120000
   2828   2829     1   0.15241 261918.400000
   2829  10223     1   0.13789 357815.680000
   2829   2835     1   0.12183 533627.360000
   2830   2831     1   0.15241 261918.400000
   2831   2836     1   0.12183 533627.360000
   2831  10297     1   0.13789 357815.680000
   2832   2833     1   0.15375 251793.120000
   2833   2834     1   0.14619 275056.160000
   2851   2852     1   0.15110 237065.440000
   2851   2853     1   0.15110 237065.440000
   2851   2858     1   0.15110 237065.440000
   2852   2854     1   0.15375 251793.120000
   2853   2856     1   0.15375 251793.120000
   2854   2855     1   0.15241 261918.400000
   2855  10371     1   0.13789 357815.680000
   2855   2861     1   0.12183 533627.360000
   2856   2857     1   0.15241 261918.400000
   2857   2862     1   0.12183 533627.360000
   2857  10445     1   0.13789 357815.680000
   2858   2859     1   0.15375 251793.120000
   2859   2860     1   0.14619 275056.160000
   2877   2878     1   0.15110 237065.440000
   2877   2879     1   0.15110 237065.440000
   2877   2884     1   0.15110 237065.440000
   2878   2880     1   0.15375 251793.120000
   2879   2882     1   0.15375 251793.120000
   2880   2881     1   0.15241 261918.400000
   2881  10519     1   0.13789 357815.680000
   2881   2887     1   0.12183 533627.360000
   2882   2883     1   0.15241 261918.400000
   2883   2888     1   0.12183 533627.360000
   2883  10593     1   0.13789 357815.680000
   2884   2885     1   0.15375 251793.120000
   2885   2886     1   0.14619 275056.160000
   2903   2904     1   0.15110 237065.440000
   2903   2905     1   0.15110 237065.440000
   2903   2910     1   0.15110 237065.440000
   2904   2906     1   0.15375 251793.120000
   2905   2908     1   0.15375 251793.120000
   2906   2907     1   0.15241 261918.400000
   2907  10667     1   0.13789 357815.680000
   2907   2913     1   0.12183 533627.360000
   2908   2909     1   0.15241 261918.400000
   2909   2914     1   0.12183 533627.360000
   2909  10741     1   0.13789 357815.680000
   2910   2911     1   0.15375 251793.120000
   2911   2912     1   0.14619 275056.160000
   2929   2930     1   0.15110 237065.440000
   2929   2931     1   0.15110 237065.440000
   2929   2936     1   0.15110 237065.440000
   2930   2932     1   0.15375 251793.120000
   2931   2934     1   0.15375 251793.120000
   2932   2933     1   0.15241 261918.400000
   2933  10815     1   0.13789 357815.680000
   2933   2939     1   0.12183 533627.360000
   2934   2935     1   0.15241 261918.400000
   2935   2940     1   0.12183 533627.360000
   2935  10889     1   0.13789 357815.680000
   2936   2937     1   0.15375 251793.120000
   2937   2938     1   0.14619 275056.160000
   2955   2956     1   0.15110 237065.440000
   2955   2957     1   0.15110 237065.440000
   2955   2962     1   0.15110 237065.440000
   2956   2958     1   0.15375 251793.120000
   2957   2960     1   0.15375 251793.120000
   2958   2959     1   0.15241 261918.400000
   2959  10963     1   0.13789 357815.680000
   2959   2965     1   0.12183 533627.360000
   2960   2961     1   0.15241 261918.400000
   2961   2966     1   0.12183 533627.360000
   2961  11037     1   0.13789 357815.680000
   2962   2963     1   0.15375 251793.120000
   2963   2964     1   0.14619 275056.160000
   2981   2982     1   0.15110 237065.440000
   2981   2983     1   0.15110 237065.440000
   2981   2988     1   0.15110 237065.440000
   2982   2984     1   0.15375 251793.120000
   2983   2986     1   0.15375 251793.120000
   2984   2985     1   0.15241 261918.400000
   2985  11111     1   0.13789 357815.680000
   2985   2991     1   0.12183 533627.360000
   2986   2987     1   0.15241 261918.400000
   2987   2992     1   0.12183 533627.360000
   2987  11185     1   0.13789 357815.680000
   2988   2989     1   0.15375 251793.120000
   2989   2990     1   0.14619 275056.160000
   3007   3008     1   0.15110 237065.440000
   3007   3009     1   0.15110 237065.440000
   3007   3014     1   0.15110 237065.440000
   3008   3010     1   0.15375 251793.120000
   3009   3012     1   0.15375 251793.120000
   3010   3011     1   0.15241 261918.400000
   3011  11259     1   0.13789 357815.680000
   3011   3017     1   0.12183 533627.360000
   3012   3013     1   0.15241 261918.400000
   3013   3018     1   0.12183 533627.360000
   3013  11333     1   0.13789 357815.680000
   3014   3015     1   0.15375 251793.120000
   3015   3016     1   0.14619 275056.160000
   3033   3034     1   0.15110 237065.440000
   3033   3035     1   0.15110 237065.440000
   3033   3040     1   0.15110 237065.440000
   3034   3036     1   0.15375 251793.120000
   3035   3038     1   0.15375 251793.120000
   3036   3037     1   0.15241 261918.400000
   3037  11407     1   0.13789 357815.680000
   3037   3043     1   0.12183 533627.360000
   3038   3039     1   0.15241 261918.400000
   3039   3044     1   0.12183 533627.360000
   3039  11481     1   0.13789 357815.680000
   3040   3041     1   0.15375 251793.120000
   3041   3042     1   0.14619 275056.160000
   3059   3060     1   0.15110 237065.440000
   3059   3061     1   0.15110 237065.440000
   3059   3066     1   0.15110 237065.440000
   3060   3062     1   0.15375 251793.120000
   3061   3064     1   0.15375 251793.120000
   3062   3063     1   0.15241 261918.400000
   3063  11555     1   0.13789 357815.680000
   3063   3069     1   0.12183 533627.360000
   3064   3065     1   0.15241 261918.400000
   3065   3070     1   0.12183 533627.360000
   3065  11629     1   0.13789 357815.680000
   3066   3067     1   0.15375 251793.120000
   3067   3068     1   0.14619 275056.160000
   3085   3086     1   0.15110 237065.440000
   3085   3087     1   0.15110 237065.440000
   3085   3092     1   0.15110 237065.440000
   3086   3088     1   0.15375 251793.120000
   3087   3090     1   0.15375 251793.120000
   3088   3089     1   0.15241 261918.400000
   3089  11703     1   0.13789 357815.680000
   3089   3095     1   0.12183 533627.360000
   3090   3091     1   0.15241 261918.400000
   3091   3096     1   0.12183 533627.360000
   3091  11777     1   0.13789 357815.680000
   3092   3093     1   0.15375 251793.120000
   3093   3094     1   0.14619 275056.160000
   3111   3112     1   0.15110 237065.440000
   3111   3113     1   0.15110 237065.440000
   3111   3118     1   0.15110 237065.440000
   3112   3114     1   0.15375 251793.120000
   3113   3116     1   0.15375 251793.120000
   3114   3115     1   0.15241 261918.400000
   3115  11851     1   0.13789 357815.680000
   3115   3121     1   0.12183 533627.360000
   3116   3117     1   0.15241 261918.400000
   3117   3122     1   0.12183 533627.360000
   3117  11925     1   0.13789 357815.680000
   3118   3119     1   0.15375 251793.120000
   3119   3120     1   0.14619 275056.160000
   3137   3138     1   0.15110 237065.440000
   3137   3139     1   0.15110 237065.440000
   3137   3144     1   0.15110 237065.440000
   3138   3140     1   0.15375 251793.120000
   3139   3142     1   0.15375 251793.120000
   3140   3141     1   0.15241 261918.400000
   3141  11999     1   0.13789 357815.680000
   3141   3147     1   0.12183 533627.360000
   3142   3143     1   0.15241 261918.400000
   3143   3148     1   0.12183 533627.360000
   3143  12073     1   0.13789 357815.680000
   3144   3145     1   0.15375 251793.120000
   3145   3146     1   0.14619 275056.160000
   3163   3164     1   0.15110 237065.440000
   3163   3165     1   0.15110 237065.440000
   3163   3170     1   0.15110 237065.440000
   3164   3166     1   0.15375 251793.120000
   3165   3168     1   0.15375 251793.120000
   3166   3167     1   0.15241 261918.400000
   3167  12147     1   0.13789 357815.680000
   3167   3173     1   0.12183 533627.360000
   3168   3169     1   0.15241 261918.400000
   3169   3174     1   0.12183 533627.360000
   3169  12221     1   0.13789 357815.680000
   3170   3171     1   0.15375 251793.120000
   3171   3172     1   0.14619 275056.160000
   3189   3190     1   0.15110 237065.440000
   3189   3191     1   0.15110 237065.440000
   3189   3196     1   0.15110 237065.440000
   3190   3192     1   0.15375 251793.120000
   3191   3194     1   0.15375 251793.120000
   3192   3193     1   0.15241 261918.400000
   3193  12295     1   0.13789 357815.680000
   3193   3199     1   0.12183 533627.360000
   3194   3195     1   0.15241 261918.400000
   3195   3200     1   0.12183 533627.360000
   3195  12369     1   0.13789 357815.680000
   3196   3197     1   0.15375 251793.120000
   3197   3198     1   0.14619 275056.160000
   3215   3216     1   0.15110 237065.440000
   3215   3217     1   0.15110 237065.440000
   3215   3222     1   0.15110 237065.440000
   3216   3218     1   0.15375 251793.120000
   3217   3220     1   0.15375 251793.120000
   3218   3219     1   0.15241 261918.400000
   3219  12443     1   0.13789 357815.680000
   3219   3225     1   0.12183 533627.360000
   3220   3221     1   0.15241 261918.400000
   3221   3226     1   0.12183 533627.360000
   3221  12517     1   0.13789 357815.680000
   3222   3223     1   0.15375 251793.120000
   3223   3224     1   0.14619 275056.160000
   3241   3242     1   0.15110 237065.440000
   3241   3243     1   0.15110 237065.440000
   3241   3248     1   0.15110 237065.440000
   3242   3244     1   0.15375 251793.120000
   3243   3246     1   0.15375 251793.120000
   3244   3245     1   0.15241 261918.400000
   3245  12591     1   0.13789 357815.680000
   3245   3251     1   0.12183 533627.360000
   3246   3247     1   0.15241 261918.400000
   3247  12665     1   0.13789 357815.680000
   3247   3252     1   0.12183 533627.360000
   3248   3249     1   0.15375 251793.120000
   3249   3250     1   0.14619 275056.160000
   3267   3269     1   0.14619 275056.160000
   3269   3271     1   0.15375 251793.120000
   3271   3275     1   0.15110 237065.440000
   3275   3276     1   0.15110 237065.440000
   3275   3277     1   0.15110 237065.440000
   3276   3287     1   0.15375 251793.120000
   3277   3279     1   0.15375 251793.120000
   3279   3283     1   0.15241 261918.400000
   3283   3284     1   0.12183 533627.360000
   3283   3315     1   0.13400 406935.840000
   3287   3290     1   0.15241 261918.400000
   3290   3291     1   0.12183 533627.360000
   3290   3339     1   0.13400 406935.840000
   3292   3293     1   0.15375 251793.120000
   3292   3303     1   0.15375 251793.120000
   3292   3310     1   0.14316 258236.480000
   3293   3295     1   0.15375 251793.120000
   3293   3313     1   0.14233 265014.560000
   3295   3296     1   0.15375 251793.120000
   3295   3302     1   0.14233 265014.560000
   3296   3297     1   0.15375 251793.120000
   3296   3315     1   0.14647 272713.120000
   3297   3301     1   0.14233 265014.560000
   3297   3310     1   0.14316 258236.480000
   3303   3308     1   0.14233 265014.560000
   3316   3317     1   0.15375 251793.120000
   3316   3327     1   0.15375 251793.120000
   3316   3334     1   0.14316 258236.480000
   3317   3319     1   0.15375 251793.120000
   3317   3337     1   0.14233 265014.560000
   3319   3320     1   0.15375 251793.120000
   3319   3326     1   0.14233 265014.560000
   3320   3321     1   0.15375 251793.120000
   3320   3339     1   0.14647 272713.120000
   3321   3325     1   0.14233 265014.560000
   3321   3334     1   0.14316 258236.480000
   3327   3332     1   0.14233 265014.560000
   3341   3343     1   0.14619 275056.160000
   3343   3345     1   0.15375 251793.120000
   3345   3349     1   0.15110 237065.440000
   3349   3350     1   0.15110 237065.440000
   3349   3351     1   0.15110 237065.440000
   3350   3361     1   0.15375 251793.120000
   3351   3353     1   0.15375 251793.120000
   3353   3357     1   0.15241 261918.400000
   3357   3358     1   0.12183 533627.360000
   3357   3389     1   0.13400 406935.840000
   3361   3364     1   0.15241 261918.400000
   3364   3365     1   0.12183 533627.360000
   3364   3413     1   0.13400 406935.840000
   3366   3367     1   0.15375 251793.120000
   3366   3377     1   0.15375 251793.120000
   3366   3384     1   0.14316 258236.480000
   3367   3369     1   0.15375 251793.120000
   3367   3387     1   0.14233 265014.560000
   3369   3370     1   0.15375 251793.120000
   3369   3376     1   0.14233 265014.560000
   3370   3371     1   0.15375 251793.120000
   3370   3389     1   0.14647 272713.120000
   3371   3375     1   0.14233 265014.560000
   3371   3384     1   0.14316 258236.480000
   3377   3382     1   0.14233 265014.560000
   3390   3391     1   0.15375 251793.120000
   3390   3401     1   0.15375 251793.120000
   3390   3408     1   0.14316 258236.480000
   3391   3393     1   0.15375 251793.120000
   3391   3411     1   0.14233 265014.560000
   3393   3394     1   0.15375 251793.120000
   3393   3400     1   0.14233 265014.560000
   3394   3395     1   0.15375 251793.120000
   3394   3413     1   0.14647 272713.120000
   3395   3399     1   0.14233 265014.560000
   3395   3408     1   0.14316 258236.480000
   3401   3406     1   0.14233 265014.560000
   3415   3417     1   0.14619 275056.160000
   3417   3419     1   0.15375 251793.120000
   3419   3423     1   0.15110 237065.440000
   3423   3424     1   0.15110 237065.440000
   3423   3425     1   0.15110 237065.440000
   3424   3435     1   0.15375 251793.120000
   3425   3427     1   0.15375 251793.120000
   3427   3431     1   0.15241 261918.400000
   3431   3432     1   0.12183 533627.360000
   3431   3463     1   0.13400 406935.840000
   3435   3438     1   0.15241 261918.400000
   3438   3439     1   0.12183 533627.360000
   3438   3487     1   0.13400 406935.840000
   3440   3441     1   0.15375 251793.120000
   3440   3451     1   0.15375 251793.120000
   3440   3458     1   0.14316 258236.480000
   3441   3443     1   0.15375 251793.120000
   3441   3461     1   0.14233 265014.560000
   3443   3444     1   0.15375 251793.120000
   3443   3450     1   0.14233 265014.560000
   3444   3445     1   0.15375 251793.120000
   3444   3463     1   0.14647 272713.120000
   3445   3449     1   0.14233 265014.560000
   3445   3458     1   0.14316 258236.480000
   3451   3456     1   0.14233 265014.560000
   3464   3465     1   0.15375 251793.120000
   3464   3475     1   0.15375 251793.120000
   3464   3482     1   0.14316 258236.480000
   3465   3467     1   0.15375 251793.120000
   3465   3485     1   0.14233 265014.560000
   3467   3468     1   0.15375 251793.120000
   3467   3474     1   0.14233 265014.560000
   3468   3469     1   0.15375 251793.120000
   3468   3487     1   0.14647 272713.120000
   3469   3473     1   0.14233 265014.560000
   3469   3482     1   0.14316 258236.480000
   3475   3480     1   0.14233 265014.560000
   3489   3491     1   0.14619 275056.160000
   3491   3493     1   0.15375 251793.120000
   3493   3497     1   0.15110 237065.440000
   3497   3498     1   0.15110 237065.440000
   3497   3499     1   0.15110 237065.440000
   3498   3509     1   0.15375 251793.120000
   3499   3501     1   0.15375 251793.120000
   3501   3505     1   0.15241 261918.400000
   3505   3506     1   0.12183 533627.360000
   3505   3537     1   0.13400 406935.840000
   3509   3512     1   0.15241 261918.400000
   3512   3513     1   0.12183 533627.360000
   3512   3561     1   0.13400 406935.840000
   3514   3515     1   0.15375 251793.120000
   3514   3525     1   0.15375 251793.120000
   3514   3532     1   0.14316 258236.480000
   3515   3517     1   0.15375 251793.120000
   3515   3535     1   0.14233 265014.560000
   3517   3518     1   0.15375 251793.120000
   3517   3524     1   0.14233 265014.560000
   3518   3519     1   0.15375 251793.120000
   3518   3537     1   0.14647 272713.120000
   3519   3523     1   0.14233 265014.560000
   3519   3532     1   0.14316 258236.480000
   3525   3530     1   0.14233 265014.560000
   3538   3539     1   0.15375 251793.120000
   3538   3549     1   0.15375 251793.120000
   3538   3556     1   0.14316 258236.480000
   3539   3541     1   0.15375 251793.120000
   3539   3559     1   0.14233 265014.560000
   3541   3542     1   0.15375 251793.120000
   3541   3548     1   0.14233 265014.560000
   3542   3543     1   0.15375 251793.120000
   3542   3561     1   0.14647 272713.120000
   3543   3547     1   0.14233 265014.560000
   3543   3556     1   0.14316 258236.480000
   3549   3554     1   0.14233 265014.560000
   3563   3565     1   0.14619 275056.160000
   3565   3567     1   0.15375 251793.120000
   3567   3571     1   0.15110 237065.440000
   3571   3572     1   0.15110 237065.440000
   3571   3573     1   0.15110 237065.440000
   3572   3583     1   0.15375 251793.120000
   3573   3575     1   0.15375 251793.120000
   3575   3579     1   0.15241 261918.400000
   3579   3580     1   0.12183 533627.360000
   3579   3611     1   0.13400 406935.840000
   3583   3586     1   0.15241 261918.400000
   3586   3587     1   0.12183 533627.360000
   3586   3635     1   0.13400 406935.840000
   3588   3589     1   0.15375 251793.120000
   3588   3599     1   0.15375 251793.120000
   3588   3606     1   0.14316 258236.480000
   3589   3591     1   0.15375 251793.120000
   3589   3609     1   0.14233 265014.560000
   3591   3592     1   0.15375 251793.120000
   3591   3598     1   0.14233 265014.560000
   3592   3593     1   0.15375 251793.120000
   3592   3611     1   0.14647 272713.120000
   3593   3597     1   0.14233 265014.560000
   3593   3606     1   0.14316 258236.480000
   3599   3604     1   0.14233 265014.560000
   3612   3613     1   0.15375 251793.120000
   3612   3623     1   0.15375 251793.120000
   3612   3630     1   0.14316 258236.480000
   3613   3615     1   0.15375 251793.120000
   3613   3633     1   0.14233 265014.560000
   3615   3616     1   0.15375 251793.120000
   3615   3622     1   0.14233 265014.560000
   3616   3617     1   0.15375 251793.120000
   3616   3635     1   0.14647 272713.120000
   3617   3621     1   0.14233 265014.560000
   3617   3630     1   0.14316 258236.480000
   3623   3628     1   0.14233 265014.560000
   3637   3639     1   0.14619 275056.160000
   3639   3641     1   0.15375 251793.120000
   3641   3645     1   0.15110 237065.440000
   3645   3646     1   0.15110 237065.440000
   3645   3647     1   0.15110 237065.440000
   3646   3657     1   0.15375 251793.120000
   3647   3649     1   0.15375 251793.120000
   3649   3653     1   0.15241 261918.400000
   3653   3654     1   0.12183 533627.360000
   3653   3685     1   0.13400 406935.840000
   3657   3660     1   0.15241 261918.400000
   3660   3661     1   0.12183 533627.360000
   3660   3709     1   0.13400 406935.840000
   3662   3663     1   0.15375 251793.120000
   3662   3673     1   0.15375 251793.120000
   3662   3680     1   0.14316 258236.480000
   3663   3665     1   0.15375 251793.120000
   3663   3683     1   0.14233 265014.560000
   3665   3666     1   0.15375 251793.120000
   3665   3672     1   0.14233 265014.560000
   3666   3667     1   0.15375 251793.120000
   3666   3685     1   0.14647 272713.120000
   3667   3671     1   0.14233 265014.560000
   3667   3680     1   0.14316 258236.480000
   3673   3678     1   0.14233 265014.560000
   3686   3687     1   0.15375 251793.120000
   3686   3697     1   0.15375 251793.120000
   3686   3704     1   0.14316 258236.480000
   3687   3689     1   0.15375 251793.120000
   3687   3707     1   0.14233 265014.560000
   3689   3690     1   0.15375 251793.120000
   3689   3696     1   0.14233 265014.560000
   3690   3691     1   0.15375 251793.120000
   3690   3709     1   0.14647 272713.120000
   3691   3695     1   0.14233 265014.560000
   3691   3704     1   0.14316 258236.480000
   3697   3702     1   0.14233 265014.560000
   3711   3713     1   0.14619 275056.160000
   3713   3715     1   0.15375 251793.120000
   3715   3719     1   0.15110 237065.440000
   3719   3720     1   0.15110 237065.440000
   3719   3721     1   0.15110 237065.440000
   3720   3731     1   0.15375 251793.120000
   3721   3723     1   0.15375 251793.120000
   3723   3727     1   0.15241 261918.400000
   3727   3728     1   0.12183 533627.360000
   3727   3759     1   0.13400 406935.840000
   3731   3734     1   0.15241 261918.400000
   3734   3735     1   0.12183 533627.360000
   3734   3783     1   0.13400 406935.840000
   3736   3737     1   0.15375 251793.120000
   3736   3747     1   0.15375 251793.120000
   3736   3754     1   0.14316 258236.480000
   3737   3739     1   0.15375 251793.120000
   3737   3757     1   0.14233 265014.560000
   3739   3740     1   0.15375 251793.120000
   3739   3746     1   0.14233 265014.560000
   3740   3741     1   0.15375 251793.120000
   3740   3759     1   0.14647 272713.120000
   3741   3745     1   0.14233 265014.560000
   3741   3754     1   0.14316 258236.480000
   3747   3752     1   0.14233 265014.560000
   3760   3761     1   0.15375 251793.120000
   3760   3771     1   0.15375 251793.120000
   3760   3778     1   0.14316 258236.480000
   3761   3763     1   0.15375 251793.120000
   3761   3781     1   0.14233 265014.560000
   3763   3764     1   0.15375 251793.120000
   3763   3770     1   0.14233 265014.560000
   3764   3765     1   0.15375 251793.120000
   3764   3783     1   0.14647 272713.120000
   3765   3769     1   0.14233 265014.560000
   3765   3778     1   0.14316 258236.480000
   3771   3776     1   0.14233 265014.560000
   3785   3787     1   0.14619 275056.160000
   3787   3789     1   0.15375 251793.120000
   3789   3793     1   0.15110 237065.440000
   3793   3794     1   0.15110 237065.440000
   3793   3795     1   0.15110 237065.440000
   3794   3805     1   0.15375 251793.120000
   3795   3797     1   0.15375 251793.120000
   3797   3801     1   0.15241 261918.400000
   3801   3802     1   0.12183 533627.360000
   3801   3833     1   0.13400 406935.840000
   3805   3808     1   0.15241 261918.400000
   3808   3809     1   0.12183 533627.360000
   3808   3857     1   0.13400 406935.840000
   3810   3811     1   0.15375 251793.120000
   3810   3821     1   0.15375 251793.120000
   3810   3828     1   0.14316 258236.480000
   3811   3813     1   0.15375 251793.120000
   3811   3831     1   0.14233 265014.560000
   3813   3814     1   0.15375 251793.120000
   3813   3820     1   0.14233 265014.560000
   3814   3815     1   0.15375 251793.120000
   3814   3833     1   0.14647 272713.120000
   3815   3819     1   0.14233 265014.560000
   3815   3828     1   0.14316 258236.480000
   3821   3826     1   0.14233 265014.560000
   3834   3835     1   0.15375 251793.120000
   3834   3845     1   0.15375 251793.120000
   3834   3852     1   0.14316 258236.480000
   3835   3837     1   0.15375 251793.120000
   3835   3855     1   0.14233 265014.560000
   3837   3838     1   0.15375 251793.120000
   3837   3844     1   0.14233 265014.560000
   3838   3839     1   0.15375 251793.120000
   3838   3857     1   0.14647 272713.120000
   3839   3843     1   0.14233 265014.560000
   3839   3852     1   0.14316 258236.480000
   3845   3850     1   0.14233 265014.560000
   3859   3861     1   0.14619 275056.160000
   3861   3863     1   0.15375 251793.120000
   3863   3867     1   0.15110 237065.440000
   3867   3868     1   0.15110 237065.440000
   3867   3869     1   0.15110 237065.440000
   3868   3879     1   0.15375 251793.120000
   3869   3871     1   0.15375 251793.120000
   3871   3875     1   0.15241 261918.400000
   3875   3876     1   0.12183 533627.360000
   3875   3907     1   0.13400 406935.840000
   3879   3882     1   0.15241 261918.400000
   3882   3883     1   0.12183 533627.360000
   3882   3931     1   0.13400 406935.840000
   3884   3885     1   0.15375 251793.120000
   3884   3895     1   0.15375 251793.120000
   3884   3902     1   0.14316 258236.480000
   3885   3887     1   0.15375 251793.120000
   3885   3905     1   0.14233 265014.560000
   3887   3888     1   0.15375 251793.120000
   3887   3894     1   0.14233 265014.560000
   3888   3889     1   0.15375 251793.120000
   3888   3907     1   0.14647 272713.120000
   3889   3893     1   0.14233 265014.560000
   3889   3902     1   0.14316 258236.480000
   3895   3900     1   0.14233 265014.560000
   3908   3909     1   0.15375 251793.120000
   3908   3919     1   0.15375 251793.120000
   3908   3926     1   0.14316 258236.480000
   3909   3911     1   0.15375 251793.120000
   3909   3929     1   0.14233 265014.560000
   3911   3912     1   0.15375 251793.120000
   3911   3918     1   0.14233 265014.560000
   3912   3913     1   0.15375 251793.120000
   3912   3931     1   0.14647 272713.120000
   3913   3917     1   0.14233 265014.560000
   3913   3926     1   0.14316 258236.480000
   3919   3924     1   0.14233 265014.560000
   3933   3935     1   0.14619 275056.160000
   3935   3937     1   0.15375 251793.120000
   3937   3941     1   0.15110 237065.440000
   3941   3942     1   0.15110 237065.440000
   3941   3943     1   0.15110 237065.440000
   3942   3953     1   0.15375 251793.120000
   3943   3945     1   0.15375 251793.120000
   3945   3949     1   0.15241 261918.400000
   3949   3950     1   0.12183 533627.360000
   3949   3981     1   0.13400 406935.840000
   3953   3956     1   0.15241 261918.400000
   3956   3957     1   0.12183 533627.360000
   3956   4005     1   0.13400 406935.840000
   3958   3959     1   0.15375 251793.120000
   3958   3969     1   0.15375 251793.120000
   3958   3976     1   0.14316 258236.480000
   3959   3961     1   0.15375 251793.120000
   3959   3979     1   0.14233 265014.560000
   3961   3962     1   0.15375 251793.120000
   3961   3968     1   0.14233 265014.560000
   3962   3963     1   0.15375 251793.120000
   3962   3981     1   0.14647 272713.120000
   3963   3967     1   0.14233 265014.560000
   3963   3976     1   0.14316 258236.480000
   3969   3974     1   0.14233 265014.560000
   3982   3983     1   0.15375 251793.120000
   3982   3993     1   0.15375 251793.120000
   3982   4000     1   0.14316 258236.480000
   3983   3985     1   0.15375 251793.120000
   3983   4003     1   0.14233 265014.560000
   3985   3986     1   0.15375 251793.120000
   3985   3992     1   0.14233 265014.560000
   3986   3987     1   0.15375 251793.120000
   3986   4005     1   0.14647 272713.120000
   3987   3991     1   0.14233 265014.560000
   3987   4000     1   0.14316 258236.480000
   3993   3998     1   0.14233 265014.560000
   4007   4009     1   0.14619 275056.160000
   4009   4011     1   0.15375 251793.120000
   4011   4015     1   0.15110 237065.440000
   4015   4016     1   0.15110 237065.440000
   4015   4017     1   0.15110 237065.440000
   4016   4027     1   0.15375 251793.120000
   4017   4019     1   0.15375 251793.120000
   4019   4023     1   0.15241 261918.400000
   4023   4024     1   0.12183 533627.360000
   4023   4055     1   0.13400 406935.840000
   4027   4030     1   0.15241 261918.400000
   4030   4031     1   0.12183 533627.360000
   4030   4079     1   0.13400 406935.840000
   4032   4033     1   0.15375 251793.120000
   4032   4043     1   0.15375 251793.120000
   4032   4050     1   0.14316 258236.480000
   4033   4035     1   0.15375 251793.120000
   4033   4053     1   0.14233 265014.560000
   4035   4036     1   0.15375 251793.120000
   4035   4042     1   0.14233 265014.560000
   4036   4037     1   0.15375 251793.120000
   4036   4055     1   0.14647 272713.120000
   4037   4041     1   0.14233 265014.560000
   4037   4050     1   0.14316 258236.480000
   4043   4048     1   0.14233 265014.560000
   4056   4057     1   0.15375 251793.120000
   4056   4067     1   0.15375 251793.120000
   4056   4074     1   0.14316 258236.480000
   4057   4059     1   0.15375 251793.120000
   4057   4077     1   0.14233 265014.560000
   4059   4060     1   0.15375 251793.120000
   4059   4066     1   0.14233 265014.560000
   4060   4061     1   0.15375 251793.120000
   4060   4079     1   0.14647 272713.120000
   4061   4065     1   0.14233 265014.560000
   4061   4074     1   0.14316 258236.480000
   4067   4072     1   0.14233 265014.560000
   4081   4083     1   0.14619 275056.160000
   4083   4085     1   0.15375 251793.120000
   4085   4089     1   0.15110 237065.440000
   4089   4090     1   0.15110 237065.440000
   4089   4091     1   0.15110 237065.440000
   4090   4101     1   0.15375 251793.120000
   4091   4093     1   0.15375 251793.120000
   4093   4097     1   0.15241 261918.400000
   4097   4098     1   0.12183 533627.360000
   4097   4129     1   0.13400 406935.840000
   4101   4104     1   0.15241 261918.400000
   4104   4105     1   0.12183 533627.360000
   4104   4153     1   0.13400 406935.840000
   4106   4107     1   0.15375 251793.120000
   4106   4117     1   0.15375 251793.120000
   4106   4124     1   0.14316 258236.480000
   4107   4109     1   0.15375 251793.120000
   4107   4127     1   0.14233 265014.560000
   4109   4110     1   0.15375 251793.120000
   4109   4116     1   0.14233 265014.560000
   4110   4111     1   0.15375 251793.120000
   4110   4129     1   0.14647 272713.120000
   4111   4115     1   0.14233 265014.560000
   4111   4124     1   0.14316 258236.480000
   4117   4122     1   0.14233 265014.560000
   4130   4131     1   0.15375 251793.120000
   4130   4141     1   0.15375 251793.120000
   4130   4148     1   0.14316 258236.480000
   4131   4133     1   0.15375 251793.120000
   4131   4151     1   0.14233 265014.560000
   4133   4134     1   0.15375 251793.120000
   4133   4140     1   0.14233 265014.560000
   4134   4135     1   0.15375 251793.120000
   4134   4153     1   0.14647 272713.120000
   4135   4139     1   0.14233 265014.560000
   4135   4148     1   0.14316 258236.480000
   4141   4146     1   0.14233 265014.560000
   4155   4157     1   0.14619 275056.160000
   4157   4159     1   0.15375 251793.120000
   4159   4163     1   0.15110 237065.440000
   4163   4164     1   0.15110 237065.440000
   4163   4165     1   0.15110 237065.440000
   4164   4175     1   0.15375 251793.120000
   4165   4167     1   0.15375 251793.120000
   4167   4171     1   0.15241 261918.400000
   4171   4172     1   0.12183 533627.360000
   4171   4203     1   0.13400 406935.840000
   4175   4178     1   0.15241 261918.400000
   4178   4179     1   0.12183 533627.360000
   4178   4227     1   0.13400 406935.840000
   4180   4181     1   0.15375 251793.120000
   4180   4191     1   0.15375 251793.120000
   4180   4198     1   0.14316 258236.480000
   4181   4183     1   0.15375 251793.120000
   4181   4201     1   0.14233 265014.560000
   4183   4184     1   0.15375 251793.120000
   4183   4190     1   0.14233 265014.560000
   4184   4185     1   0.15375 251793.120000
   4184   4203     1   0.14647 272713.120000
   4185   4189     1   0.14233 265014.560000
   4185   4198     1   0.14316 258236.480000
   4191   4196     1   0.14233 265014.560000
   4204   4205     1   0.15375 251793.120000
   4204   4215     1   0.15375 251793.120000
   4204   4222     1   0.14316 258236.480000
   4205   4207     1   0.15375 251793.120000
   4205   4225     1   0.14233 265014.560000
   4207   4208     1   0.15375 251793.120000
   4207   4214     1   0.14233 265014.560000
   4208   4209     1   0.15375 251793.120000
   4208   4227     1   0.14647 272713.120000
   4209   4213     1   0.14233 265014.560000
   4209   4222     1   0.14316 258236.480000
   4215   4220     1   0.14233 265014.560000
   4229   4231     1   0.14619 275056.160000
   4231   4233     1   0.15375 251793.120000
   4233   4237     1   0.15110 237065.440000
   4237   4238     1   0.15110 237065.440000
   4237   4239     1   0.15110 237065.440000
   4238   4249     1   0.15375 251793.120000
   4239   4241     1   0.15375 251793.120000
   4241   4245     1   0.15241 261918.400000
   4245   4246     1   0.12183 533627.360000
   4245   4277     1   0.13400 406935.840000
   4249   4252     1   0.15241 261918.400000
   4252   4253     1   0.12183 533627.360000
   4252   4301     1   0.13400 406935.840000
   4254   4255     1   0.15375 251793.120000
   4254   4265     1   0.15375 251793.120000
   4254   4272     1   0.14316 258236.480000
   4255   4257     1   0.15375 251793.120000
   4255   4275     1   0.14233 265014.560000
   4257   4258     1   0.15375 251793.120000
   4257   4264     1   0.14233 265014.560000
   4258   4259     1   0.15375 251793.120000
   4258   4277     1   0.14647 272713.120000
   4259   4263     1   0.14233 265014.560000
   4259   4272     1   0.14316 258236.480000
   4265   4270     1   0.14233 265014.560000
   4278   4279     1   0.15375 251793.120000
   4278   4289     1   0.15375 251793.120000
   4278   4296     1   0.14316 258236.480000
   4279   4281     1   0.15375 251793.120000
   4279   4299     1   0.14233 265014.560000
   4281   4282     1   0.15375 251793.120000
   4281   4288     1   0.14233 265014.560000
   4282   4283     1   0.15375 251793.120000
   4282   4301     1   0.14647 272713.120000
   4283   4287     1   0.14233 265014.560000
   4283   4296     1   0.14316 258236.480000
   4289   4294     1   0.14233 265014.560000
   4303   4305     1   0.14619 275056.160000
   4305   4307     1   0.15375 251793.120000
   4307   4311     1   0.15110 237065.440000
   4311   4312     1   0.15110 237065.440000
   4311   4313     1   0.15110 237065.440000
   4312   4323     1   0.15375 251793.120000
   4313   4315     1   0.15375 251793.120000
   4315   4319     1   0.15241 261918.400000
   4319   4320     1   0.12183 533627.360000
   4319   4351     1   0.13400 406935.840000
   4323   4326     1   0.15241 261918.400000
   4326   4327     1   0.12183 533627.360000
   4326   4375     1   0.13400 406935.840000
   4328   4329     1   0.15375 251793.120000
   4328   4339     1   0.15375 251793.120000
   4328   4346     1   0.14316 258236.480000
   4329   4331     1   0.15375 251793.120000
   4329   4349     1   0.14233 265014.560000
   4331   4332     1   0.15375 251793.120000
   4331   4338     1   0.14233 265014.560000
   4332   4333     1   0.15375 251793.120000
   4332   4351     1   0.14647 272713.120000
   4333   4337     1   0.14233 265014.560000
   4333   4346     1   0.14316 258236.480000
   4339   4344     1   0.14233 265014.560000
   4352   4353     1   0.15375 251793.120000
   4352   4363     1   0.15375 251793.120000
   4352   4370     1   0.14316 258236.480000
   4353   4355     1   0.15375 251793.120000
   4353   4373     1   0.14233 265014.560000
   4355   4356     1   0.15375 251793.120000
   4355   4362     1   0.14233 265014.560000
   4356   4357     1   0.15375 251793.120000
   4356   4375     1   0.14647 272713.120000
   4357   4361     1   0.14233 265014.560000
   4357   4370     1   0.14316 258236.480000
   4363   4368     1   0.14233 265014.560000
   4377   4379     1   0.14619 275056.160000
   4379   4381     1   0.15375 251793.120000
   4381   4385     1   0.15110 237065.440000
   4385   4386     1   0.15110 237065.440000
   4385   4387     1   0.15110 237065.440000
   4386   4397     1   0.15375 251793.120000
   4387   4389     1   0.15375 251793.120000
   4389   4393     1   0.15241 261918.400000
   4393   4394     1   0.12183 533627.360000
   4393   4425     1   0.13400 406935.840000
   4397   4400     1   0.15241 261918.400000
   4400   4401     1   0.12183 533627.360000
   4400   4449     1   0.13400 406935.840000
   4402   4403     1   0.15375 251793.120000
   4402   4413     1   0.15375 251793.120000
   4402   4420     1   0.14316 258236.480000
   4403   4405     1   0.15375 251793.120000
   4403   4423     1   0.14233 265014.560000
   4405   4406     1   0.15375 251793.120000
   4405   4412     1   0.14233 265014.560000
   4406   4407     1   0.15375 251793.120000
   4406   4425     1   0.14647 272713.120000
   4407   4411     1   0.14233 265014.560000
   4407   4420     1   0.14316 258236.480000
   4413   4418     1   0.14233 265014.560000
   4426   4427     1   0.15375 251793.120000
   4426   4437     1   0.15375 251793.120000
   4426   4444     1   0.14316 258236.480000
   4427   4429     1   0.15375 251793.120000
   4427   4447     1   0.14233 265014.560000
   4429   4430     1   0.15375 251793.120000
   4429   4436     1   0.14233 265014.560000
   4430   4431     1   0.15375 251793.120000
   4430   4449     1   0.14647 272713.120000
   4431   4435     1   0.14233 265014.560000
   4431   4444     1   0.14316 258236.480000
   4437   4442     1   0.14233 265014.560000
   4451   4453     1   0.14619 275056.160000
   4453   4455     1   0.15375 251793.120000
   4455   4459     1   0.15110 237065.440000
   4459   4460     1   0.15110 237065.440000
   4459   4461     1   0.15110 237065.440000
   4460   4471     1   0.15375 251793.120000
   4461   4463     1   0.15375 251793.120000
   4463   4467     1   0.15241 261918.400000
   4467   4468     1   0.12183 533627.360000
   4467   4499     1   0.13400 406935.840000
   4471   4474     1   0.15241 261918.400000
   4474   4475     1   0.12183 533627.360000
   4474   4523     1   0.13400 406935.840000
   4476   4477     1   0.15375 251793.120000
   4476   4487     1   0.15375 251793.120000
   4476   4494     1   0.14316 258236.480000
   4477   4479     1   0.15375 251793.120000
   4477   4497     1   0.14233 265014.560000
   4479   4480     1   0.15375 251793.120000
   4479   4486     1   0.14233 265014.560000
   4480   4481     1   0.15375 251793.120000
   4480   4499     1   0.14647 272713.120000
   4481   4485     1   0.14233 265014.560000
   4481   4494     1   0.14316 258236.480000
   4487   4492     1   0.14233 265014.560000
   4500   4501     1   0.15375 251793.120000
   4500   4511     1   0.15375 251793.120000
   4500   4518     1   0.14316 258236.480000
   4501   4503     1   0.15375 251793.120000
   4501   4521     1   0.14233 265014.560000
   4503   4504     1   0.15375 251793.120000
   4503   4510     1   0.14233 265014.560000
   4504   4505     1   0.15375 251793.120000
   4504   4523     1   0.14647 272713.120000
   4505   4509     1   0.14233 265014.560000
   4505   4518     1   0.14316 258236.480000
   4511   4516     1   0.14233 265014.560000
   4525   4527     1   0.14619 275056.160000
   4527   4529     1   0.15375 251793.120000
   4529   4533     1   0.15110 237065.440000
   4533   4534     1   0.15110 237065.440000
   4533   4535     1   0.15110 237065.440000
   4534   4545     1   0.15375 251793.120000
   4535   4537     1   0.15375 251793.120000
   4537   4541     1   0.15241 261918.400000
   4541   4542     1   0.12183 533627.360000
   4541   4573     1   0.13400 406935.840000
   4545   4548     1   0.15241 261918.400000
   4548   4549     1   0.12183 533627.360000
   4548   4597     1   0.13400 406935.840000
   4550   4551     1   0.15375 251793.120000
   4550   4561     1   0.15375 251793.120000
   4550   4568     1   0.14316 258236.480000
   4551   4553     1   0.15375 251793.120000
   4551   4571     1   0.14233 265014.560000
   4553   4554     1   0.15375 251793.120000
   4553   4560     1   0.14233 265014.560000
   4554   4555     1   0.15375 251793.120000
   4554   4573     1   0.14647 272713.120000
   4555   4559     1   0.14233 265014.560000
   4555   4568     1   0.14316 258236.480000
   4561   4566     1   0.14233 265014.560000
   4574   4575     1   0.15375 251793.120000
   4574   4585     1   0.15375 251793.120000
   4574   4592     1   0.14316 258236.480000
   4575   4577     1   0.15375 251793.120000
   4575   4595     1   0.14233 265014.560000
   4577   4578     1   0.15375 251793.120000
   4577   4584     1   0.14233 265014.560000
   4578   4579     1   0.15375 251793.120000
   4578   4597     1   0.14647 272713.120000
   4579   4583     1   0.14233 265014.560000
   4579   4592     1   0.14316 258236.480000
   4585   4590     1   0.14233 265014.560000
   4599   4601     1   0.14619 275056.160000
   4601   4603     1   0.15375 251793.120000
   4603   4607     1   0.15110 237065.440000
   4607   4608     1   0.15110 237065.440000
   4607   4609     1   0.15110 237065.440000
   4608   4619     1   0.15375 251793.120000
   4609   4611     1   0.15375 251793.120000
   4611   4615     1   0.15241 261918.400000
   4615   4616     1   0.12183 533627.360000
   4615   4647     1   0.13400 406935.840000
   4619   4622     1   0.15241 261918.400000
   4622   4623     1   0.12183 533627.360000
   4622   4671     1   0.13400 406935.840000
   4624   4625     1   0.15375 251793.120000
   4624   4635     1   0.15375 251793.120000
   4624   4642     1   0.14316 258236.480000
   4625   4627     1   0.15375 251793.120000
   4625   4645     1   0.14233 265014.560000
   4627   4628     1   0.15375 251793.120000
   4627   4634     1   0.14233 265014.560000
   4628   4629     1   0.15375 251793.120000
   4628   4647     1   0.14647 272713.120000
   4629   4633     1   0.14233 265014.560000
   4629   4642     1   0.14316 258236.480000
   4635   4640     1   0.14233 265014.560000
   4648   4649     1   0.15375 251793.120000
   4648   4659     1   0.15375 251793.120000
   4648   4666     1   0.14316 258236.480000
   4649   4651     1   0.15375 251793.120000
   4649   4669     1   0.14233 265014.560000
   4651   4652     1   0.15375 251793.120000
   4651   4658     1   0.14233 265014.560000
   4652   4653     1   0.15375 251793.120000
   4652   4671     1   0.14647 272713.120000
   4653   4657     1   0.14233 265014.560000
   4653   4666     1   0.14316 258236.480000
   4659   4664     1   0.14233 265014.560000
   4673   4675     1   0.14619 275056.160000
   4675   4677     1   0.15375 251793.120000
   4677   4681     1   0.15110 237065.440000
   4681   4682     1   0.15110 237065.440000
   4681   4683     1   0.15110 237065.440000
   4682   4693     1   0.15375 251793.120000
   4683   4685     1   0.15375 251793.120000
   4685   4689     1   0.15241 261918.400000
   4689   4690     1   0.12183 533627.360000
   4689   4721     1   0.13400 406935.840000
   4693   4696     1   0.15241 261918.400000
   4696   4697     1   0.12183 533627.360000
   4696   4745     1   0.13400 406935.840000
   4698   4699     1   0.15375 251793.120000
   4698   4709     1   0.15375 251793.120000
   4698   4716     1   0.14316 258236.480000
   4699   4701     1   0.15375 251793.120000
   4699   4719     1   0.14233 265014.560000
   4701   4702     1   0.15375 251793.120000
   4701   4708     1   0.14233 265014.560000
   4702   4703     1   0.15375 251793.120000
   4702   4721     1   0.14647 272713.120000
   4703   4707     1   0.14233 265014.560000
   4703   4716     1   0.14316 258236.480000
   4709   4714     1   0.14233 265014.560000
   4722   4723     1   0.15375 251793.120000
   4722   4733     1   0.15375 251793.120000
   4722   4740     1   0.14316 258236.480000
   4723   4725     1   0.15375 251793.120000
   4723   4743     1   0.14233 265014.560000
   4725   4726     1   0.15375 251793.120000
   4725   4732     1   0.14233 265014.560000
   4726   4727     1   0.15375 251793.120000
   4726   4745     1   0.14647 272713.120000
   4727   4731     1   0.14233 265014.560000
   4727   4740     1   0.14316 258236.480000
   4733   4738     1   0.14233 265014.560000
   4747   4749     1   0.14619 275056.160000
   4749   4751     1   0.15375 251793.120000
   4751   4755     1   0.15110 237065.440000
   4755   4756     1   0.15110 237065.440000
   4755   4757     1   0.15110 237065.440000
   4756   4767     1   0.15375 251793.120000
   4757   4759     1   0.15375 251793.120000
   4759   4763     1   0.15241 261918.400000
   4763   4764     1   0.12183 533627.360000
   4763   4795     1   0.13400 406935.840000
   4767   4770     1   0.15241 261918.400000
   4770   4771     1   0.12183 533627.360000
   4770   4819     1   0.13400 406935.840000
   4772   4773     1   0.15375 251793.120000
   4772   4783     1   0.15375 251793.120000
   4772   4790     1   0.14316 258236.480000
   4773   4775     1   0.15375 251793.120000
   4773   4793     1   0.14233 265014.560000
   4775   4776     1   0.15375 251793.120000
   4775   4782     1   0.14233 265014.560000
   4776   4777     1   0.15375 251793.120000
   4776   4795     1   0.14647 272713.120000
   4777   4781     1   0.14233 265014.560000
   4777   4790     1   0.14316 258236.480000
   4783   4788     1   0.14233 265014.560000
   4796   4797     1   0.15375 251793.120000
   4796   4807     1   0.15375 251793.120000
   4796   4814     1   0.14316 258236.480000
   4797   4799     1   0.15375 251793.120000
   4797   4817     1   0.14233 265014.560000
   4799   4800     1   0.15375 251793.120000
   4799   4806     1   0.14233 265014.560000
   4800   4801     1   0.15375 251793.120000
   4800   4819     1   0.14647 272713.120000
   4801   4805     1   0.14233 265014.560000
   4801   4814     1   0.14316 258236.480000
   4807   4812     1   0.14233 265014.560000
   4821   4823     1   0.14619 275056.160000
   4823   4825     1   0.15375 251793.120000
   4825   4829     1   0.15110 237065.440000
   4829   4830     1   0.15110 237065.440000
   4829   4831     1   0.15110 237065.440000
   4830   4841     1   0.15375 251793.120000
   4831   4833     1   0.15375 251793.120000
   4833   4837     1   0.15241 261918.400000
   4837   4838     1   0.12183 533627.360000
   4837   4869     1   0.13400 406935.840000
   4841   4844     1   0.15241 261918.400000
   4844   4845     1   0.12183 533627.360000
   4844   4893     1   0.13400 406935.840000
   4846   4847     1   0.15375 251793.120000
   4846   4857     1   0.15375 251793.120000
   4846   4864     1   0.14316 258236.480000
   4847   4849     1   0.15375 251793.120000
   4847   4867     1   0.14233 265014.560000
   4849   4850     1   0.15375 251793.120000
   4849   4856     1   0.14233 265014.560000
   4850   4851     1   0.15375 251793.120000
   4850   4869     1   0.14647 272713.120000
   4851   4855     1   0.14233 265014.560000
   4851   4864     1   0.14316 258236.480000
   4857   4862     1   0.14233 265014.560000
   4870   4871     1   0.15375 251793.120000
   4870   4881     1   0.15375 251793.120000
   4870   4888     1   0.14316 258236.480000
   4871   4873     1   0.15375 251793.120000
   4871   4891     1   0.14233 265014.560000
   4873   4874     1   0.15375 251793.120000
   4873   4880     1   0.14233 265014.560000
   4874   4875     1   0.15375 251793.120000
   4874   4893     1   0.14647 272713.120000
   4875   4879     1   0.14233 265014.560000
   4875   4888     1   0.14316 258236.480000
   4881   4886     1   0.14233 265014.560000
   4895   4897     1   0.14619 275056.160000
   4897   4899     1   0.15375 251793.120000
   4899   4903     1   0.15110 237065.440000
   4903   4904     1   0.15110 237065.440000
   4903   4905     1   0.15110 237065.440000
   4904   4915     1   0.15375 251793.120000
   4905   4907     1   0.15375 251793.120000
   4907   4911     1   0.15241 261918.400000
   4911   4912     1   0.12183 533627.360000
   4911   4943     1   0.13400 406935.840000
   4915   4918     1   0.15241 261918.400000
   4918   4919     1   0.12183 533627.360000
   4918   4967     1   0.13400 406935.840000
   4920   4921     1   0.15375 251793.120000
   4920   4931     1   0.15375 251793.120000
   4920   4938     1   0.14316 258236.480000
   4921   4923     1   0.15375 251793.120000
   4921   4941     1   0.14233 265014.560000
   4923   4924     1   0.15375 251793.120000
   4923   4930     1   0.14233 265014.560000
   4924   4925     1   0.15375 251793.120000
   4924   4943     1   0.14647 272713.120000
   4925   4929     1   0.14233 265014.560000
   4925   4938     1   0.14316 258236.480000
   4931   4936     1   0.14233 265014.560000
   4944   4945     1   0.15375 251793.120000
   4944   4955     1   0.15375 251793.120000
   4944   4962     1   0.14316 258236.480000
   4945   4947     1   0.15375 251793.120000
   4945   4965     1   0.14233 265014.560000
   4947   4948     1   0.15375 251793.120000
   4947   4954     1   0.14233 265014.560000
   4948   4949     1   0.15375 251793.120000
   4948   4967     1   0.14647 272713.120000
   4949   4953     1   0.14233 265014.560000
   4949   4962     1   0.14316 258236.480000
   4955   4960     1   0.14233 265014.560000
   4969   4971     1   0.14619 275056.160000
   4971   4973     1   0.15375 251793.120000
   4973   4977     1   0.15110 237065.440000
   4977   4978     1   0.15110 237065.440000
   4977   4979     1   0.15110 237065.440000
   4978   4989     1   0.15375 251793.120000
   4979   4981     1   0.15375 251793.120000
   4981   4985     1   0.15241 261918.400000
   4985   4986     1   0.12183 533627.360000
   4985   5017     1   0.13400 406935.840000
   4989   4992     1   0.15241 261918.400000
   4992   4993     1   0.12183 533627.360000
   4992   5041     1   0.13400 406935.840000
   4994   4995     1   0.15375 251793.120000
   4994   5005     1   0.15375 251793.120000
   4994   5012     1   0.14316 258236.480000
   4995   4997     1   0.15375 251793.120000
   4995   5015     1   0.14233 265014.560000
   4997   4998     1   0.15375 251793.120000
   4997   5004     1   0.14233 265014.560000
   4998   4999     1   0.15375 251793.120000
   4998   5017     1   0.14647 272713.120000
   4999   5003     1   0.14233 265014.560000
   4999   5012     1   0.14316 258236.480000
   5005   5010     1   0.14233 265014.560000
   5018   5019     1   0.15375 251793.120000
   5018   5029     1   0.15375 251793.120000
   5018   5036     1   0.14316 258236.480000
   5019   5021     1   0.15375 251793.120000
   5019   5039     1   0.14233 265014.560000
   5021   5022     1   0.15375 251793.120000
   5021   5028     1   0.14233 265014.560000
   5022   5023     1   0.15375 251793.120000
   5022   5041     1   0.14647 272713.120000
   5023   5027     1   0.14233 265014.560000
   5023   5036     1   0.14316 258236.480000
   5029   5034     1   0.14233 265014.560000
   5043   5045     1   0.14619 275056.160000
   5045   5047     1   0.15375 251793.120000
   5047   5051     1   0.15110 237065.440000
   5051   5052     1   0.15110 237065.440000
   5051   5053     1   0.15110 237065.440000
   5052   5063     1   0.15375 251793.120000
   5053   5055     1   0.15375 251793.120000
   5055   5059     1   0.15241 261918.400000
   5059   5060     1   0.12183 533627.360000
   5059   5091     1   0.13400 406935.840000
   5063   5066     1   0.15241 261918.400000
   5066   5067     1   0.12183 533627.360000
   5066   5115     1   0.13400 406935.840000
   5068   5069     1   0.15375 251793.120000
   5068   5079     1   0.15375 251793.120000
   5068   5086     1   0.14316 258236.480000
   5069   5071     1   0.15375 251793.120000
   5069   5089     1   0.14233 265014.560000
   5071   5072     1   0.15375 251793.120000
   5071   5078     1   0.14233 265014.560000
   5072   5073     1   0.15375 251793.120000
   5072   5091     1   0.14647 272713.120000
   5073   5077     1   0.14233 265014.560000
   5073   5086     1   0.14316 258236.480000
   5079   5084     1   0.14233 265014.560000
   5092   5093     1   0.15375 251793.120000
   5092   5103     1   0.15375 251793.120000
   5092   5110     1   0.14316 258236.480000
   5093   5095     1   0.15375 251793.120000
   5093   5113     1   0.14233 265014.560000
   5095   5096     1   0.15375 251793.120000
   5095   5102     1   0.14233 265014.560000
   5096   5097     1   0.15375 251793.120000
   5096   5115     1   0.14647 272713.120000
   5097   5101     1   0.14233 265014.560000
   5097   5110     1   0.14316 258236.480000
   5103   5108     1   0.14233 265014.560000
   5117   5119     1   0.14619 275056.160000
   5119   5121     1   0.15375 251793.120000
   5121   5125     1   0.15110 237065.440000
   5125   5126     1   0.15110 237065.440000
   5125   5127     1   0.15110 237065.440000
   5126   5137     1   0.15375 251793.120000
   5127   5129     1   0.15375 251793.120000
   5129   5133     1   0.15241 261918.400000
   5133   5134     1   0.12183 533627.360000
   5133   5165     1   0.13400 406935.840000
   5137   5140     1   0.15241 261918.400000
   5140   5141     1   0.12183 533627.360000
   5140   5189     1   0.13400 406935.840000
   5142   5143     1   0.15375 251793.120000
   5142   5153     1   0.15375 251793.120000
   5142   5160     1   0.14316 258236.480000
   5143   5145     1   0.15375 251793.120000
   5143   5163     1   0.14233 265014.560000
   5145   5146     1   0.15375 251793.120000
   5145   5152     1   0.14233 265014.560000
   5146   5147     1   0.15375 251793.120000
   5146   5165     1   0.14647 272713.120000
   5147   5151     1   0.14233 265014.560000
   5147   5160     1   0.14316 258236.480000
   5153   5158     1   0.14233 265014.560000
   5166   5167     1   0.15375 251793.120000
   5166   5177     1   0.15375 251793.120000
   5166   5184     1   0.14316 258236.480000
   5167   5169     1   0.15375 251793.120000
   5167   5187     1   0.14233 265014.560000
   5169   5170     1   0.15375 251793.120000
   5169   5176     1   0.14233 265014.560000
   5170   5171     1   0.15375 251793.120000
   5170   5189     1   0.14647 272713.120000
   5171   5175     1   0.14233 265014.560000
   5171   5184     1   0.14316 258236.480000
   5177   5182     1   0.14233 265014.560000
   5191   5193     1   0.14619 275056.160000
   5193   5195     1   0.15375 251793.120000
   5195   5199     1   0.15110 237065.440000
   5199   5200     1   0.15110 237065.440000
   5199   5201     1   0.15110 237065.440000
   5200   5211     1   0.15375 251793.120000
   5201   5203     1   0.15375 251793.120000
   5203   5207     1   0.15241 261918.400000
   5207   5208     1   0.12183 533627.360000
   5207   5239     1   0.13400 406935.840000
   5211   5214     1   0.15241 261918.400000
   5214   5215     1   0.12183 533627.360000
   5214   5263     1   0.13400 406935.840000
   5216   5217     1   0.15375 251793.120000
   5216   5227     1   0.15375 251793.120000
   5216   5234     1   0.14316 258236.480000
   5217   5219     1   0.15375 251793.120000
   5217   5237     1   0.14233 265014.560000
   5219   5220     1   0.15375 251793.120000
   5219   5226     1   0.14233 265014.560000
   5220   5221     1   0.15375 251793.120000
   5220   5239     1   0.14647 272713.120000
   5221   5225     1   0.14233 265014.560000
   5221   5234     1   0.14316 258236.480000
   5227   5232     1   0.14233 265014.560000
   5240   5241     1   0.15375 251793.120000
   5240   5251     1   0.15375 251793.120000
   5240   5258     1   0.14316 258236.480000
   5241   5243     1   0.15375 251793.120000
   5241   5261     1   0.14233 265014.560000
   5243   5244     1   0.15375 251793.120000
   5243   5250     1   0.14233 265014.560000
   5244   5245     1   0.15375 251793.120000
   5244   5263     1   0.14647 272713.120000
   5245   5249     1   0.14233 265014.560000
   5245   5258     1   0.14316 258236.480000
   5251   5256     1   0.14233 265014.560000
   5265   5267     1   0.14619 275056.160000
   5267   5269     1   0.15375 251793.120000
   5269   5273     1   0.15110 237065.440000
   5273   5274     1   0.15110 237065.440000
   5273   5275     1   0.15110 237065.440000
   5274   5285     1   0.15375 251793.120000
   5275   5277     1   0.15375 251793.120000
   5277   5281     1   0.15241 261918.400000
   5281   5282     1   0.12183 533627.360000
   5281   5313     1   0.13400 406935.840000
   5285   5288     1   0.15241 261918.400000
   5288   5289     1   0.12183 533627.360000
   5288   5337     1   0.13400 406935.840000
   5290   5291     1   0.15375 251793.120000
   5290   5301     1   0.15375 251793.120000
   5290   5308     1   0.14316 258236.480000
   5291   5293     1   0.15375 251793.120000
   5291   5311     1   0.14233 265014.560000
   5293   5294     1   0.15375 251793.120000
   5293   5300     1   0.14233 265014.560000
   5294   5295     1   0.15375 251793.120000
   5294   5313     1   0.14647 272713.120000
   5295   5299     1   0.14233 265014.560000
   5295   5308     1   0.14316 258236.480000
   5301   5306     1   0.14233 265014.560000
   5314   5315     1   0.15375 251793.120000
   5314   5325     1   0.15375 251793.120000
   5314   5332     1   0.14316 258236.480000
   5315   5317     1   0.15375 251793.120000
   5315   5335     1   0.14233 265014.560000
   5317   5318     1   0.15375 251793.120000
   5317   5324     1   0.14233 265014.560000
   5318   5319     1   0.15375 251793.120000
   5318   5337     1   0.14647 272713.120000
   5319   5323     1   0.14233 265014.560000
   5319   5332     1   0.14316 258236.480000
   5325   5330     1   0.14233 265014.560000
   5339   5341     1   0.14619 275056.160000
   5341   5343     1   0.15375 251793.120000
   5343   5347     1   0.15110 237065.440000
   5347   5348     1   0.15110 237065.440000
   5347   5349     1   0.15110 237065.440000
   5348   5359     1   0.15375 251793.120000
   5349   5351     1   0.15375 251793.120000
   5351   5355     1   0.15241 261918.400000
   5355   5356     1   0.12183 533627.360000
   5355   5387     1   0.13400 406935.840000
   5359   5362     1   0.15241 261918.400000
   5362   5363     1   0.12183 533627.360000
   5362   5411     1   0.13400 406935.840000
   5364   5365     1   0.15375 251793.120000
   5364   5375     1   0.15375 251793.120000
   5364   5382     1   0.14316 258236.480000
   5365   5367     1   0.15375 251793.120000
   5365   5385     1   0.14233 265014.560000
   5367   5368     1   0.15375 251793.120000
   5367   5374     1   0.14233 265014.560000
   5368   5369     1   0.15375 251793.120000
   5368   5387     1   0.14647 272713.120000
   5369   5373     1   0.14233 265014.560000
   5369   5382     1   0.14316 258236.480000
   5375   5380     1   0.14233 265014.560000
   5388   5389     1   0.15375 251793.120000
   5388   5399     1   0.15375 251793.120000
   5388   5406     1   0.14316 258236.480000
   5389   5391     1   0.15375 251793.120000
   5389   5409     1   0.14233 265014.560000
   5391   5392     1   0.15375 251793.120000
   5391   5398     1   0.14233 265014.560000
   5392   5393     1   0.15375 251793.120000
   5392   5411     1   0.14647 272713.120000
   5393   5397     1   0.14233 265014.560000
   5393   5406     1   0.14316 258236.480000
   5399   5404     1   0.14233 265014.560000
   5413   5415     1   0.14619 275056.160000
   5415   5417     1   0.15375 251793.120000
   5417   5421     1   0.15110 237065.440000
   5421   5422     1   0.15110 237065.440000
   5421   5423     1   0.15110 237065.440000
   5422   5433     1   0.15375 251793.120000
   5423   5425     1   0.15375 251793.120000
   5425   5429     1   0.15241 261918.400000
   5429   5430     1   0.12183 533627.360000
   5429   5461     1   0.13400 406935.840000
   5433   5436     1   0.15241 261918.400000
   5436   5437     1   0.12183 533627.360000
   5436   5485     1   0.13400 406935.840000
   5438   5439     1   0.15375 251793.120000
   5438   5449     1   0.15375 251793.120000
   5438   5456     1   0.14316 258236.480000
   5439   5441     1   0.15375 251793.120000
   5439   5459     1   0.14233 265014.560000
   5441   5442     1   0.15375 251793.120000
   5441   5448     1   0.14233 265014.560000
   5442   5443     1   0.15375 251793.120000
   5442   5461     1   0.14647 272713.120000
   5443   5447     1   0.14233 265014.560000
   5443   5456     1   0.14316 258236.480000
   5449   5454     1   0.14233 265014.560000
   5462   5463     1   0.15375 251793.120000
   5462   5473     1   0.15375 251793.120000
   5462   5480     1   0.14316 258236.480000
   5463   5465     1   0.15375 251793.120000
   5463   5483     1   0.14233 265014.560000
   5465   5466     1   0.15375 251793.120000
   5465   5472     1   0.14233 265014.560000
   5466   5467     1   0.15375 251793.120000
   5466   5485     1   0.14647 272713.120000
   5467   5471     1   0.14233 265014.560000
   5467   5480     1   0.14316 258236.480000
   5473   5478     1   0.14233 265014.560000
   5487   5489     1   0.14619 275056.160000
   5489   5491     1   0.15375 251793.120000
   5491   5495     1   0.15110 237065.440000
   5495   5496     1   0.15110 237065.440000
   5495   5497     1   0.15110 237065.440000
   5496   5507     1   0.15375 251793.120000
   5497   5499     1   0.15375 251793.120000
   5499   5503     1   0.15241 261918.400000
   5503   5504     1   0.12183 533627.360000
   5503   5535     1   0.13400 406935.840000
   5507   5510     1   0.15241 261918.400000
   5510   5511     1   0.12183 533627.360000
   5510   5559     1   0.13400 406935.840000
   5512   5513     1   0.15375 251793.120000
   5512   5523     1   0.15375 251793.120000
   5512   5530     1   0.14316 258236.480000
   5513   5515     1   0.15375 251793.120000
   5513   5533     1   0.14233 265014.560000
   5515   5516     1   0.15375 251793.120000
   5515   5522     1   0.14233 265014.560000
   5516   5517     1   0.15375 251793.120000
   5516   5535     1   0.14647 272713.120000
   5517   5521     1   0.14233 265014.560000
   5517   5530     1   0.14316 258236.480000
   5523   5528     1   0.14233 265014.560000
   5536   5537     1   0.15375 251793.120000
   5536   5547     1   0.15375 251793.120000
   5536   5554     1   0.14316 258236.480000
   5537   5539     1   0.15375 251793.120000
   5537   5557     1   0.14233 265014.560000
   5539   5540     1   0.15375 251793.120000
   5539   5546     1   0.14233 265014.560000
   5540   5541     1   0.15375 251793.120000
   5540   5559     1   0.14647 272713.120000
   5541   5545     1   0.14233 265014.560000
   5541   5554     1   0.14316 258236.480000
   5547   5552     1   0.14233 265014.560000
   5561   5563     1   0.14619 275056.160000
   5563   5565     1   0.15375 251793.120000
   5565   5569     1   0.15110 237065.440000
   5569   5570     1   0.15110 237065.440000
   5569   5571     1   0.15110 237065.440000
   5570   5581     1   0.15375 251793.120000
   5571   5573     1   0.15375 251793.120000
   5573   5577     1   0.15241 261918.400000
   5577   5578     1   0.12183 533627.360000
   5577   5609     1   0.13400 406935.840000
   5581   5584     1   0.15241 261918.400000
   5584   5585     1   0.12183 533627.360000
   5584   5633     1   0.13400 406935.840000
   5586   5587     1   0.15375 251793.120000
   5586   5597     1   0.15375 251793.120000
   5586   5604     1   0.14316 258236.480000
   5587   5589     1   0.15375 251793.120000
   5587   5607     1   0.14233 265014.560000
   5589   5590     1   0.15375 251793.120000
   5589   5596     1   0.14233 265014.560000
   5590   5591     1   0.15375 251793.120000
   5590   5609     1   0.14647 272713.120000
   5591   5595     1   0.14233 265014.560000
   5591   5604     1   0.14316 258236.480000
   5597   5602     1   0.14233 265014.560000
   5610   5611     1   0.15375 251793.120000
   5610   5621     1   0.15375 251793.120000
   5610   5628     1   0.14316 258236.480000
   5611   5613     1   0.15375 251793.120000
   5611   5631     1   0.14233 265014.560000
   5613   5614     1   0.15375 251793.120000
   5613   5620     1   0.14233 265014.560000
   5614   5615     1   0.15375 251793.120000
   5614   5633     1   0.14647 272713.120000
   5615   5619     1   0.14233 265014.560000
   5615   5628     1   0.14316 258236.480000
   5621   5626     1   0.14233 265014.560000
   5635   5637     1   0.14619 275056.160000
   5637   5639     1   0.15375 251793.120000
   5639   5643     1   0.15110 237065.440000
   5643   5644     1   0.15110 237065.440000
   5643   5645     1   0.15110 237065.440000
   5644   5655     1   0.15375 251793.120000
   5645   5647     1   0.15375 251793.120000
   5647   5651     1   0.15241 261918.400000
   5651   5652     1   0.12183 533627.360000
   5651   5683     1   0.13400 406935.840000
   5655   5658     1   0.15241 261918.400000
   5658   5659     1   0.12183 533627.360000
   5658   5707     1   0.13400 406935.840000
   5660   5661     1   0.15375 251793.120000
   5660   5671     1   0.15375 251793.120000
   5660   5678     1   0.14316 258236.480000
   5661   5663     1   0.15375 251793.120000
   5661   5681     1   0.14233 265014.560000
   5663   5664     1   0.15375 251793.120000
   5663   5670     1   0.14233 265014.560000
   5664   5665     1   0.15375 251793.120000
   5664   5683     1   0.14647 272713.120000
   5665   5669     1   0.14233 265014.560000
   5665   5678     1   0.14316 258236.480000
   5671   5676     1   0.14233 265014.560000
   5684   5685     1   0.15375 251793.120000
   5684   5695     1   0.15375 251793.120000
   5684   5702     1   0.14316 258236.480000
   5685   5687     1   0.15375 251793.120000
   5685   5705     1   0.14233 265014.560000
   5687   5688     1   0.15375 251793.120000
   5687   5694     1   0.14233 265014.560000
   5688   5689     1   0.15375 251793.120000
   5688   5707     1   0.14647 272713.120000
   5689   5693     1   0.14233 265014.560000
   5689   5702     1   0.14316 258236.480000
   5695   5700     1   0.14233 265014.560000
   5709   5711     1   0.14619 275056.160000
   5711   5713     1   0.15375 251793.120000
   5713   5717     1   0.15110 237065.440000
   5717   5718     1   0.15110 237065.440000
   5717   5719     1   0.15110 237065.440000
   5718   5729     1   0.15375 251793.120000
   5719   5721     1   0.15375 251793.120000
   5721   5725     1   0.15241 261918.400000
   5725   5726     1   0.12183 533627.360000
   5725   5757     1   0.13400 406935.840000
   5729   5732     1   0.15241 261918.400000
   5732   5733     1   0.12183 533627.360000
   5732   5781     1   0.13400 406935.840000
   5734   5735     1   0.15375 251793.120000
   5734   5745     1   0.15375 251793.120000
   5734   5752     1   0.14316 258236.480000
   5735   5737     1   0.15375 251793.120000
   5735   5755     1   0.14233 265014.560000
   5737   5738     1   0.15375 251793.120000
   5737   5744     1   0.14233 265014.560000
   5738   5739     1   0.15375 251793.120000
   5738   5757     1   0.14647 272713.120000
   5739   5743     1   0.14233 265014.560000
   5739   5752     1   0.14316 258236.480000
   5745   5750     1   0.14233 265014.560000
   5758   5759     1   0.15375 251793.120000
   5758   5769     1   0.15375 251793.120000
   5758   5776     1   0.14316 258236.480000
   5759   5761     1   0.15375 251793.120000
   5759   5779     1   0.14233 265014.560000
   5761   5762     1   0.15375 251793.120000
   5761   5768     1   0.14233 265014.560000
   5762   5763     1   0.15375 251793.120000
   5762   5781     1   0.14647 272713.120000
   5763   5767     1   0.14233 265014.560000
   5763   5776     1   0.14316 258236.480000
   5769   5774     1   0.14233 265014.560000
   5783   5785     1   0.14619 275056.160000
   5785   5787     1   0.15375 251793.120000
   5787   5791     1   0.15110 237065.440000
   5791   5792     1   0.15110 237065.440000
   5791   5793     1   0.15110 237065.440000
   5792   5803     1   0.15375 251793.120000
   5793   5795     1   0.15375 251793.120000
   5795   5799     1   0.15241 261918.400000
   5799   5800     1   0.12183 533627.360000
   5799   5831     1   0.13400 406935.840000
   5803   5806     1   0.15241 261918.400000
   5806   5807     1   0.12183 533627.360000
   5806   5855     1   0.13400 406935.840000
   5808   5809     1   0.15375 251793.120000
   5808   5819     1   0.15375 251793.120000
   5808   5826     1   0.14316 258236.480000
   5809   5811     1   0.15375 251793.120000
   5809   5829     1   0.14233 265014.560000
   5811   5812     1   0.15375 251793.120000
   5811   5818     1   0.14233 265014.560000
   5812   5813     1   0.15375 251793.120000
   5812   5831     1   0.14647 272713.120000
   5813   5817     1   0.14233 265014.560000
   5813   5826     1   0.14316 258236.480000
   5819   5824     1   0.14233 265014.560000
   5832   5833     1   0.15375 251793.120000
   5832   5843     1   0.15375 251793.120000
   5832   5850     1   0.14316 258236.480000
   5833   5835     1   0.15375 251793.120000
   5833   5853     1   0.14233 265014.560000
   5835   5836     1   0.15375 251793.120000
   5835   5842     1   0.14233 265014.560000
   5836   5837     1   0.15375 251793.120000
   5836   5855     1   0.14647 272713.120000
   5837   5841     1   0.14233 265014.560000
   5837   5850     1   0.14316 258236.480000
   5843   5848     1   0.14233 265014.560000
   5857   5859     1   0.14619 275056.160000
   5859   5861     1   0.15375 251793.120000
   5861   5865     1   0.15110 237065.440000
   5865   5866     1   0.15110 237065.440000
   5865   5867     1   0.15110 237065.440000
   5866   5877     1   0.15375 251793.120000
   5867   5869     1   0.15375 251793.120000
   5869   5873     1   0.15241 261918.400000
   5873   5874     1   0.12183 533627.360000
   5873   5905     1   0.13400 406935.840000
   5877   5880     1   0.15241 261918.400000
   5880   5881     1   0.12183 533627.360000
   5880   5929     1   0.13400 406935.840000
   5882   5883     1   0.15375 251793.120000
   5882   5893     1   0.15375 251793.120000
   5882   5900     1   0.14316 258236.480000
   5883   5885     1   0.15375 251793.120000
   5883   5903     1   0.14233 265014.560000
   5885   5886     1   0.15375 251793.120000
   5885   5892     1   0.14233 265014.560000
   5886   5887     1   0.15375 251793.120000
   5886   5905     1   0.14647 272713.120000
   5887   5891     1   0.14233 265014.560000
   5887   5900     1   0.14316 258236.480000
   5893   5898     1   0.14233 265014.560000
   5906   5907     1   0.15375 251793.120000
   5906   5917     1   0.15375 251793.120000
   5906   5924     1   0.14316 258236.480000
   5907   5909     1   0.15375 251793.120000
   5907   5927     1   0.14233 265014.560000
   5909   5910     1   0.15375 251793.120000
   5909   5916     1   0.14233 265014.560000
   5910   5911     1   0.15375 251793.120000
   5910   5929     1   0.14647 272713.120000
   5911   5915     1   0.14233 265014.560000
   5911   5924     1   0.14316 258236.480000
   5917   5922     1   0.14233 265014.560000
   5931   5933     1   0.14619 275056.160000
   5933   5935     1   0.15375 251793.120000
   5935   5939     1   0.15110 237065.440000
   5939   5940     1   0.15110 237065.440000
   5939   5941     1   0.15110 237065.440000
   5940   5951     1   0.15375 251793.120000
   5941   5943     1   0.15375 251793.120000
   5943   5947     1   0.15241 261918.400000
   5947   5948     1   0.12183 533627.360000
   5947   5979     1   0.13400 406935.840000
   5951   5954     1   0.15241 261918.400000
   5954   5955     1   0.12183 533627.360000
   5954   6003     1   0.13400 406935.840000
   5956   5957     1   0.15375 251793.120000
   5956   5967     1   0.15375 251793.120000
   5956   5974     1   0.14316 258236.480000
   5957   5959     1   0.15375 251793.120000
   5957   5977     1   0.14233 265014.560000
   5959   5960     1   0.15375 251793.120000
   5959   5966     1   0.14233 265014.560000
   5960   5961     1   0.15375 251793.120000
   5960   5979     1   0.14647 272713.120000
   5961   5965     1   0.14233 265014.560000
   5961   5974     1   0.14316 258236.480000
   5967   5972     1   0.14233 265014.560000
   5980   5981     1   0.15375 251793.120000
   5980   5991     1   0.15375 251793.120000
   5980   5998     1   0.14316 258236.480000
   5981   5983     1   0.15375 251793.120000
   5981   6001     1   0.14233 265014.560000
   5983   5984     1   0.15375 251793.120000
   5983   5990     1   0.14233 265014.560000
   5984   5985     1   0.15375 251793.120000
   5984   6003     1   0.14647 272713.120000
   5985   5989     1   0.14233 265014.560000
   5985   5998     1   0.14316 258236.480000
   5991   5996     1   0.14233 265014.560000
   6005   6007     1   0.14619 275056.160000
   6007   6009     1   0.15375 251793.120000
   6009   6013     1   0.15110 237065.440000
   6013   6014     1   0.15110 237065.440000
   6013   6015     1   0.15110 237065.440000
   6014   6025     1   0.15375 251793.120000
   6015   6017     1   0.15375 251793.120000
   6017   6021     1   0.15241 261918.400000
   6021   6022     1   0.12183 533627.360000
   6021   6053     1   0.13400 406935.840000
   6025   6028     1   0.15241 261918.400000
   6028   6029     1   0.12183 533627.360000
   6028   6077     1   0.13400 406935.840000
   6030   6031     1   0.15375 251793.120000
   6030   6041     1   0.15375 251793.120000
   6030   6048     1   0.14316 258236.480000
   6031   6033     1   0.15375 251793.120000
   6031   6051     1   0.14233 265014.560000
   6033   6034     1   0.15375 251793.120000
   6033   6040     1   0.14233 265014.560000
   6034   6035     1   0.15375 251793.120000
   6034   6053     1   0.14647 272713.120000
   6035   6039     1   0.14233 265014.560000
   6035   6048     1   0.14316 258236.480000
   6041   6046     1   0.14233 265014.560000
   6054   6055     1   0.15375 251793.120000
   6054   6065     1   0.15375 251793.120000
   6054   6072     1   0.14316 258236.480000
   6055   6057     1   0.15375 251793.120000
   6055   6075     1   0.14233 265014.560000
   6057   6058     1   0.15375 251793.120000
   6057   6064     1   0.14233 265014.560000
   6058   6059     1   0.15375 251793.120000
   6058   6077     1   0.14647 272713.120000
   6059   6063     1   0.14233 265014.560000
   6059   6072     1   0.14316 258236.480000
   6065   6070     1   0.14233 265014.560000
   6079   6081     1   0.14619 275056.160000
   6081   6083     1   0.15375 251793.120000
   6083   6087     1   0.15110 237065.440000
   6087   6088     1   0.15110 237065.440000
   6087   6089     1   0.15110 237065.440000
   6088   6099     1   0.15375 251793.120000
   6089   6091     1   0.15375 251793.120000
   6091   6095     1   0.15241 261918.400000
   6095   6096     1   0.12183 533627.360000
   6095   6127     1   0.13400 406935.840000
   6099   6102     1   0.15241 261918.400000
   6102   6103     1   0.12183 533627.360000
   6102   6151     1   0.13400 406935.840000
   6104   6105     1   0.15375 251793.120000
   6104   6115     1   0.15375 251793.120000
   6104   6122     1   0.14316 258236.480000
   6105   6107     1   0.15375 251793.120000
   6105   6125     1   0.14233 265014.560000
   6107   6108     1   0.15375 251793.120000
   6107   6114     1   0.14233 265014.560000
   6108   6109     1   0.15375 251793.120000
   6108   6127     1   0.14647 272713.120000
   6109   6113     1   0.14233 265014.560000
   6109   6122     1   0.14316 258236.480000
   6115   6120     1   0.14233 265014.560000
   6128   6129     1   0.15375 251793.120000
   6128   6139     1   0.15375 251793.120000
   6128   6146     1   0.14316 258236.480000
   6129   6131     1   0.15375 251793.120000
   6129   6149     1   0.14233 265014.560000
   6131   6132     1   0.15375 251793.120000
   6131   6138     1   0.14233 265014.560000
   6132   6133     1   0.15375 251793.120000
   6132   6151     1   0.14647 272713.120000
   6133   6137     1   0.14233 265014.560000
   6133   6146     1   0.14316 258236.480000
   6139   6144     1   0.14233 265014.560000
   6153   6155     1   0.14619 275056.160000
   6155   6157     1   0.15375 251793.120000
   6157   6161     1   0.15110 237065.440000
   6161   6162     1   0.15110 237065.440000
   6161   6163     1   0.15110 237065.440000
   6162   6173     1   0.15375 251793.120000
   6163   6165     1   0.15375 251793.120000
   6165   6169     1   0.15241 261918.400000
   6169   6170     1   0.12183 533627.360000
   6169   6201     1   0.13400 406935.840000
   6173   6176     1   0.15241 261918.400000
   6176   6177     1   0.12183 533627.360000
   6176   6225     1   0.13400 406935.840000
   6178   6179     1   0.15375 251793.120000
   6178   6189     1   0.15375 251793.120000
   6178   6196     1   0.14316 258236.480000
   6179   6181     1   0.15375 251793.120000
   6179   6199     1   0.14233 265014.560000
   6181   6182     1   0.15375 251793.120000
   6181   6188     1   0.14233 265014.560000
   6182   6183     1   0.15375 251793.120000
   6182   6201     1   0.14647 272713.120000
   6183   6187     1   0.14233 265014.560000
   6183   6196     1   0.14316 258236.480000
   6189   6194     1   0.14233 265014.560000
   6202   6203     1   0.15375 251793.120000
   6202   6213     1   0.15375 251793.120000
   6202   6220     1   0.14316 258236.480000
   6203   6205     1   0.15375 251793.120000
   6203   6223     1   0.14233 265014.560000
   6205   6206     1   0.15375 251793.120000
   6205   6212     1   0.14233 265014.560000
   6206   6207     1   0.15375 251793.120000
   6206   6225     1   0.14647 272713.120000
   6207   6211     1   0.14233 265014.560000
   6207   6220     1   0.14316 258236.480000
   6213   6218     1   0.14233 265014.560000
   6227   6229     1   0.14619 275056.160000
   6229   6231     1   0.15375 251793.120000
   6231   6235     1   0.15110 237065.440000
   6235   6236     1   0.15110 237065.440000
   6235   6237     1   0.15110 237065.440000
   6236   6247     1   0.15375 251793.120000
   6237   6239     1   0.15375 251793.120000
   6239   6243     1   0.15241 261918.400000
   6243   6244     1   0.12183 533627.360000
   6243   6275     1   0.13400 406935.840000
   6247   6250     1   0.15241 261918.400000
   6250   6251     1   0.12183 533627.360000
   6250   6299     1   0.13400 406935.840000
   6252   6253     1   0.15375 251793.120000
   6252   6263     1   0.15375 251793.120000
   6252   6270     1   0.14316 258236.480000
   6253   6255     1   0.15375 251793.120000
   6253   6273     1   0.14233 265014.560000
   6255   6256     1   0.15375 251793.120000
   6255   6262     1   0.14233 265014.560000
   6256   6257     1   0.15375 251793.120000
   6256   6275     1   0.14647 272713.120000
   6257   6261     1   0.14233 265014.560000
   6257   6270     1   0.14316 258236.480000
   6263   6268     1   0.14233 265014.560000
   6276   6277     1   0.15375 251793.120000
   6276   6287     1   0.15375 251793.120000
   6276   6294     1   0.14316 258236.480000
   6277   6279     1   0.15375 251793.120000
   6277   6297     1   0.14233 265014.560000
   6279   6280     1   0.15375 251793.120000
   6279   6286     1   0.14233 265014.560000
   6280   6281     1   0.15375 251793.120000
   6280   6299     1   0.14647 272713.120000
   6281   6285     1   0.14233 265014.560000
   6281   6294     1   0.14316 258236.480000
   6287   6292     1   0.14233 265014.560000
   6301   6303     1   0.14619 275056.160000
   6303   6305     1   0.15375 251793.120000
   6305   6309     1   0.15110 237065.440000
   6309   6310     1   0.15110 237065.440000
   6309   6311     1   0.15110 237065.440000
   6310   6321     1   0.15375 251793.120000
   6311   6313     1   0.15375 251793.120000
   6313   6317     1   0.15241 261918.400000
   6317   6318     1   0.12183 533627.360000
   6317   6349     1   0.13400 406935.840000
   6321   6324     1   0.15241 261918.400000
   6324   6325     1   0.12183 533627.360000
   6324   6373     1   0.13400 406935.840000
   6326   6327     1   0.15375 251793.120000
   6326   6337     1   0.15375 251793.120000
   6326   6344     1   0.14316 258236.480000
   6327   6329     1   0.15375 251793.120000
   6327   6347     1   0.14233 265014.560000
   6329   6330     1   0.15375 251793.120000
   6329   6336     1   0.14233 265014.560000
   6330   6331     1   0.15375 251793.120000
   6330   6349     1   0.14647 272713.120000
   6331   6335     1   0.14233 265014.560000
   6331   6344     1   0.14316 258236.480000
   6337   6342     1   0.14233 265014.560000
   6350   6351     1   0.15375 251793.120000
   6350   6361     1   0.15375 251793.120000
   6350   6368     1   0.14316 258236.480000
   6351   6353     1   0.15375 251793.120000
   6351   6371     1   0.14233 265014.560000
   6353   6354     1   0.15375 251793.120000
   6353   6360     1   0.14233 265014.560000
   6354   6355     1   0.15375 251793.120000
   6354   6373     1   0.14647 272713.120000
   6355   6359     1   0.14233 265014.560000
   6355   6368     1   0.14316 258236.480000
   6361   6366     1   0.14233 265014.560000
   6375   6377     1   0.14619 275056.160000
   6377   6379     1   0.15375 251793.120000
   6379   6383     1   0.15110 237065.440000
   6383   6384     1   0.15110 237065.440000
   6383   6385     1   0.15110 237065.440000
   6384   6395     1   0.15375 251793.120000
   6385   6387     1   0.15375 251793.120000
   6387   6391     1   0.15241 261918.400000
   6391   6392     1   0.12183 533627.360000
   6391   6423     1   0.13400 406935.840000
   6395   6398     1   0.15241 261918.400000
   6398   6399     1   0.12183 533627.360000
   6398   6447     1   0.13400 406935.840000
   6400   6401     1   0.15375 251793.120000
   6400   6411     1   0.15375 251793.120000
   6400   6418     1   0.14316 258236.480000
   6401   6403     1   0.15375 251793.120000
   6401   6421     1   0.14233 265014.560000
   6403   6404     1   0.15375 251793.120000
   6403   6410     1   0.14233 265014.560000
   6404   6405     1   0.15375 251793.120000
   6404   6423     1   0.14647 272713.120000
   6405   6409     1   0.14233 265014.560000
   6405   6418     1   0.14316 258236.480000
   6411   6416     1   0.14233 265014.560000
   6424   6425     1   0.15375 251793.120000
   6424   6435     1   0.15375 251793.120000
   6424   6442     1   0.14316 258236.480000
   6425   6427     1   0.15375 251793.120000
   6425   6445     1   0.14233 265014.560000
   6427   6428     1   0.15375 251793.120000
   6427   6434     1   0.14233 265014.560000
   6428   6429     1   0.15375 251793.120000
   6428   6447     1   0.14647 272713.120000
   6429   6433     1   0.14233 265014.560000
   6429   6442     1   0.14316 258236.480000
   6435   6440     1   0.14233 265014.560000
   6449   6451     1   0.14619 275056.160000
   6451   6453     1   0.15375 251793.120000
   6453   6457     1   0.15110 237065.440000
   6457   6458     1   0.15110 237065.440000
   6457   6459     1   0.15110 237065.440000
   6458   6469     1   0.15375 251793.120000
   6459   6461     1   0.15375 251793.120000
   6461   6465     1   0.15241 261918.400000
   6465   6466     1   0.12183 533627.360000
   6465   6497     1   0.13400 406935.840000
   6469   6472     1   0.15241 261918.400000
   6472   6473     1   0.12183 533627.360000
   6472   6521     1   0.13400 406935.840000
   6474   6475     1   0.15375 251793.120000
   6474   6485     1   0.15375 251793.120000
   6474   6492     1   0.14316 258236.480000
   6475   6477     1   0.15375 251793.120000
   6475   6495     1   0.14233 265014.560000
   6477   6478     1   0.15375 251793.120000
   6477   6484     1   0.14233 265014.560000
   6478   6479     1   0.15375 251793.120000
   6478   6497     1   0.14647 272713.120000
   6479   6483     1   0.14233 265014.560000
   6479   6492     1   0.14316 258236.480000
   6485   6490     1   0.14233 265014.560000
   6498   6499     1   0.15375 251793.120000
   6498   6509     1   0.15375 251793.120000
   6498   6516     1   0.14316 258236.480000
   6499   6501     1   0.15375 251793.120000
   6499   6519     1   0.14233 265014.560000
   6501   6502     1   0.15375 251793.120000
   6501   6508     1   0.14233 265014.560000
   6502   6503     1   0.15375 251793.120000
   6502   6521     1   0.14647 272713.120000
   6503   6507     1   0.14233 265014.560000
   6503   6516     1   0.14316 258236.480000
   6509   6514     1   0.14233 265014.560000
   6523   6525     1   0.14619 275056.160000
   6525   6527     1   0.15375 251793.120000
   6527   6531     1   0.15110 237065.440000
   6531   6532     1   0.15110 237065.440000
   6531   6533     1   0.15110 237065.440000
   6532   6543     1   0.15375 251793.120000
   6533   6535     1   0.15375 251793.120000
   6535   6539     1   0.15241 261918.400000
   6539   6540     1   0.12183 533627.360000
   6539   6571     1   0.13400 406935.840000
   6543   6546     1   0.15241 261918.400000
   6546   6547     1   0.12183 533627.360000
   6546   6595     1   0.13400 406935.840000
   6548   6549     1   0.15375 251793.120000
   6548   6559     1   0.15375 251793.120000
   6548   6566     1   0.14316 258236.480000
   6549   6551     1   0.15375 251793.120000
   6549   6569     1   0.14233 265014.560000
   6551   6552     1   0.15375 251793.120000
   6551   6558     1   0.14233 265014.560000
   6552   6553     1   0.15375 251793.120000
   6552   6571     1   0.14647 272713.120000
   6553   6557     1   0.14233 265014.560000
   6553   6566     1   0.14316 258236.480000
   6559   6564     1   0.14233 265014.560000
   6572   6573     1   0.15375 251793.120000
   6572   6583     1   0.15375 251793.120000
   6572   6590     1   0.14316 258236.480000
   6573   6575     1   0.15375 251793.120000
   6573   6593     1   0.14233 265014.560000
   6575   6576     1   0.15375 251793.120000
   6575   6582     1   0.14233 265014.560000
   6576   6577     1   0.15375 251793.120000
   6576   6595     1   0.14647 272713.120000
   6577   6581     1   0.14233 265014.560000
   6577   6590     1   0.14316 258236.480000
   6583   6588     1   0.14233 265014.560000
   6597   6599     1   0.14619 275056.160000
   6599   6601     1   0.15375 251793.120000
   6601   6605     1   0.15110 237065.440000
   6605   6606     1   0.15110 237065.440000
   6605   6607     1   0.15110 237065.440000
   6606   6617     1   0.15375 251793.120000
   6607   6609     1   0.15375 251793.120000
   6609   6613     1   0.15241 261918.400000
   6613   6614     1   0.12183 533627.360000
   6613   6645     1   0.13400 406935.840000
   6617   6620     1   0.15241 261918.400000
   6620   6621     1   0.12183 533627.360000
   6620   6669     1   0.13400 406935.840000
   6622   6623     1   0.15375 251793.120000
   6622   6633     1   0.15375 251793.120000
   6622   6640     1   0.14316 258236.480000
   6623   6625     1   0.15375 251793.120000
   6623   6643     1   0.14233 265014.560000
   6625   6626     1   0.15375 251793.120000
   6625   6632     1   0.14233 265014.560000
   6626   6627     1   0.15375 251793.120000
   6626   6645     1   0.14647 272713.120000
   6627   6631     1   0.14233 265014.560000
   6627   6640     1   0.14316 258236.480000
   6633   6638     1   0.14233 265014.560000
   6646   6647     1   0.15375 251793.120000
   6646   6657     1   0.15375 251793.120000
   6646   6664     1   0.14316 258236.480000
   6647   6649     1   0.15375 251793.120000
   6647   6667     1   0.14233 265014.560000
   6649   6650     1   0.15375 251793.120000
   6649   6656     1   0.14233 265014.560000
   6650   6651     1   0.15375 251793.120000
   6650   6669     1   0.14647 272713.120000
   6651   6655     1   0.14233 265014.560000
   6651   6664     1   0.14316 258236.480000
   6657   6662     1   0.14233 265014.560000
   6671   6673     1   0.14619 275056.160000
   6673   6675     1   0.15375 251793.120000
   6675   6679     1   0.15110 237065.440000
   6679   6680     1   0.15110 237065.440000
   6679   6681     1   0.15110 237065.440000
   6680   6691     1   0.15375 251793.120000
   6681   6683     1   0.15375 251793.120000
   6683   6687     1   0.15241 261918.400000
   6687   6688     1   0.12183 533627.360000
   6687   6719     1   0.13400 406935.840000
   6691   6694     1   0.15241 261918.400000
   6694   6695     1   0.12183 533627.360000
   6694   6743     1   0.13400 406935.840000
   6696   6697     1   0.15375 251793.120000
   6696   6707     1   0.15375 251793.120000
   6696   6714     1   0.14316 258236.480000
   6697   6699     1   0.15375 251793.120000
   6697   6717     1   0.14233 265014.560000
   6699   6700     1   0.15375 251793.120000
   6699   6706     1   0.14233 265014.560000
   6700   6701     1   0.15375 251793.120000
   6700   6719     1   0.14647 272713.120000
   6701   6705     1   0.14233 265014.560000
   6701   6714     1   0.14316 258236.480000
   6707   6712     1   0.14233 265014.560000
   6720   6721     1   0.15375 251793.120000
   6720   6731     1   0.15375 251793.120000
   6720   6738     1   0.14316 258236.480000
   6721   6723     1   0.15375 251793.120000
   6721   6741     1   0.14233 265014.560000
   6723   6724     1   0.15375 251793.120000
   6723   6730     1   0.14233 265014.560000
   6724   6725     1   0.15375 251793.120000
   6724   6743     1   0.14647 272713.120000
   6725   6729     1   0.14233 265014.560000
   6725   6738     1   0.14316 258236.480000
   6731   6736     1   0.14233 265014.560000
   6745   6747     1   0.14619 275056.160000
   6747   6749     1   0.15375 251793.120000
   6749   6753     1   0.15110 237065.440000
   6753   6754     1   0.15110 237065.440000
   6753   6755     1   0.15110 237065.440000
   6754   6765     1   0.15375 251793.120000
   6755   6757     1   0.15375 251793.120000
   6757   6761     1   0.15241 261918.400000
   6761   6762     1   0.12183 533627.360000
   6761   6793     1   0.13400 406935.840000
   6765   6768     1   0.15241 261918.400000
   6768   6769     1   0.12183 533627.360000
   6768   6817     1   0.13400 406935.840000
   6770   6771     1   0.15375 251793.120000
   6770   6781     1   0.15375 251793.120000
   6770   6788     1   0.14316 258236.480000
   6771   6773     1   0.15375 251793.120000
   6771   6791     1   0.14233 265014.560000
   6773   6774     1   0.15375 251793.120000
   6773   6780     1   0.14233 265014.560000
   6774   6775     1   0.15375 251793.120000
   6774   6793     1   0.14647 272713.120000
   6775   6779     1   0.14233 265014.560000
   6775   6788     1   0.14316 258236.480000
   6781   6786     1   0.14233 265014.560000
   6794   6795     1   0.15375 251793.120000
   6794   6805     1   0.15375 251793.120000
   6794   6812     1   0.14316 258236.480000
   6795   6797     1   0.15375 251793.120000
   6795   6815     1   0.14233 265014.560000
   6797   6798     1   0.15375 251793.120000
   6797   6804     1   0.14233 265014.560000
   6798   6799     1   0.15375 251793.120000
   6798   6817     1   0.14647 272713.120000
   6799   6803     1   0.14233 265014.560000
   6799   6812     1   0.14316 258236.480000
   6805   6810     1   0.14233 265014.560000
   6819   6821     1   0.14619 275056.160000
   6821   6823     1   0.15375 251793.120000
   6823   6827     1   0.15110 237065.440000
   6827   6828     1   0.15110 237065.440000
   6827   6829     1   0.15110 237065.440000
   6828   6839     1   0.15375 251793.120000
   6829   6831     1   0.15375 251793.120000
   6831   6835     1   0.15241 261918.400000
   6835   6836     1   0.12183 533627.360000
   6835   6867     1   0.13400 406935.840000
   6839   6842     1   0.15241 261918.400000
   6842   6843     1   0.12183 533627.360000
   6842   6891     1   0.13400 406935.840000
   6844   6845     1   0.15375 251793.120000
   6844   6855     1   0.15375 251793.120000
   6844   6862     1   0.14316 258236.480000
   6845   6847     1   0.15375 251793.120000
   6845   6865     1   0.14233 265014.560000
   6847   6848     1   0.15375 251793.120000
   6847   6854     1   0.14233 265014.560000
   6848   6849     1   0.15375 251793.120000
   6848   6867     1   0.14647 272713.120000
   6849   6853     1   0.14233 265014.560000
   6849   6862     1   0.14316 258236.480000
   6855   6860     1   0.14233 265014.560000
   6868   6869     1   0.15375 251793.120000
   6868   6879     1   0.15375 251793.120000
   6868   6886     1   0.14316 258236.480000
   6869   6871     1   0.15375 251793.120000
   6869   6889     1   0.14233 265014.560000
   6871   6872     1   0.15375 251793.120000
   6871   6878     1   0.14233 265014.560000
   6872   6873     1   0.15375 251793.120000
   6872   6891     1   0.14647 272713.120000
   6873   6877     1   0.14233 265014.560000
   6873   6886     1   0.14316 258236.480000
   6879   6884     1   0.14233 265014.560000
   6893   6895     1   0.14619 275056.160000
   6895   6897     1   0.15375 251793.120000
   6897   6901     1   0.15110 237065.440000
   6901   6902     1   0.15110 237065.440000
   6901   6903     1   0.15110 237065.440000
   6902   6913     1   0.15375 251793.120000
   6903   6905     1   0.15375 251793.120000
   6905   6909     1   0.15241 261918.400000
   6909   6910     1   0.12183 533627.360000
   6909   6941     1   0.13400 406935.840000
   6913   6916     1   0.15241 261918.400000
   6916   6917     1   0.12183 533627.360000
   6916   6965     1   0.13400 406935.840000
   6918   6919     1   0.15375 251793.120000
   6918   6929     1   0.15375 251793.120000
   6918   6936     1   0.14316 258236.480000
   6919   6921     1   0.15375 251793.120000
   6919   6939     1   0.14233 265014.560000
   6921   6922     1   0.15375 251793.120000
   6921   6928     1   0.14233 265014.560000
   6922   6923     1   0.15375 251793.120000
   6922   6941     1   0.14647 272713.120000
   6923   6927     1   0.14233 265014.560000
   6923   6936     1   0.14316 258236.480000
   6929   6934     1   0.14233 265014.560000
   6942   6943     1   0.15375 251793.120000
   6942   6953     1   0.15375 251793.120000
   6942   6960     1   0.14316 258236.480000
   6943   6945     1   0.15375 251793.120000
   6943   6963     1   0.14233 265014.560000
   6945   6946     1   0.15375 251793.120000
   6945   6952     1   0.14233 265014.560000
   6946   6947     1   0.15375 251793.120000
   6946   6965     1   0.14647 272713.120000
   6947   6951     1   0.14233 265014.560000
   6947   6960     1   0.14316 258236.480000
   6953   6958     1   0.14233 265014.560000
   6967   6969     1   0.14619 275056.160000
   6969   6971     1   0.15375 251793.120000
   6971   6975     1   0.15110 237065.440000
   6975   6976     1   0.15110 237065.440000
   6975   6977     1   0.15110 237065.440000
   6976   6987     1   0.15375 251793.120000
   6977   6979     1   0.15375 251793.120000
   6979   6983     1   0.15241 261918.400000
   6983   6984     1   0.12183 533627.360000
   6983   7015     1   0.13400 406935.840000
   6987   6990     1   0.15241 261918.400000
   6990   6991     1   0.12183 533627.360000
   6990   7039     1   0.13400 406935.840000
   6992   6993     1   0.15375 251793.120000
   6992   7003     1   0.15375 251793.120000
   6992   7010     1   0.14316 258236.480000
   6993   6995     1   0.15375 251793.120000
   6993   7013     1   0.14233 265014.560000
   6995   6996     1   0.15375 251793.120000
   6995   7002     1   0.14233 265014.560000
   6996   6997     1   0.15375 251793.120000
   6996   7015     1   0.14647 272713.120000
   6997   7001     1   0.14233 265014.560000
   6997   7010     1   0.14316 258236.480000
   7003   7008     1   0.14233 265014.560000
   7016   7017     1   0.15375 251793.120000
   7016   7027     1   0.15375 251793.120000
   7016   7034     1   0.14316 258236.480000
   7017   7019     1   0.15375 251793.120000
   7017   7037     1   0.14233 265014.560000
   7019   7020     1   0.15375 251793.120000
   7019   7026     1   0.14233 265014.560000
   7020   7021     1   0.15375 251793.120000
   7020   7039     1   0.14647 272713.120000
   7021   7025     1   0.14233 265014.560000
   7021   7034     1   0.14316 258236.480000
   7027   7032     1   0.14233 265014.560000
   7041   7043     1   0.14619 275056.160000
   7043   7045     1   0.15375 251793.120000
   7045   7049     1   0.15110 237065.440000
   7049   7050     1   0.15110 237065.440000
   7049   7051     1   0.15110 237065.440000
   7050   7061     1   0.15375 251793.120000
   7051   7053     1   0.15375 251793.120000
   7053   7057     1   0.15241 261918.400000
   7057   7058     1   0.12183 533627.360000
   7057   7089     1   0.13400 406935.840000
   7061   7064     1   0.15241 261918.400000
   7064   7065     1   0.12183 533627.360000
   7064   7113     1   0.13400 406935.840000
   7066   7067     1   0.15375 251793.120000
   7066   7077     1   0.15375 251793.120000
   7066   7084     1   0.14316 258236.480000
   7067   7069     1   0.15375 251793.120000
   7067   7087     1   0.14233 265014.560000
   7069   7070     1   0.15375 251793.120000
   7069   7076     1   0.14233 265014.560000
   7070   7071     1   0.15375 251793.120000
   7070   7089     1   0.14647 272713.120000
   7071   7075     1   0.14233 265014.560000
   7071   7084     1   0.14316 258236.480000
   7077   7082     1   0.14233 265014.560000
   7090   7091     1   0.15375 251793.120000
   7090   7101     1   0.15375 251793.120000
   7090   7108     1   0.14316 258236.480000
   7091   7093     1   0.15375 251793.120000
   7091   7111     1   0.14233 265014.560000
   7093   7094     1   0.15375 251793.120000
   7093   7100     1   0.14233 265014.560000
   7094   7095     1   0.15375 251793.120000
   7094   7113     1   0.14647 272713.120000
   7095   7099     1   0.14233 265014.560000
   7095   7108     1   0.14316 258236.480000
   7101   7106     1   0.14233 265014.560000
   7115   7117     1   0.14619 275056.160000
   7117   7119     1   0.15375 251793.120000
   7119   7123     1   0.15110 237065.440000
   7123   7124     1   0.15110 237065.440000
   7123   7125     1   0.15110 237065.440000
   7124   7135     1   0.15375 251793.120000
   7125   7127     1   0.15375 251793.120000
   7127   7131     1   0.15241 261918.400000
   7131   7132     1   0.12183 533627.360000
   7131   7163     1   0.13400 406935.840000
   7135   7138     1   0.15241 261918.400000
   7138   7139     1   0.12183 533627.360000
   7138   7187     1   0.13400 406935.840000
   7140   7141     1   0.15375 251793.120000
   7140   7151     1   0.15375 251793.120000
   7140   7158     1   0.14316 258236.480000
   7141   7143     1   0.15375 251793.120000
   7141   7161     1   0.14233 265014.560000
   7143   7144     1   0.15375 251793.120000
   7143   7150     1   0.14233 265014.560000
   7144   7145     1   0.15375 251793.120000
   7144   7163     1   0.14647 272713.120000
   7145   7149     1   0.14233 265014.560000
   7145   7158     1   0.14316 258236.480000
   7151   7156     1   0.14233 265014.560000
   7164   7165     1   0.15375 251793.120000
   7164   7175     1   0.15375 251793.120000
   7164   7182     1   0.14316 258236.480000
   7165   7167     1   0.15375 251793.120000
   7165   7185     1   0.14233 265014.560000
   7167   7168     1   0.15375 251793.120000
   7167   7174     1   0.14233 265014.560000
   7168   7169     1   0.15375 251793.120000
   7168   7187     1   0.14647 272713.120000
   7169   7173     1   0.14233 265014.560000
   7169   7182     1   0.14316 258236.480000
   7175   7180     1   0.14233 265014.560000
   7189   7191     1   0.14619 275056.160000
   7191   7193     1   0.15375 251793.120000
   7193   7197     1   0.15110 237065.440000
   7197   7198     1   0.15110 237065.440000
   7197   7199     1   0.15110 237065.440000
   7198   7209     1   0.15375 251793.120000
   7199   7201     1   0.15375 251793.120000
   7201   7205     1   0.15241 261918.400000
   7205   7206     1   0.12183 533627.360000
   7205   7237     1   0.13400 406935.840000
   7209   7212     1   0.15241 261918.400000
   7212   7213     1   0.12183 533627.360000
   7212   7261     1   0.13400 406935.840000
   7214   7215     1   0.15375 251793.120000
   7214   7225     1   0.15375 251793.120000
   7214   7232     1   0.14316 258236.480000
   7215   7217     1   0.15375 251793.120000
   7215   7235     1   0.14233 265014.560000
   7217   7218     1   0.15375 251793.120000
   7217   7224     1   0.14233 265014.560000
   7218   7219     1   0.15375 251793.120000
   7218   7237     1   0.14647 272713.120000
   7219   7223     1   0.14233 265014.560000
   7219   7232     1   0.14316 258236.480000
   7225   7230     1   0.14233 265014.560000
   7238   7239     1   0.15375 251793.120000
   7238   7249     1   0.15375 251793.120000
   7238   7256     1   0.14316 258236.480000
   7239   7241     1   0.15375 251793.120000
   7239   7259     1   0.14233 265014.560000
   7241   7242     1   0.15375 251793.120000
   7241   7248     1   0.14233 265014.560000
   7242   7243     1   0.15375 251793.120000
   7242   7261     1   0.14647 272713.120000
   7243   7247     1   0.14233 265014.560000
   7243   7256     1   0.14316 258236.480000
   7249   7254     1   0.14233 265014.560000
   7263   7265     1   0.14619 275056.160000
   7265   7267     1   0.15375 251793.120000
   7267   7271     1   0.15110 237065.440000
   7271   7272     1   0.15110 237065.440000
   7271   7273     1   0.15110 237065.440000
   7272   7283     1   0.15375 251793.120000
   7273   7275     1   0.15375 251793.120000
   7275   7279     1   0.15241 261918.400000
   7279   7280     1   0.12183 533627.360000
   7279   7311     1   0.13400 406935.840000
   7283   7286     1   0.15241 261918.400000
   7286   7287     1   0.12183 533627.360000
   7286   7335     1   0.13400 406935.840000
   7288   7289     1   0.15375 251793.120000
   7288   7299     1   0.15375 251793.120000
   7288   7306     1   0.14316 258236.480000
   7289   7291     1   0.15375 251793.120000
   7289   7309     1   0.14233 265014.560000
   7291   7292     1   0.15375 251793.120000
   7291   7298     1   0.14233 265014.560000
   7292   7293     1   0.15375 251793.120000
   7292   7311     1   0.14647 272713.120000
   7293   7297     1   0.14233 265014.560000
   7293   7306     1   0.14316 258236.480000
   7299   7304     1   0.14233 265014.560000
   7312   7313     1   0.15375 251793.120000
   7312   7323     1   0.15375 251793.120000
   7312   7330     1   0.14316 258236.480000
   7313   7315     1   0.15375 251793.120000
   7313   7333     1   0.14233 265014.560000
   7315   7316     1   0.15375 251793.120000
   7315   7322     1   0.14233 265014.560000
   7316   7317     1   0.15375 251793.120000
   7316   7335     1   0.14647 272713.120000
   7317   7321     1   0.14233 265014.560000
   7317   7330     1   0.14316 258236.480000
   7323   7328     1   0.14233 265014.560000
   7337   7339     1   0.14619 275056.160000
   7339   7341     1   0.15375 251793.120000
   7341   7345     1   0.15110 237065.440000
   7345   7346     1   0.15110 237065.440000
   7345   7347     1   0.15110 237065.440000
   7346   7357     1   0.15375 251793.120000
   7347   7349     1   0.15375 251793.120000
   7349   7353     1   0.15241 261918.400000
   7353   7354     1   0.12183 533627.360000
   7353   7385     1   0.13400 406935.840000
   7357   7360     1   0.15241 261918.400000
   7360   7361     1   0.12183 533627.360000
   7360   7409     1   0.13400 406935.840000
   7362   7363     1   0.15375 251793.120000
   7362   7373     1   0.15375 251793.120000
   7362   7380     1   0.14316 258236.480000
   7363   7365     1   0.15375 251793.120000
   7363   7383     1   0.14233 265014.560000
   7365   7366     1   0.15375 251793.120000
   7365   7372     1   0.14233 265014.560000
   7366   7367     1   0.15375 251793.120000
   7366   7385     1   0.14647 272713.120000
   7367   7371     1   0.14233 265014.560000
   7367   7380     1   0.14316 258236.480000
   7373   7378     1   0.14233 265014.560000
   7386   7387     1   0.15375 251793.120000
   7386   7397     1   0.15375 251793.120000
   7386   7404     1   0.14316 258236.480000
   7387   7389     1   0.15375 251793.120000
   7387   7407     1   0.14233 265014.560000
   7389   7390     1   0.15375 251793.120000
   7389   7396     1   0.14233 265014.560000
   7390   7391     1   0.15375 251793.120000
   7390   7409     1   0.14647 272713.120000
   7391   7395     1   0.14233 265014.560000
   7391   7404     1   0.14316 258236.480000
   7397   7402     1   0.14233 265014.560000
   7411   7413     1   0.14619 275056.160000
   7413   7415     1   0.15375 251793.120000
   7415   7419     1   0.15110 237065.440000
   7419   7420     1   0.15110 237065.440000
   7419   7421     1   0.15110 237065.440000
   7420   7431     1   0.15375 251793.120000
   7421   7423     1   0.15375 251793.120000
   7423   7427     1   0.15241 261918.400000
   7427   7428     1   0.12183 533627.360000
   7427   7459     1   0.13400 406935.840000
   7431   7434     1   0.15241 261918.400000
   7434   7435     1   0.12183 533627.360000
   7434   7483     1   0.13400 406935.840000
   7436   7437     1   0.15375 251793.120000
   7436   7447     1   0.15375 251793.120000
   7436   7454     1   0.14316 258236.480000
   7437   7439     1   0.15375 251793.120000
   7437   7457     1   0.14233 265014.560000
   7439   7440     1   0.15375 251793.120000
   7439   7446     1   0.14233 265014.560000
   7440   7441     1   0.15375 251793.120000
   7440   7459     1   0.14647 272713.120000
   7441   7445     1   0.14233 265014.560000
   7441   7454     1   0.14316 258236.480000
   7447   7452     1   0.14233 265014.560000
   7460   7461     1   0.15375 251793.120000
   7460   7471     1   0.15375 251793.120000
   7460   7478     1   0.14316 258236.480000
   7461   7463     1   0.15375 251793.120000
   7461   7481     1   0.14233 265014.560000
   7463   7464     1   0.15375 251793.120000
   7463   7470     1   0.14233 265014.560000
   7464   7465     1   0.15375 251793.120000
   7464   7483     1   0.14647 272713.120000
   7465   7469     1   0.14233 265014.560000
   7465   7478     1   0.14316 258236.480000
   7471   7476     1   0.14233 265014.560000
   7485   7487     1   0.14619 275056.160000
   7487   7489     1   0.15375 251793.120000
   7489   7493     1   0.15110 237065.440000
   7493   7494     1   0.15110 237065.440000
   7493   7495     1   0.15110 237065.440000
   7494   7505     1   0.15375 251793.120000
   7495   7497     1   0.15375 251793.120000
   7497   7501     1   0.15241 261918.400000
   7501   7502     1   0.12183 533627.360000
   7501   7533     1   0.13400 406935.840000
   7505   7508     1   0.15241 261918.400000
   7508   7509     1   0.12183 533627.360000
   7508   7557     1   0.13400 406935.840000
   7510   7511     1   0.15375 251793.120000
   7510   7521     1   0.15375 251793.120000
   7510   7528     1   0.14316 258236.480000
   7511   7513     1   0.15375 251793.120000
   7511   7531     1   0.14233 265014.560000
   7513   7514     1   0.15375 251793.120000
   7513   7520     1   0.14233 265014.560000
   7514   7515     1   0.15375 251793.120000
   7514   7533     1   0.14647 272713.120000
   7515   7519     1   0.14233 265014.560000
   7515   7528     1   0.14316 258236.480000
   7521   7526     1   0.14233 265014.560000
   7534   7535     1   0.15375 251793.120000
   7534   7545     1   0.15375 251793.120000
   7534   7552     1   0.14316 258236.480000
   7535   7537     1   0.15375 251793.120000
   7535   7555     1   0.14233 265014.560000
   7537   7538     1   0.15375 251793.120000
   7537   7544     1   0.14233 265014.560000
   7538   7539     1   0.15375 251793.120000
   7538   7557     1   0.14647 272713.120000
   7539   7543     1   0.14233 265014.560000
   7539   7552     1   0.14316 258236.480000
   7545   7550     1   0.14233 265014.560000
   7559   7561     1   0.14619 275056.160000
   7561   7563     1   0.15375 251793.120000
   7563   7567     1   0.15110 237065.440000
   7567   7568     1   0.15110 237065.440000
   7567   7569     1   0.15110 237065.440000
   7568   7579     1   0.15375 251793.120000
   7569   7571     1   0.15375 251793.120000
   7571   7575     1   0.15241 261918.400000
   7575   7576     1   0.12183 533627.360000
   7575   7607     1   0.13400 406935.840000
   7579   7582     1   0.15241 261918.400000
   7582   7583     1   0.12183 533627.360000
   7582   7631     1   0.13400 406935.840000
   7584   7585     1   0.15375 251793.120000
   7584   7595     1   0.15375 251793.120000
   7584   7602     1   0.14316 258236.480000
   7585   7587     1   0.15375 251793.120000
   7585   7605     1   0.14233 265014.560000
   7587   7588     1   0.15375 251793.120000
   7587   7594     1   0.14233 265014.560000
   7588   7589     1   0.15375 251793.120000
   7588   7607     1   0.14647 272713.120000
   7589   7593     1   0.14233 265014.560000
   7589   7602     1   0.14316 258236.480000
   7595   7600     1   0.14233 265014.560000
   7608   7609     1   0.15375 251793.120000
   7608   7619     1   0.15375 251793.120000
   7608   7626     1   0.14316 258236.480000
   7609   7611     1   0.15375 251793.120000
   7609   7629     1   0.14233 265014.560000
   7611   7612     1   0.15375 251793.120000
   7611   7618     1   0.14233 265014.560000
   7612   7613     1   0.15375 251793.120000
   7612   7631     1   0.14647 272713.120000
   7613   7617     1   0.14233 265014.560000
   7613   7626     1   0.14316 258236.480000
   7619   7624     1   0.14233 265014.560000
   7633   7635     1   0.14619 275056.160000
   7635   7637     1   0.15375 251793.120000
   7637   7641     1   0.15110 237065.440000
   7641   7642     1   0.15110 237065.440000
   7641   7643     1   0.15110 237065.440000
   7642   7653     1   0.15375 251793.120000
   7643   7645     1   0.15375 251793.120000
   7645   7649     1   0.15241 261918.400000
   7649   7650     1   0.12183 533627.360000
   7649   7681     1   0.13400 406935.840000
   7653   7656     1   0.15241 261918.400000
   7656   7657     1   0.12183 533627.360000
   7656   7705     1   0.13400 406935.840000
   7658   7659     1   0.15375 251793.120000
   7658   7669     1   0.15375 251793.120000
   7658   7676     1   0.14316 258236.480000
   7659   7661     1   0.15375 251793.120000
   7659   7679     1   0.14233 265014.560000
   7661   7662     1   0.15375 251793.120000
   7661   7668     1   0.14233 265014.560000
   7662   7663     1   0.15375 251793.120000
   7662   7681     1   0.14647 272713.120000
   7663   7667     1   0.14233 265014.560000
   7663   7676     1   0.14316 258236.480000
   7669   7674     1   0.14233 265014.560000
   7682   7683     1   0.15375 251793.120000
   7682   7693     1   0.15375 251793.120000
   7682   7700     1   0.14316 258236.480000
   7683   7685     1   0.15375 251793.120000
   7683   7703     1   0.14233 265014.560000
   7685   7686     1   0.15375 251793.120000
   7685   7692     1   0.14233 265014.560000
   7686   7687     1   0.15375 251793.120000
   7686   7705     1   0.14647 272713.120000
   7687   7691     1   0.14233 265014.560000
   7687   7700     1   0.14316 258236.480000
   7693   7698     1   0.14233 265014.560000
   7707   7709     1   0.14619 275056.160000
   7709   7711     1   0.15375 251793.120000
   7711   7715     1   0.15110 237065.440000
   7715   7716     1   0.15110 237065.440000
   7715   7717     1   0.15110 237065.440000
   7716   7727     1   0.15375 251793.120000
   7717   7719     1   0.15375 251793.120000
   7719   7723     1   0.15241 261918.400000
   7723   7724     1   0.12183 533627.360000
   7723   7755     1   0.13400 406935.840000
   7727   7730     1   0.15241 261918.400000
   7730   7731     1   0.12183 533627.360000
   7730   7779     1   0.13400 406935.840000
   7732   7733     1   0.15375 251793.120000
   7732   7743     1   0.15375 251793.120000
   7732   7750     1   0.14316 258236.480000
   7733   7735     1   0.15375 251793.120000
   7733   7753     1   0.14233 265014.560000
   7735   7736     1   0.15375 251793.120000
   7735   7742     1   0.14233 265014.560000
   7736   7737     1   0.15375 251793.120000
   7736   7755     1   0.14647 272713.120000
   7737   7741     1   0.14233 265014.560000
   7737   7750     1   0.14316 258236.480000
   7743   7748     1   0.14233 265014.560000
   7756   7757     1   0.15375 251793.120000
   7756   7767     1   0.15375 251793.120000
   7756   7774     1   0.14316 258236.480000
   7757   7759     1   0.15375 251793.120000
   7757   7777     1   0.14233 265014.560000
   7759   7760     1   0.15375 251793.120000
   7759   7766     1   0.14233 265014.560000
   7760   7761     1   0.15375 251793.120000
   7760   7779     1   0.14647 272713.120000
   7761   7765     1   0.14233 265014.560000
   7761   7774     1   0.14316 258236.480000
   7767   7772     1   0.14233 265014.560000
   7781   7783     1   0.14619 275056.160000
   7783   7785     1   0.15375 251793.120000
   7785   7789     1   0.15110 237065.440000
   7789   7790     1   0.15110 237065.440000
   7789   7791     1   0.15110 237065.440000
   7790   7801     1   0.15375 251793.120000
   7791   7793     1   0.15375 251793.120000
   7793   7797     1   0.15241 261918.400000
   7797   7798     1   0.12183 533627.360000
   7797   7829     1   0.13400 406935.840000
   7801   7804     1   0.15241 261918.400000
   7804   7805     1   0.12183 533627.360000
   7804   7853     1   0.13400 406935.840000
   7806   7807     1   0.15375 251793.120000
   7806   7817     1   0.15375 251793.120000
   7806   7824     1   0.14316 258236.480000
   7807   7809     1   0.15375 251793.120000
   7807   7827     1   0.14233 265014.560000
   7809   7810     1   0.15375 251793.120000
   7809   7816     1   0.14233 265014.560000
   7810   7811     1   0.15375 251793.120000
   7810   7829     1   0.14647 272713.120000
   7811   7815     1   0.14233 265014.560000
   7811   7824     1   0.14316 258236.480000
   7817   7822     1   0.14233 265014.560000
   7830   7831     1   0.15375 251793.120000
   7830   7841     1   0.15375 251793.120000
   7830   7848     1   0.14316 258236.480000
   7831   7833     1   0.15375 251793.120000
   7831   7851     1   0.14233 265014.560000
   7833   7834     1   0.15375 251793.120000
   7833   7840     1   0.14233 265014.560000
   7834   7835     1   0.15375 251793.120000
   7834   7853     1   0.14647 272713.120000
   7835   7839     1   0.14233 265014.560000
   7835   7848     1   0.14316 258236.480000
   7841   7846     1   0.14233 265014.560000
   7855   7857     1   0.14619 275056.160000
   7857   7859     1   0.15375 251793.120000
   7859   7863     1   0.15110 237065.440000
   7863   7864     1   0.15110 237065.440000
   7863   7865     1   0.15110 237065.440000
   7864   7875     1   0.15375 251793.120000
   7865   7867     1   0.15375 251793.120000
   7867   7871     1   0.15241 261918.400000
   7871   7872     1   0.12183 533627.360000
   7871   7903     1   0.13400 406935.840000
   7875   7878     1   0.15241 261918.400000
   7878   7879     1   0.12183 533627.360000
   7878   7927     1   0.13400 406935.840000
   7880   7881     1   0.15375 251793.120000
   7880   7891     1   0.15375 251793.120000
   7880   7898     1   0.14316 258236.480000
   7881   7883     1   0.15375 251793.120000
   7881   7901     1   0.14233 265014.560000
   7883   7884     1   0.15375 251793.120000
   7883   7890     1   0.14233 265014.560000
   7884   7885     1   0.15375 251793.120000
   7884   7903     1   0.14647 272713.120000
   7885   7889     1   0.14233 265014.560000
   7885   7898     1   0.14316 258236.480000
   7891   7896     1   0.14233 265014.560000
   7904   7905     1   0.15375 251793.120000
   7904   7915     1   0.15375 251793.120000
   7904   7922     1   0.14316 258236.480000
   7905   7907     1   0.15375 251793.120000
   7905   7925     1   0.14233 265014.560000
   7907   7908     1   0.15375 251793.120000
   7907   7914     1   0.14233 265014.560000
   7908   7909     1   0.15375 251793.120000
   7908   7927     1   0.14647 272713.120000
   7909   7913     1   0.14233 265014.560000
   7909   7922     1   0.14316 258236.480000
   7915   7920     1   0.14233 265014.560000
   7929   7931     1   0.14619 275056.160000
   7931   7933     1   0.15375 251793.120000
   7933   7937     1   0.15110 237065.440000
   7937   7938     1   0.15110 237065.440000
   7937   7939     1   0.15110 237065.440000
   7938   7949     1   0.15375 251793.120000
   7939   7941     1   0.15375 251793.120000
   7941   7945     1   0.15241 261918.400000
   7945   7946     1   0.12183 533627.360000
   7945   7977     1   0.13400 406935.840000
   7949   7952     1   0.15241 261918.400000
   7952   7953     1   0.12183 533627.360000
   7952   8001     1   0.13400 406935.840000
   7954   7955     1   0.15375 251793.120000
   7954   7965     1   0.15375 251793.120000
   7954   7972     1   0.14316 258236.480000
   7955   7957     1   0.15375 251793.120000
   7955   7975     1   0.14233 265014.560000
   7957   7958     1   0.15375 251793.120000
   7957   7964     1   0.14233 265014.560000
   7958   7959     1   0.15375 251793.120000
   7958   7977     1   0.14647 272713.120000
   7959   7963     1   0.14233 265014.560000
   7959   7972     1   0.14316 258236.480000
   7965   7970     1   0.14233 265014.560000
   7978   7979     1   0.15375 251793.120000
   7978   7989     1   0.15375 251793.120000
   7978   7996     1   0.14316 258236.480000
   7979   7981     1   0.15375 251793.120000
   7979   7999     1   0.14233 265014.560000
   7981   7982     1   0.15375 251793.120000
   7981   7988     1   0.14233 265014.560000
   7982   7983     1   0.15375 251793.120000
   7982   8001     1   0.14647 272713.120000
   7983   7987     1   0.14233 265014.560000
   7983   7996     1   0.14316 258236.480000
   7989   7994     1   0.14233 265014.560000
   8003   8005     1   0.14619 275056.160000
   8005   8007     1   0.15375 251793.120000
   8007   8011     1   0.15110 237065.440000
   8011   8012     1   0.15110 237065.440000
   8011   8013     1   0.15110 237065.440000
   8012   8023     1   0.15375 251793.120000
   8013   8015     1   0.15375 251793.120000
   8015   8019     1   0.15241 261918.400000
   8019   8020     1   0.12183 533627.360000
   8019   8051     1   0.13400 406935.840000
   8023   8026     1   0.15241 261918.400000
   8026   8027     1   0.12183 533627.360000
   8026   8075     1   0.13400 406935.840000
   8028   8029     1   0.15375 251793.120000
   8028   8039     1   0.15375 251793.120000
   8028   8046     1   0.14316 258236.480000
   8029   8031     1   0.15375 251793.120000
   8029   8049     1   0.14233 265014.560000
   8031   8032     1   0.15375 251793.120000
   8031   8038     1   0.14233 265014.560000
   8032   8033     1   0.15375 251793.120000
   8032   8051     1   0.14647 272713.120000
   8033   8037     1   0.14233 265014.560000
   8033   8046     1   0.14316 258236.480000
   8039   8044     1   0.14233 265014.560000
   8052   8053     1   0.15375 251793.120000
   8052   8063     1   0.15375 251793.120000
   8052   8070     1   0.14316 258236.480000
   8053   8055     1   0.15375 251793.120000
   8053   8073     1   0.14233 265014.560000
   8055   8056     1   0.15375 251793.120000
   8055   8062     1   0.14233 265014.560000
   8056   8057     1   0.15375 251793.120000
   8056   8075     1   0.14647 272713.120000
   8057   8061     1   0.14233 265014.560000
   8057   8070     1   0.14316 258236.480000
   8063   8068     1   0.14233 265014.560000
   8077   8079     1   0.14619 275056.160000
   8079   8081     1   0.15375 251793.120000
   8081   8085     1   0.15110 237065.440000
   8085   8086     1   0.15110 237065.440000
   8085   8087     1   0.15110 237065.440000
   8086   8097     1   0.15375 251793.120000
   8087   8089     1   0.15375 251793.120000
   8089   8093     1   0.15241 261918.400000
   8093   8094     1   0.12183 533627.360000
   8093   8125     1   0.13400 406935.840000
   8097   8100     1   0.15241 261918.400000
   8100   8101     1   0.12183 533627.360000
   8100   8149     1   0.13400 406935.840000
   8102   8103     1   0.15375 251793.120000
   8102   8113     1   0.15375 251793.120000
   8102   8120     1   0.14316 258236.480000
   8103   8105     1   0.15375 251793.120000
   8103   8123     1   0.14233 265014.560000
   8105   8106     1   0.15375 251793.120000
   8105   8112     1   0.14233 265014.560000
   8106   8107     1   0.15375 251793.120000
   8106   8125     1   0.14647 272713.120000
   8107   8111     1   0.14233 265014.560000
   8107   8120     1   0.14316 258236.480000
   8113   8118     1   0.14233 265014.560000
   8126   8127     1   0.15375 251793.120000
   8126   8137     1   0.15375 251793.120000
   8126   8144     1   0.14316 258236.480000
   8127   8129     1   0.15375 251793.120000
   8127   8147     1   0.14233 265014.560000
   8129   8130     1   0.15375 251793.120000
   8129   8136     1   0.14233 265014.560000
   8130   8131     1   0.15375 251793.120000
   8130   8149     1   0.14647 272713.120000
   8131   8135     1   0.14233 265014.560000
   8131   8144     1   0.14316 258236.480000
   8137   8142     1   0.14233 265014.560000
   8151   8153     1   0.14619 275056.160000
   8153   8155     1   0.15375 251793.120000
   8155   8159     1   0.15110 237065.440000
   8159   8160     1   0.15110 237065.440000
   8159   8161     1   0.15110 237065.440000
   8160   8171     1   0.15375 251793.120000
   8161   8163     1   0.15375 251793.120000
   8163   8167     1   0.15241 261918.400000
   8167   8168     1   0.12183 533627.360000
   8167   8199     1   0.13400 406935.840000
   8171   8174     1   0.15241 261918.400000
   8174   8175     1   0.12183 533627.360000
   8174   8223     1   0.13400 406935.840000
   8176   8177     1   0.15375 251793.120000
   8176   8187     1   0.15375 251793.120000
   8176   8194     1   0.14316 258236.480000
   8177   8179     1   0.15375 251793.120000
   8177   8197     1   0.14233 265014.560000
   8179   8180     1   0.15375 251793.120000
   8179   8186     1   0.14233 265014.560000
   8180   8181     1   0.15375 251793.120000
   8180   8199     1   0.14647 272713.120000
   8181   8185     1   0.14233 265014.560000
   8181   8194     1   0.14316 258236.480000
   8187   8192     1   0.14233 265014.560000
   8200   8201     1   0.15375 251793.120000
   8200   8211     1   0.15375 251793.120000
   8200   8218     1   0.14316 258236.480000
   8201   8203     1   0.15375 251793.120000
   8201   8221     1   0.14233 265014.560000
   8203   8204     1   0.15375 251793.120000
   8203   8210     1   0.14233 265014.560000
   8204   8205     1   0.15375 251793.120000
   8204   8223     1   0.14647 272713.120000
   8205   8209     1   0.14233 265014.560000
   8205   8218     1   0.14316 258236.480000
   8211   8216     1   0.14233 265014.560000
   8225   8227     1   0.14619 275056.160000
   8227   8229     1   0.15375 251793.120000
   8229   8233     1   0.15110 237065.440000
   8233   8234     1   0.15110 237065.440000
   8233   8235     1   0.15110 237065.440000
   8234   8245     1   0.15375 251793.120000
   8235   8237     1   0.15375 251793.120000
   8237   8241     1   0.15241 261918.400000
   8241   8242     1   0.12183 533627.360000
   8241   8273     1   0.13400 406935.840000
   8245   8248     1   0.15241 261918.400000
   8248   8249     1   0.12183 533627.360000
   8248   8297     1   0.13400 406935.840000
   8250   8251     1   0.15375 251793.120000
   8250   8261     1   0.15375 251793.120000
   8250   8268     1   0.14316 258236.480000
   8251   8253     1   0.15375 251793.120000
   8251   8271     1   0.14233 265014.560000
   8253   8254     1   0.15375 251793.120000
   8253   8260     1   0.14233 265014.560000
   8254   8255     1   0.15375 251793.120000
   8254   8273     1   0.14647 272713.120000
   8255   8259     1   0.14233 265014.560000
   8255   8268     1   0.14316 258236.480000
   8261   8266     1   0.14233 265014.560000
   8274   8275     1   0.15375 251793.120000
   8274   8285     1   0.15375 251793.120000
   8274   8292     1   0.14316 258236.480000
   8275   8277     1   0.15375 251793.120000
   8275   8295     1   0.14233 265014.560000
   8277   8278     1   0.15375 251793.120000
   8277   8284     1   0.14233 265014.560000
   8278   8279     1   0.15375 251793.120000
   8278   8297     1   0.14647 272713.120000
   8279   8283     1   0.14233 265014.560000
   8279   8292     1   0.14316 258236.480000
   8285   8290     1   0.14233 265014.560000
   8299   8301     1   0.14619 275056.160000
   8301   8303     1   0.15375 251793.120000
   8303   8307     1   0.15110 237065.440000
   8307   8308     1   0.15110 237065.440000
   8307   8309     1   0.15110 237065.440000
   8308   8319     1   0.15375 251793.120000
   8309   8311     1   0.15375 251793.120000
   8311   8315     1   0.15241 261918.400000
   8315   8316     1   0.12183 533627.360000
   8315   8347     1   0.13400 406935.840000
   8319   8322     1   0.15241 261918.400000
   8322   8323     1   0.12183 533627.360000
   8322   8371     1   0.13400 406935.840000
   8324   8325     1   0.15375 251793.120000
   8324   8335     1   0.15375 251793.120000
   8324   8342     1   0.14316 258236.480000
   8325   8327     1   0.15375 251793.120000
   8325   8345     1   0.14233 265014.560000
   8327   8328     1   0.15375 251793.120000
   8327   8334     1   0.14233 265014.560000
   8328   8329     1   0.15375 251793.120000
   8328   8347     1   0.14647 272713.120000
   8329   8333     1   0.14233 265014.560000
   8329   8342     1   0.14316 258236.480000
   8335   8340     1   0.14233 265014.560000
   8348   8349     1   0.15375 251793.120000
   8348   8359     1   0.15375 251793.120000
   8348   8366     1   0.14316 258236.480000
   8349   8351     1   0.15375 251793.120000
   8349   8369     1   0.14233 265014.560000
   8351   8352     1   0.15375 251793.120000
   8351   8358     1   0.14233 265014.560000
   8352   8353     1   0.15375 251793.120000
   8352   8371     1   0.14647 272713.120000
   8353   8357     1   0.14233 265014.560000
   8353   8366     1   0.14316 258236.480000
   8359   8364     1   0.14233 265014.560000
   8373   8375     1   0.14619 275056.160000
   8375   8377     1   0.15375 251793.120000
   8377   8381     1   0.15110 237065.440000
   8381   8382     1   0.15110 237065.440000
   8381   8383     1   0.15110 237065.440000
   8382   8393     1   0.15375 251793.120000
   8383   8385     1   0.15375 251793.120000
   8385   8389     1   0.15241 261918.400000
   8389   8390     1   0.12183 533627.360000
   8389   8421     1   0.13400 406935.840000
   8393   8396     1   0.15241 261918.400000
   8396   8397     1   0.12183 533627.360000
   8396   8445     1   0.13400 406935.840000
   8398   8399     1   0.15375 251793.120000
   8398   8409     1   0.15375 251793.120000
   8398   8416     1   0.14316 258236.480000
   8399   8401     1   0.15375 251793.120000
   8399   8419     1   0.14233 265014.560000
   8401   8402     1   0.15375 251793.120000
   8401   8408     1   0.14233 265014.560000
   8402   8403     1   0.15375 251793.120000
   8402   8421     1   0.14647 272713.120000
   8403   8407     1   0.14233 265014.560000
   8403   8416     1   0.14316 258236.480000
   8409   8414     1   0.14233 265014.560000
   8422   8423     1   0.15375 251793.120000
   8422   8433     1   0.15375 251793.120000
   8422   8440     1   0.14316 258236.480000
   8423   8425     1   0.15375 251793.120000
   8423   8443     1   0.14233 265014.560000
   8425   8426     1   0.15375 251793.120000
   8425   8432     1   0.14233 265014.560000
   8426   8427     1   0.15375 251793.120000
   8426   8445     1   0.14647 272713.120000
   8427   8431     1   0.14233 265014.560000
   8427   8440     1   0.14316 258236.480000
   8433   8438     1   0.14233 265014.560000
   8447   8449     1   0.14619 275056.160000
   8449   8451     1   0.15375 251793.120000
   8451   8455     1   0.15110 237065.440000
   8455   8456     1   0.15110 237065.440000
   8455   8457     1   0.15110 237065.440000
   8456   8467     1   0.15375 251793.120000
   8457   8459     1   0.15375 251793.120000
   8459   8463     1   0.15241 261918.400000
   8463   8464     1   0.12183 533627.360000
   8463   8495     1   0.13400 406935.840000
   8467   8470     1   0.15241 261918.400000
   8470   8471     1   0.12183 533627.360000
   8470   8519     1   0.13400 406935.840000
   8472   8473     1   0.15375 251793.120000
   8472   8483     1   0.15375 251793.120000
   8472   8490     1   0.14316 258236.480000
   8473   8475     1   0.15375 251793.120000
   8473   8493     1   0.14233 265014.560000
   8475   8476     1   0.15375 251793.120000
   8475   8482     1   0.14233 265014.560000
   8476   8477     1   0.15375 251793.120000
   8476   8495     1   0.14647 272713.120000
   8477   8481     1   0.14233 265014.560000
   8477   8490     1   0.14316 258236.480000
   8483   8488     1   0.14233 265014.560000
   8496   8497     1   0.15375 251793.120000
   8496   8507     1   0.15375 251793.120000
   8496   8514     1   0.14316 258236.480000
   8497   8499     1   0.15375 251793.120000
   8497   8517     1   0.14233 265014.560000
   8499   8500     1   0.15375 251793.120000
   8499   8506     1   0.14233 265014.560000
   8500   8501     1   0.15375 251793.120000
   8500   8519     1   0.14647 272713.120000
   8501   8505     1   0.14233 265014.560000
   8501   8514     1   0.14316 258236.480000
   8507   8512     1   0.14233 265014.560000
   8521   8523     1   0.14619 275056.160000
   8523   8525     1   0.15375 251793.120000
   8525   8529     1   0.15110 237065.440000
   8529   8530     1   0.15110 237065.440000
   8529   8531     1   0.15110 237065.440000
   8530   8541     1   0.15375 251793.120000
   8531   8533     1   0.15375 251793.120000
   8533   8537     1   0.15241 261918.400000
   8537   8538     1   0.12183 533627.360000
   8537   8569     1   0.13400 406935.840000
   8541   8544     1   0.15241 261918.400000
   8544   8545     1   0.12183 533627.360000
   8544   8593     1   0.13400 406935.840000
   8546   8547     1   0.15375 251793.120000
   8546   8557     1   0.15375 251793.120000
   8546   8564     1   0.14316 258236.480000
   8547   8549     1   0.15375 251793.120000
   8547   8567     1   0.14233 265014.560000
   8549   8550     1   0.15375 251793.120000
   8549   8556     1   0.14233 265014.560000
   8550   8551     1   0.15375 251793.120000
   8550   8569     1   0.14647 272713.120000
   8551   8555     1   0.14233 265014.560000
   8551   8564     1   0.14316 258236.480000
   8557   8562     1   0.14233 265014.560000
   8570   8571     1   0.15375 251793.120000
   8570   8581     1   0.15375 251793.120000
   8570   8588     1   0.14316 258236.480000
   8571   8573     1   0.15375 251793.120000
   8571   8591     1   0.14233 265014.560000
   8573   8574     1   0.15375 251793.120000
   8573   8580     1   0.14233 265014.560000
   8574   8575     1   0.15375 251793.120000
   8574   8593     1   0.14647 272713.120000
   8575   8579     1   0.14233 265014.560000
   8575   8588     1   0.14316 258236.480000
   8581   8586     1   0.14233 265014.560000
   8595   8597     1   0.14619 275056.160000
   8597   8599     1   0.15375 251793.120000
   8599   8603     1   0.15110 237065.440000
   8603   8604     1   0.15110 237065.440000
   8603   8605     1   0.15110 237065.440000
   8604   8615     1   0.15375 251793.120000
   8605   8607     1   0.15375 251793.120000
   8607   8611     1   0.15241 261918.400000
   8611   8612     1   0.12183 533627.360000
   8611   8643     1   0.13400 406935.840000
   8615   8618     1   0.15241 261918.400000
   8618   8619     1   0.12183 533627.360000
   8618   8667     1   0.13400 406935.840000
   8620   8621     1   0.15375 251793.120000
   8620   8631     1   0.15375 251793.120000
   8620   8638     1   0.14316 258236.480000
   8621   8623     1   0.15375 251793.120000
   8621   8641     1   0.14233 265014.560000
   8623   8624     1   0.15375 251793.120000
   8623   8630     1   0.14233 265014.560000
   8624   8625     1   0.15375 251793.120000
   8624   8643     1   0.14647 272713.120000
   8625   8629     1   0.14233 265014.560000
   8625   8638     1   0.14316 258236.480000
   8631   8636     1   0.14233 265014.560000
   8644   8645     1   0.15375 251793.120000
   8644   8655     1   0.15375 251793.120000
   8644   8662     1   0.14316 258236.480000
   8645   8647     1   0.15375 251793.120000
   8645   8665     1   0.14233 265014.560000
   8647   8648     1   0.15375 251793.120000
   8647   8654     1   0.14233 265014.560000
   8648   8649     1   0.15375 251793.120000
   8648   8667     1   0.14647 272713.120000
   8649   8653     1   0.14233 265014.560000
   8649   8662     1   0.14316 258236.480000
   8655   8660     1   0.14233 265014.560000
   8669   8671     1   0.14619 275056.160000
   8671   8673     1   0.15375 251793.120000
   8673   8677     1   0.15110 237065.440000
   8677   8678     1   0.15110 237065.440000
   8677   8679     1   0.15110 237065.440000
   8678   8689     1   0.15375 251793.120000
   8679   8681     1   0.15375 251793.120000
   8681   8685     1   0.15241 261918.400000
   8685   8686     1   0.12183 533627.360000
   8685   8717     1   0.13400 406935.840000
   8689   8692     1   0.15241 261918.400000
   8692   8693     1   0.12183 533627.360000
   8692   8741     1   0.13400 406935.840000
   8694   8695     1   0.15375 251793.120000
   8694   8705     1   0.15375 251793.120000
   8694   8712     1   0.14316 258236.480000
   8695   8697     1   0.15375 251793.120000
   8695   8715     1   0.14233 265014.560000
   8697   8698     1   0.15375 251793.120000
   8697   8704     1   0.14233 265014.560000
   8698   8699     1   0.15375 251793.120000
   8698   8717     1   0.14647 272713.120000
   8699   8703     1   0.14233 265014.560000
   8699   8712     1   0.14316 258236.480000
   8705   8710     1   0.14233 265014.560000
   8718   8719     1   0.15375 251793.120000
   8718   8729     1   0.15375 251793.120000
   8718   8736     1   0.14316 258236.480000
   8719   8721     1   0.15375 251793.120000
   8719   8739     1   0.14233 265014.560000
   8721   8722     1   0.15375 251793.120000
   8721   8728     1   0.14233 265014.560000
   8722   8723     1   0.15375 251793.120000
   8722   8741     1   0.14647 272713.120000
   8723   8727     1   0.14233 265014.560000
   8723   8736     1   0.14316 258236.480000
   8729   8734     1   0.14233 265014.560000
   8743   8745     1   0.14619 275056.160000
   8745   8747     1   0.15375 251793.120000
   8747   8751     1   0.15110 237065.440000
   8751   8752     1   0.15110 237065.440000
   8751   8753     1   0.15110 237065.440000
   8752   8763     1   0.15375 251793.120000
   8753   8755     1   0.15375 251793.120000
   8755   8759     1   0.15241 261918.400000
   8759   8760     1   0.12183 533627.360000
   8759   8791     1   0.13400 406935.840000
   8763   8766     1   0.15241 261918.400000
   8766   8767     1   0.12183 533627.360000
   8766   8815     1   0.13400 406935.840000
   8768   8769     1   0.15375 251793.120000
   8768   8779     1   0.15375 251793.120000
   8768   8786     1   0.14316 258236.480000
   8769   8771     1   0.15375 251793.120000
   8769   8789     1   0.14233 265014.560000
   8771   8772     1   0.15375 251793.120000
   8771   8778     1   0.14233 265014.560000
   8772   8773     1   0.15375 251793.120000
   8772   8791     1   0.14647 272713.120000
   8773   8777     1   0.14233 265014.560000
   8773   8786     1   0.14316 258236.480000
   8779   8784     1   0.14233 265014.560000
   8792   8793     1   0.15375 251793.120000
   8792   8803     1   0.15375 251793.120000
   8792   8810     1   0.14316 258236.480000
   8793   8795     1   0.15375 251793.120000
   8793   8813     1   0.14233 265014.560000
   8795   8796     1   0.15375 251793.120000
   8795   8802     1   0.14233 265014.560000
   8796   8797     1   0.15375 251793.120000
   8796   8815     1   0.14647 272713.120000
   8797   8801     1   0.14233 265014.560000
   8797   8810     1   0.14316 258236.480000
   8803   8808     1   0.14233 265014.560000
   8817   8819     1   0.14619 275056.160000
   8819   8821     1   0.15375 251793.120000
   8821   8825     1   0.15110 237065.440000
   8825   8826     1   0.15110 237065.440000
   8825   8827     1   0.15110 237065.440000
   8826   8837     1   0.15375 251793.120000
   8827   8829     1   0.15375 251793.120000
   8829   8833     1   0.15241 261918.400000
   8833   8834     1   0.12183 533627.360000
   8833   8865     1   0.13400 406935.840000
   8837   8840     1   0.15241 261918.400000
   8840   8841     1   0.12183 533627.360000
   8840   8889     1   0.13400 406935.840000
   8842   8843     1   0.15375 251793.120000
   8842   8853     1   0.15375 251793.120000
   8842   8860     1   0.14316 258236.480000
   8843   8845     1   0.15375 251793.120000
   8843   8863     1   0.14233 265014.560000
   8845   8846     1   0.15375 251793.120000
   8845   8852     1   0.14233 265014.560000
   8846   8847     1   0.15375 251793.120000
   8846   8865     1   0.14647 272713.120000
   8847   8851     1   0.14233 265014.560000
   8847   8860     1   0.14316 258236.480000
   8853   8858     1   0.14233 265014.560000
   8866   8867     1   0.15375 251793.120000
   8866   8877     1   0.15375 251793.120000
   8866   8884     1   0.14316 258236.480000
   8867   8869     1   0.15375 251793.120000
   8867   8887     1   0.14233 265014.560000
   8869   8870     1   0.15375 251793.120000
   8869   8876     1   0.14233 265014.560000
   8870   8871     1   0.15375 251793.120000
   8870   8889     1   0.14647 272713.120000
   8871   8875     1   0.14233 265014.560000
   8871   8884     1   0.14316 258236.480000
   8877   8882     1   0.14233 265014.560000
   8891   8893     1   0.14619 275056.160000
   8893   8895     1   0.15375 251793.120000
   8895   8899     1   0.15110 237065.440000
   8899   8900     1   0.15110 237065.440000
   8899   8901     1   0.15110 237065.440000
   8900   8911     1   0.15375 251793.120000
   8901   8903     1   0.15375 251793.120000
   8903   8907     1   0.15241 261918.400000
   8907   8908     1   0.12183 533627.360000
   8907   8939     1   0.13400 406935.840000
   8911   8914     1   0.15241 261918.400000
   8914   8915     1   0.12183 533627.360000
   8914   8963     1   0.13400 406935.840000
   8916   8917     1   0.15375 251793.120000
   8916   8927     1   0.15375 251793.120000
   8916   8934     1   0.14316 258236.480000
   8917   8919     1   0.15375 251793.120000
   8917   8937     1   0.14233 265014.560000
   8919   8920     1   0.15375 251793.120000
   8919   8926     1   0.14233 265014.560000
   8920   8921     1   0.15375 251793.120000
   8920   8939     1   0.14647 272713.120000
   8921   8925     1   0.14233 265014.560000
   8921   8934     1   0.14316 258236.480000
   8927   8932     1   0.14233 265014.560000
   8940   8941     1   0.15375 251793.120000
   8940   8951     1   0.15375 251793.120000
   8940   8958     1   0.14316 258236.480000
   8941   8943     1   0.15375 251793.120000
   8941   8961     1   0.14233 265014.560000
   8943   8944     1   0.15375 251793.120000
   8943   8950     1   0.14233 265014.560000
   8944   8945     1   0.15375 251793.120000
   8944   8963     1   0.14647 272713.120000
   8945   8949     1   0.14233 265014.560000
   8945   8958     1   0.14316 258236.480000
   8951   8956     1   0.14233 265014.560000
   8965   8967     1   0.14619 275056.160000
   8967   8969     1   0.15375 251793.120000
   8969   8973     1   0.15110 237065.440000
   8973   8974     1   0.15110 237065.440000
   8973   8975     1   0.15110 237065.440000
   8974   8985     1   0.15375 251793.120000
   8975   8977     1   0.15375 251793.120000
   8977   8981     1   0.15241 261918.400000
   8981   8982     1   0.12183 533627.360000
   8981   9013     1   0.13400 406935.840000
   8985   8988     1   0.15241 261918.400000
   8988   8989     1   0.12183 533627.360000
   8988   9037     1   0.13400 406935.840000
   8990   8991     1   0.15375 251793.120000
   8990   9001     1   0.15375 251793.120000
   8990   9008     1   0.14316 258236.480000
   8991   8993     1   0.15375 251793.120000
   8991   9011     1   0.14233 265014.560000
   8993   8994     1   0.15375 251793.120000
   8993   9000     1   0.14233 265014.560000
   8994   8995     1   0.15375 251793.120000
   8994   9013     1   0.14647 272713.120000
   8995   8999     1   0.14233 265014.560000
   8995   9008     1   0.14316 258236.480000
   9001   9006     1   0.14233 265014.560000
   9014   9015     1   0.15375 251793.120000
   9014   9025     1   0.15375 251793.120000
   9014   9032     1   0.14316 258236.480000
   9015   9017     1   0.15375 251793.120000
   9015   9035     1   0.14233 265014.560000
   9017   9018     1   0.15375 251793.120000
   9017   9024     1   0.14233 265014.560000
   9018   9019     1   0.15375 251793.120000
   9018   9037     1   0.14647 272713.120000
   9019   9023     1   0.14233 265014.560000
   9019   9032     1   0.14316 258236.480000
   9025   9030     1   0.14233 265014.560000
   9039   9041     1   0.14619 275056.160000
   9041   9043     1   0.15375 251793.120000
   9043   9047     1   0.15110 237065.440000
   9047   9048     1   0.15110 237065.440000
   9047   9049     1   0.15110 237065.440000
   9048   9059     1   0.15375 251793.120000
   9049   9051     1   0.15375 251793.120000
   9051   9055     1   0.15241 261918.400000
   9055   9056     1   0.12183 533627.360000
   9055   9087     1   0.13400 406935.840000
   9059   9062     1   0.15241 261918.400000
   9062   9063     1   0.12183 533627.360000
   9062   9111     1   0.13400 406935.840000
   9064   9065     1   0.15375 251793.120000
   9064   9075     1   0.15375 251793.120000
   9064   9082     1   0.14316 258236.480000
   9065   9067     1   0.15375 251793.120000
   9065   9085     1   0.14233 265014.560000
   9067   9068     1   0.15375 251793.120000
   9067   9074     1   0.14233 265014.560000
   9068   9069     1   0.15375 251793.120000
   9068   9087     1   0.14647 272713.120000
   9069   9073     1   0.14233 265014.560000
   9069   9082     1   0.14316 258236.480000
   9075   9080     1   0.14233 265014.560000
   9088   9089     1   0.15375 251793.120000
   9088   9099     1   0.15375 251793.120000
   9088   9106     1   0.14316 258236.480000
   9089   9091     1   0.15375 251793.120000
   9089   9109     1   0.14233 265014.560000
   9091   9092     1   0.15375 251793.120000
   9091   9098     1   0.14233 265014.560000
   9092   9093     1   0.15375 251793.120000
   9092   9111     1   0.14647 272713.120000
   9093   9097     1   0.14233 265014.560000
   9093   9106     1   0.14316 258236.480000
   9099   9104     1   0.14233 265014.560000
   9113   9115     1   0.14619 275056.160000
   9115   9117     1   0.15375 251793.120000
   9117   9121     1   0.15110 237065.440000
   9121   9122     1   0.15110 237065.440000
   9121   9123     1   0.15110 237065.440000
   9122   9133     1   0.15375 251793.120000
   9123   9125     1   0.15375 251793.120000
   9125   9129     1   0.15241 261918.400000
   9129   9130     1   0.12183 533627.360000
   9129   9161     1   0.13400 406935.840000
   9133   9136     1   0.15241 261918.400000
   9136   9137     1   0.12183 533627.360000
   9136   9185     1   0.13400 406935.840000
   9138   9139     1   0.15375 251793.120000
   9138   9149     1   0.15375 251793.120000
   9138   9156     1   0.14316 258236.480000
   9139   9141     1   0.15375 251793.120000
   9139   9159     1   0.14233 265014.560000
   9141   9142     1   0.15375 251793.120000
   9141   9148     1   0.14233 265014.560000
   9142   9143     1   0.15375 251793.120000
   9142   9161     1   0.14647 272713.120000
   9143   9147     1   0.14233 265014.560000
   9143   9156     1   0.14316 258236.480000
   9149   9154     1   0.14233 265014.560000
   9162   9163     1   0.15375 251793.120000
   9162   9173     1   0.15375 251793.120000
   9162   9180     1   0.14316 258236.480000
   9163   9165     1   0.15375 251793.120000
   9163   9183     1   0.14233 265014.560000
   9165   9166     1   0.15375 251793.120000
   9165   9172     1   0.14233 265014.560000
   9166   9167     1   0.15375 251793.120000
   9166   9185     1   0.14647 272713.120000
   9167   9171     1   0.14233 265014.560000
   9167   9180     1   0.14316 258236.480000
   9173   9178     1   0.14233 265014.560000
   9187   9189     1   0.14619 275056.160000
   9189   9191     1   0.15375 251793.120000
   9191   9195     1   0.15110 237065.440000
   9195   9196     1   0.15110 237065.440000
   9195   9197     1   0.15110 237065.440000
   9196   9207     1   0.15375 251793.120000
   9197   9199     1   0.15375 251793.120000
   9199   9203     1   0.15241 261918.400000
   9203   9204     1   0.12183 533627.360000
   9203   9235     1   0.13400 406935.840000
   9207   9210     1   0.15241 261918.400000
   9210   9211     1   0.12183 533627.360000
   9210   9259     1   0.13400 406935.840000
   9212   9213     1   0.15375 251793.120000
   9212   9223     1   0.15375 251793.120000
   9212   9230     1   0.14316 258236.480000
   9213   9215     1   0.15375 251793.120000
   9213   9233     1   0.14233 265014.560000
   9215   9216     1   0.15375 251793.120000
   9215   9222     1   0.14233 265014.560000
   9216   9217     1   0.15375 251793.120000
   9216   9235     1   0.14647 272713.120000
   9217   9221     1   0.14233 265014.560000
   9217   9230     1   0.14316 258236.480000
   9223   9228     1   0.14233 265014.560000
   9236   9237     1   0.15375 251793.120000
   9236   9247     1   0.15375 251793.120000
   9236   9254     1   0.14316 258236.480000
   9237   9239     1   0.15375 251793.120000
   9237   9257     1   0.14233 265014.560000
   9239   9240     1   0.15375 251793.120000
   9239   9246     1   0.14233 265014.560000
   9240   9241     1   0.15375 251793.120000
   9240   9259     1   0.14647 272713.120000
   9241   9245     1   0.14233 265014.560000
   9241   9254     1   0.14316 258236.480000
   9247   9252     1   0.14233 265014.560000
   9261   9263     1   0.14619 275056.160000
   9263   9265     1   0.15375 251793.120000
   9265   9269     1   0.15110 237065.440000
   9269   9270     1   0.15110 237065.440000
   9269   9271     1   0.15110 237065.440000
   9270   9281     1   0.15375 251793.120000
   9271   9273     1   0.15375 251793.120000
   9273   9277     1   0.15241 261918.400000
   9277   9278     1   0.12183 533627.360000
   9277   9309     1   0.13400 406935.840000
   9281   9284     1   0.15241 261918.400000
   9284   9285     1   0.12183 533627.360000
   9284   9333     1   0.13400 406935.840000
   9286   9287     1   0.15375 251793.120000
   9286   9297     1   0.15375 251793.120000
   9286   9304     1   0.14316 258236.480000
   9287   9289     1   0.15375 251793.120000
   9287   9307     1   0.14233 265014.560000
   9289   9290     1   0.15375 251793.120000
   9289   9296     1   0.14233 265014.560000
   9290   9291     1   0.15375 251793.120000
   9290   9309     1   0.14647 272713.120000
   9291   9295     1   0.14233 265014.560000
   9291   9304     1   0.14316 258236.480000
   9297   9302     1   0.14233 265014.560000
   9310   9311     1   0.15375 251793.120000
   9310   9321     1   0.15375 251793.120000
   9310   9328     1   0.14316 258236.480000
   9311   9313     1   0.15375 251793.120000
   9311   9331     1   0.14233 265014.560000
   9313   9314     1   0.15375 251793.120000
   9313   9320     1   0.14233 265014.560000
   9314   9315     1   0.15375 251793.120000
   9314   9333     1   0.14647 272713.120000
   9315   9319     1   0.14233 265014.560000
   9315   9328     1   0.14316 258236.480000
   9321   9326     1   0.14233 265014.560000
   9335   9337     1   0.14619 275056.160000
   9337   9339     1   0.15375 251793.120000
   9339   9343     1   0.15110 237065.440000
   9343   9344     1   0.15110 237065.440000
   9343   9345     1   0.15110 237065.440000
   9344   9355     1   0.15375 251793.120000
   9345   9347     1   0.15375 251793.120000
   9347   9351     1   0.15241 261918.400000
   9351   9352     1   0.12183 533627.360000
   9351   9383     1   0.13400 406935.840000
   9355   9358     1   0.15241 261918.400000
   9358   9359     1   0.12183 533627.360000
   9358   9407     1   0.13400 406935.840000
   9360   9361     1   0.15375 251793.120000
   9360   9371     1   0.15375 251793.120000
   9360   9378     1   0.14316 258236.480000
   9361   9363     1   0.15375 251793.120000
   9361   9381     1   0.14233 265014.560000
   9363   9364     1   0.15375 251793.120000
   9363   9370     1   0.14233 265014.560000
   9364   9365     1   0.15375 251793.120000
   9364   9383     1   0.14647 272713.120000
   9365   9369     1   0.14233 265014.560000
   9365   9378     1   0.14316 258236.480000
   9371   9376     1   0.14233 265014.560000
   9384   9385     1   0.15375 251793.120000
   9384   9395     1   0.15375 251793.120000
   9384   9402     1   0.14316 258236.480000
   9385   9387     1   0.15375 251793.120000
   9385   9405     1   0.14233 265014.560000
   9387   9388     1   0.15375 251793.120000
   9387   9394     1   0.14233 265014.560000
   9388   9389     1   0.15375 251793.120000
   9388   9407     1   0.14647 272713.120000
   9389   9393     1   0.14233 265014.560000
   9389   9402     1   0.14316 258236.480000
   9395   9400     1   0.14233 265014.560000
   9409   9411     1   0.14619 275056.160000
   9411   9413     1   0.15375 251793.120000
   9413   9417     1   0.15110 237065.440000
   9417   9418     1   0.15110 237065.440000
   9417   9419     1   0.15110 237065.440000
   9418   9429     1   0.15375 251793.120000
   9419   9421     1   0.15375 251793.120000
   9421   9425     1   0.15241 261918.400000
   9425   9426     1   0.12183 533627.360000
   9425   9457     1   0.13400 406935.840000
   9429   9432     1   0.15241 261918.400000
   9432   9433     1   0.12183 533627.360000
   9432   9481     1   0.13400 406935.840000
   9434   9435     1   0.15375 251793.120000
   9434   9445     1   0.15375 251793.120000
   9434   9452     1   0.14316 258236.480000
   9435   9437     1   0.15375 251793.120000
   9435   9455     1   0.14233 265014.560000
   9437   9438     1   0.15375 251793.120000
   9437   9444     1   0.14233 265014.560000
   9438   9439     1   0.15375 251793.120000
   9438   9457     1   0.14647 272713.120000
   9439   9443     1   0.14233 265014.560000
   9439   9452     1   0.14316 258236.480000
   9445   9450     1   0.14233 265014.560000
   9458   9459     1   0.15375 251793.120000
   9458   9469     1   0.15375 251793.120000
   9458   9476     1   0.14316 258236.480000
   9459   9461     1   0.15375 251793.120000
   9459   9479     1   0.14233 265014.560000
   9461   9462     1   0.15375 251793.120000
   9461   9468     1   0.14233 265014.560000
   9462   9463     1   0.15375 251793.120000
   9462   9481     1   0.14647 272713.120000
   9463   9467     1   0.14233 265014.560000
   9463   9476     1   0.14316 258236.480000
   9469   9474     1   0.14233 265014.560000
   9483   9485     1   0.14619 275056.160000
   9485   9487     1   0.15375 251793.120000
   9487   9491     1   0.15110 237065.440000
   9491   9492     1   0.15110 237065.440000
   9491   9493     1   0.15110 237065.440000
   9492   9503     1   0.15375 251793.120000
   9493   9495     1   0.15375 251793.120000
   9495   9499     1   0.15241 261918.400000
   9499   9500     1   0.12183 533627.360000
   9499   9531     1   0.13400 406935.840000
   9503   9506     1   0.15241 261918.400000
   9506   9507     1   0.12183 533627.360000
   9506   9555     1   0.13400 406935.840000
   9508   9509     1   0.15375 251793.120000
   9508   9519     1   0.15375 251793.120000
   9508   9526     1   0.14316 258236.480000
   9509   9511     1   0.15375 251793.120000
   9509   9529     1   0.14233 265014.560000
   9511   9512     1   0.15375 251793.120000
   9511   9518     1   0.14233 265014.560000
   9512   9513     1   0.15375 251793.120000
   9512   9531     1   0.14647 272713.120000
   9513   9517     1   0.14233 265014.560000
   9513   9526     1   0.14316 258236.480000
   9519   9524     1   0.14233 265014.560000
   9532   9533     1   0.15375 251793.120000
   9532   9543     1   0.15375 251793.120000
   9532   9550     1   0.14316 258236.480000
   9533   9535     1   0.15375 251793.120000
   9533   9553     1   0.14233 265014.560000
   9535   9536     1   0.15375 251793.120000
   9535   9542     1   0.14233 265014.560000
   9536   9537     1   0.15375 251793.120000
   9536   9555     1   0.14647 272713.120000
   9537   9541     1   0.14233 265014.560000
   9537   9550     1   0.14316 258236.480000
   9543   9548     1   0.14233 265014.560000
   9557   9559     1   0.14619 275056.160000
   9559   9561     1   0.15375 251793.120000
   9561   9565     1   0.15110 237065.440000
   9565   9566     1   0.15110 237065.440000
   9565   9567     1   0.15110 237065.440000
   9566   9577     1   0.15375 251793.120000
   9567   9569     1   0.15375 251793.120000
   9569   9573     1   0.15241 261918.400000
   9573   9574     1   0.12183 533627.360000
   9573   9605     1   0.13400 406935.840000
   9577   9580     1   0.15241 261918.400000
   9580   9581     1   0.12183 533627.360000
   9580   9629     1   0.13400 406935.840000
   9582   9583     1   0.15375 251793.120000
   9582   9593     1   0.15375 251793.120000
   9582   9600     1   0.14316 258236.480000
   9583   9585     1   0.15375 251793.120000
   9583   9603     1   0.14233 265014.560000
   9585   9586     1   0.15375 251793.120000
   9585   9592     1   0.14233 265014.560000
   9586   9587     1   0.15375 251793.120000
   9586   9605     1   0.14647 272713.120000
   9587   9591     1   0.14233 265014.560000
   9587   9600     1   0.14316 258236.480000
   9593   9598     1   0.14233 265014.560000
   9606   9607     1   0.15375 251793.120000
   9606   9617     1   0.15375 251793.120000
   9606   9624     1   0.14316 258236.480000
   9607   9609     1   0.15375 251793.120000
   9607   9627     1   0.14233 265014.560000
   9609   9610     1   0.15375 251793.120000
   9609   9616     1   0.14233 265014.560000
   9610   9611     1   0.15375 251793.120000
   9610   9629     1   0.14647 272713.120000
   9611   9615     1   0.14233 265014.560000
   9611   9624     1   0.14316 258236.480000
   9617   9622     1   0.14233 265014.560000
   9631   9633     1   0.14619 275056.160000
   9633   9635     1   0.15375 251793.120000
   9635   9639     1   0.15110 237065.440000
   9639   9640     1   0.15110 237065.440000
   9639   9641     1   0.15110 237065.440000
   9640   9651     1   0.15375 251793.120000
   9641   9643     1   0.15375 251793.120000
   9643   9647     1   0.15241 261918.400000
   9647   9648     1   0.12183 533627.360000
   9647   9679     1   0.13400 406935.840000
   9651   9654     1   0.15241 261918.400000
   9654   9655     1   0.12183 533627.360000
   9654   9703     1   0.13400 406935.840000
   9656   9657     1   0.15375 251793.120000
   9656   9667     1   0.15375 251793.120000
   9656   9674     1   0.14316 258236.480000
   9657   9659     1   0.15375 251793.120000
   9657   9677     1   0.14233 265014.560000
   9659   9660     1   0.15375 251793.120000
   9659   9666     1   0.14233 265014.560000
   9660   9661     1   0.15375 251793.120000
   9660   9679     1   0.14647 272713.120000
   9661   9665     1   0.14233 265014.560000
   9661   9674     1   0.14316 258236.480000
   9667   9672     1   0.14233 265014.560000
   9680   9681     1   0.15375 251793.120000
   9680   9691     1   0.15375 251793.120000
   9680   9698     1   0.14316 258236.480000
   9681   9683     1   0.15375 251793.120000
   9681   9701     1   0.14233 265014.560000
   9683   9684     1   0.15375 251793.120000
   9683   9690     1   0.14233 265014.560000
   9684   9685     1   0.15375 251793.120000
   9684   9703     1   0.14647 272713.120000
   9685   9689     1   0.14233 265014.560000
   9685   9698     1   0.14316 258236.480000
   9691   9696     1   0.14233 265014.560000
   9705   9707     1   0.14619 275056.160000
   9707   9709     1   0.15375 251793.120000
   9709   9713     1   0.15110 237065.440000
   9713   9714     1   0.15110 237065.440000
   9713   9715     1   0.15110 237065.440000
   9714   9725     1   0.15375 251793.120000
   9715   9717     1   0.15375 251793.120000
   9717   9721     1   0.15241 261918.400000
   9721   9722     1   0.12183 533627.360000
   9721   9753     1   0.13400 406935.840000
   9725   9728     1   0.15241 261918.400000
   9728   9729     1   0.12183 533627.360000
   9728   9777     1   0.13400 406935.840000
   9730   9731     1   0.15375 251793.120000
   9730   9741     1   0.15375 251793.120000
   9730   9748     1   0.14316 258236.480000
   9731   9733     1   0.15375 251793.120000
   9731   9751     1   0.14233 265014.560000
   9733   9734     1   0.15375 251793.120000
   9733   9740     1   0.14233 265014.560000
   9734   9735     1   0.15375 251793.120000
   9734   9753     1   0.14647 272713.120000
   9735   9739     1   0.14233 265014.560000
   9735   9748     1   0.14316 258236.480000
   9741   9746     1   0.14233 265014.560000
   9754   9755     1   0.15375 251793.120000
   9754   9765     1   0.15375 251793.120000
   9754   9772     1   0.14316 258236.480000
   9755   9757     1   0.15375 251793.120000
   9755   9775     1   0.14233 265014.560000
   9757   9758     1   0.15375 251793.120000
   9757   9764     1   0.14233 265014.560000
   9758   9759     1   0.15375 251793.120000
   9758   9777     1   0.14647 272713.120000
   9759   9763     1   0.14233 265014.560000
   9759   9772     1   0.14316 258236.480000
   9765   9770     1   0.14233 265014.560000
   9779   9781     1   0.14619 275056.160000
   9781   9783     1   0.15375 251793.120000
   9783   9787     1   0.15110 237065.440000
   9787   9788     1   0.15110 237065.440000
   9787   9789     1   0.15110 237065.440000
   9788   9799     1   0.15375 251793.120000
   9789   9791     1   0.15375 251793.120000
   9791   9795     1   0.15241 261918.400000
   9795   9796     1   0.12183 533627.360000
   9795   9827     1   0.13400 406935.840000
   9799   9802     1   0.15241 261918.400000
   9802   9803     1   0.12183 533627.360000
   9802   9851     1   0.13400 406935.840000
   9804   9805     1   0.15375 251793.120000
   9804   9815     1   0.15375 251793.120000
   9804   9822     1   0.14316 258236.480000
   9805   9807     1   0.15375 251793.120000
   9805   9825     1   0.14233 265014.560000
   9807   9808     1   0.15375 251793.120000
   9807   9814     1   0.14233 265014.560000
   9808   9809     1   0.15375 251793.120000
   9808   9827     1   0.14647 272713.120000
   9809   9813     1   0.14233 265014.560000
   9809   9822     1   0.14316 258236.480000
   9815   9820     1   0.14233 265014.560000
   9828   9829     1   0.15375 251793.120000
   9828   9839     1   0.15375 251793.120000
   9828   9846     1   0.14316 258236.480000
   9829   9831     1   0.15375 251793.120000
   9829   9849     1   0.14233 265014.560000
   9831   9832     1   0.15375 251793.120000
   9831   9838     1   0.14233 265014.560000
   9832   9833     1   0.15375 251793.120000
   9832   9851     1   0.14647 272713.120000
   9833   9837     1   0.14233 265014.560000
   9833   9846     1   0.14316 258236.480000
   9839   9844     1   0.14233 265014.560000
   9853   9855     1   0.14619 275056.160000
   9855   9857     1   0.15375 251793.120000
   9857   9861     1   0.15110 237065.440000
   9861   9862     1   0.15110 237065.440000
   9861   9863     1   0.15110 237065.440000
   9862   9873     1   0.15375 251793.120000
   9863   9865     1   0.15375 251793.120000
   9865   9869     1   0.15241 261918.400000
   9869   9870     1   0.12183 533627.360000
   9869   9901     1   0.13400 406935.840000
   9873   9876     1   0.15241 261918.400000
   9876   9877     1   0.12183 533627.360000
   9876   9925     1   0.13400 406935.840000
   9878   9879     1   0.15375 251793.120000
   9878   9889     1   0.15375 251793.120000
   9878   9896     1   0.14316 258236.480000
   9879   9881     1   0.15375 251793.120000
   9879   9899     1   0.14233 265014.560000
   9881   9882     1   0.15375 251793.120000
   9881   9888     1   0.14233 265014.560000
   9882   9883     1   0.15375 251793.120000
   9882   9901     1   0.14647 272713.120000
   9883   9887     1   0.14233 265014.560000
   9883   9896     1   0.14316 258236.480000
   9889   9894     1   0.14233 265014.560000
   9902   9903     1   0.15375 251793.120000
   9902   9913     1   0.15375 251793.120000
   9902   9920     1   0.14316 258236.480000
   9903   9905     1   0.15375 251793.120000
   9903   9923     1   0.14233 265014.560000
   9905   9906     1   0.15375 251793.120000
   9905   9912     1   0.14233 265014.560000
   9906   9907     1   0.15375 251793.120000
   9906   9925     1   0.14647 272713.120000
   9907   9911     1   0.14233 265014.560000
   9907   9920     1   0.14316 258236.480000
   9913   9918     1   0.14233 265014.560000
   9927   9929     1   0.14619 275056.160000
   9929   9931     1   0.15375 251793.120000
   9931   9935     1   0.15110 237065.440000
   9935   9936     1   0.15110 237065.440000
   9935   9937     1   0.15110 237065.440000
   9936   9947     1   0.15375 251793.120000
   9937   9939     1   0.15375 251793.120000
   9939   9943     1   0.15241 261918.400000
   9943   9944     1   0.12183 533627.360000
   9943   9975     1   0.13400 406935.840000
   9947   9950     1   0.15241 261918.400000
   9950   9951     1   0.12183 533627.360000
   9950   9999     1   0.13400 406935.840000
   9952   9953     1   0.15375 251793.120000
   9952   9963     1   0.15375 251793.120000
   9952   9970     1   0.14316 258236.480000
   9953   9955     1   0.15375 251793.120000
   9953   9973     1   0.14233 265014.560000
   9955   9956     1   0.15375 251793.120000
   9955   9962     1   0.14233 265014.560000
   9956   9957     1   0.15375 251793.120000
   9956   9975     1   0.14647 272713.120000
   9957   9961     1   0.14233 265014.560000
   9957   9970     1   0.14316 258236.480000
   9963   9968     1   0.14233 265014.560000
   9976   9977     1   0.15375 251793.120000
   9976   9987     1   0.15375 251793.120000
   9976   9994     1   0.14316 258236.480000
   9977   9979     1   0.15375 251793.120000
   9977   9997     1   0.14233 265014.560000
   9979   9980     1   0.15375 251793.120000
   9979   9986     1   0.14233 265014.560000
   9980   9981     1   0.15375 251793.120000
   9980   9999     1   0.14647 272713.120000
   9981   9985     1   0.14233 265014.560000
   9981   9994     1   0.14316 258236.480000
   9987   9992     1   0.14233 265014.560000
  10001  10003     1   0.14619 275056.160000
  10003  10005     1   0.15375 251793.120000
  10005  10009     1   0.15110 237065.440000
  10009  10010     1   0.15110 237065.440000
  10009  10011     1   0.15110 237065.440000
  10010  10021     1   0.15375 251793.120000
  10011  10013     1   0.15375 251793.120000
  10013  10017     1   0.15241 261918.400000
  10017  10018     1   0.12183 533627.360000
  10017  10049     1   0.13400 406935.840000
  10021  10024     1   0.15241 261918.400000
  10024  10025     1   0.12183 533627.360000
  10024  10073     1   0.13400 406935.840000
  10026  10027     1   0.15375 251793.120000
  10026  10037     1   0.15375 251793.120000
  10026  10044     1   0.14316 258236.480000
  10027  10029     1   0.15375 251793.120000
  10027  10047     1   0.14233 265014.560000
  10029  10030     1   0.15375 251793.120000
  10029  10036     1   0.14233 265014.560000
  10030  10031     1   0.15375 251793.120000
  10030  10049     1   0.14647 272713.120000
  10031  10035     1   0.14233 265014.560000
  10031  10044     1   0.14316 258236.480000
  10037  10042     1   0.14233 265014.560000
  10050  10051     1   0.15375 251793.120000
  10050  10061     1   0.15375 251793.120000
  10050  10068     1   0.14316 258236.480000
  10051  10053     1   0.15375 251793.120000
  10051  10071     1   0.14233 265014.560000
  10053  10054     1   0.15375 251793.120000
  10053  10060     1   0.14233 265014.560000
  10054  10055     1   0.15375 251793.120000
  10054  10073     1   0.14647 272713.120000
  10055  10059     1   0.14233 265014.560000
  10055  10068     1   0.14316 258236.480000
  10061  10066     1   0.14233 265014.560000
  10075  10077     1   0.14619 275056.160000
  10077  10079     1   0.15375 251793.120000
  10079  10083     1   0.15110 237065.440000
  10083  10084     1   0.15110 237065.440000
  10083  10085     1   0.15110 237065.440000
  10084  10095     1   0.15375 251793.120000
  10085  10087     1   0.15375 251793.120000
  10087  10091     1   0.15241 261918.400000
  10091  10092     1   0.12183 533627.360000
  10091  10123     1   0.13400 406935.840000
  10095  10098     1   0.15241 261918.400000
  10098  10099     1   0.12183 533627.360000
  10098  10147     1   0.13400 406935.840000
  10100  10101     1   0.15375 251793.120000
  10100  10111     1   0.15375 251793.120000
  10100  10118     1   0.14316 258236.480000
  10101  10103     1   0.15375 251793.120000
  10101  10121     1   0.14233 265014.560000
  10103  10104     1   0.15375 251793.120000
  10103  10110     1   0.14233 265014.560000
  10104  10105     1   0.15375 251793.120000
  10104  10123     1   0.14647 272713.120000
  10105  10109     1   0.14233 265014.560000
  10105  10118     1   0.14316 258236.480000
  10111  10116     1   0.14233 265014.560000
  10124  10125     1   0.15375 251793.120000
  10124  10135     1   0.15375 251793.120000
  10124  10142     1   0.14316 258236.480000
  10125  10127     1   0.15375 251793.120000
  10125  10145     1   0.14233 265014.560000
  10127  10128     1   0.15375 251793.120000
  10127  10134     1   0.14233 265014.560000
  10128  10129     1   0.15375 251793.120000
  10128  10147     1   0.14647 272713.120000
  10129  10133     1   0.14233 265014.560000
  10129  10142     1   0.14316 258236.480000
  10135  10140     1   0.14233 265014.560000
  10149  10151     1   0.14619 275056.160000
  10151  10153     1   0.15375 251793.120000
  10153  10157     1   0.15110 237065.440000
  10157  10158     1   0.15110 237065.440000
  10157  10159     1   0.15110 237065.440000
  10158  10169     1   0.15375 251793.120000
  10159  10161     1   0.15375 251793.120000
  10161  10165     1   0.15241 261918.400000
  10165  10166     1   0.12183 533627.360000
  10165  10197     1   0.13400 406935.840000
  10169  10172     1   0.15241 261918.400000
  10172  10173     1   0.12183 533627.360000
  10172  10221     1   0.13400 406935.840000
  10174  10175     1   0.15375 251793.120000
  10174  10185     1   0.15375 251793.120000
  10174  10192     1   0.14316 258236.480000
  10175  10177     1   0.15375 251793.120000
  10175  10195     1   0.14233 265014.560000
  10177  10178     1   0.15375 251793.120000
  10177  10184     1   0.14233 265014.560000
  10178  10179     1   0.15375 251793.120000
  10178  10197     1   0.14647 272713.120000
  10179  10183     1   0.14233 265014.560000
  10179  10192     1   0.14316 258236.480000
  10185  10190     1   0.14233 265014.560000
  10198  10199     1   0.15375 251793.120000
  10198  10209     1   0.15375 251793.120000
  10198  10216     1   0.14316 258236.480000
  10199  10201     1   0.15375 251793.120000
  10199  10219     1   0.14233 265014.560000
  10201  10202     1   0.15375 251793.120000
  10201  10208     1   0.14233 265014.560000
  10202  10203     1   0.15375 251793.120000
  10202  10221     1   0.14647 272713.120000
  10203  10207     1   0.14233 265014.560000
  10203  10216     1   0.14316 258236.480000
  10209  10214     1   0.14233 265014.560000
  10223  10225     1   0.14619 275056.160000
  10225  10227     1   0.15375 251793.120000
  10227  10231     1   0.15110 237065.440000
  10231  10232     1   0.15110 237065.440000
  10231  10233     1   0.15110 237065.440000
  10232  10243     1   0.15375 251793.120000
  10233  10235     1   0.15375 251793.120000
  10235  10239     1   0.15241 261918.400000
  10239  10240     1   0.12183 533627.360000
  10239  10271     1   0.13400 406935.840000
  10243  10246     1   0.15241 261918.400000
  10246  10247     1   0.12183 533627.360000
  10246  10295     1   0.13400 406935.840000
  10248  10249     1   0.15375 251793.120000
  10248  10259     1   0.15375 251793.120000
  10248  10266     1   0.14316 258236.480000
  10249  10251     1   0.15375 251793.120000
  10249  10269     1   0.14233 265014.560000
  10251  10252     1   0.15375 251793.120000
  10251  10258     1   0.14233 265014.560000
  10252  10253     1   0.15375 251793.120000
  10252  10271     1   0.14647 272713.120000
  10253  10257     1   0.14233 265014.560000
  10253  10266     1   0.14316 258236.480000
  10259  10264     1   0.14233 265014.560000
  10272  10273     1   0.15375 251793.120000
  10272  10283     1   0.15375 251793.120000
  10272  10290     1   0.14316 258236.480000
  10273  10275     1   0.15375 251793.120000
  10273  10293     1   0.14233 265014.560000
  10275  10276     1   0.15375 251793.120000
  10275  10282     1   0.14233 265014.560000
  10276  10277     1   0.15375 251793.120000
  10276  10295     1   0.14647 272713.120000
  10277  10281     1   0.14233 265014.560000
  10277  10290     1   0.14316 258236.480000
  10283  10288     1   0.14233 265014.560000
  10297  10299     1   0.14619 275056.160000
  10299  10301     1   0.15375 251793.120000
  10301  10305     1   0.15110 237065.440000
  10305  10306     1   0.15110 237065.440000
  10305  10307     1   0.15110 237065.440000
  10306  10317     1   0.15375 251793.120000
  10307  10309     1   0.15375 251793.120000
  10309  10313     1   0.15241 261918.400000
  10313  10314     1   0.12183 533627.360000
  10313  10345     1   0.13400 406935.840000
  10317  10320     1   0.15241 261918.400000
  10320  10321     1   0.12183 533627.360000
  10320  10369     1   0.13400 406935.840000
  10322  10323     1   0.15375 251793.120000
  10322  10333     1   0.15375 251793.120000
  10322  10340     1   0.14316 258236.480000
  10323  10325     1   0.15375 251793.120000
  10323  10343     1   0.14233 265014.560000
  10325  10326     1   0.15375 251793.120000
  10325  10332     1   0.14233 265014.560000
  10326  10327     1   0.15375 251793.120000
  10326  10345     1   0.14647 272713.120000
  10327  10331     1   0.14233 265014.560000
  10327  10340     1   0.14316 258236.480000
  10333  10338     1   0.14233 265014.560000
  10346  10347     1   0.15375 251793.120000
  10346  10357     1   0.15375 251793.120000
  10346  10364     1   0.14316 258236.480000
  10347  10349     1   0.15375 251793.120000
  10347  10367     1   0.14233 265014.560000
  10349  10350     1   0.15375 251793.120000
  10349  10356     1   0.14233 265014.560000
  10350  10351     1   0.15375 251793.120000
  10350  10369     1   0.14647 272713.120000
  10351  10355     1   0.14233 265014.560000
  10351  10364     1   0.14316 258236.480000
  10357  10362     1   0.14233 265014.560000
  10371  10373     1   0.14619 275056.160000
  10373  10375     1   0.15375 251793.120000
  10375  10379     1   0.15110 237065.440000
  10379  10380     1   0.15110 237065.440000
  10379  10381     1   0.15110 237065.440000
  10380  10391     1   0.15375 251793.120000
  10381  10383     1   0.15375 251793.120000
  10383  10387     1   0.15241 261918.400000
  10387  10388     1   0.12183 533627.360000
  10387  10419     1   0.13400 406935.840000
  10391  10394     1   0.15241 261918.400000
  10394  10395     1   0.12183 533627.360000
  10394  10443     1   0.13400 406935.840000
  10396  10397     1   0.15375 251793.120000
  10396  10407     1   0.15375 251793.120000
  10396  10414     1   0.14316 258236.480000
  10397  10399     1   0.15375 251793.120000
  10397  10417     1   0.14233 265014.560000
  10399  10400     1   0.15375 251793.120000
  10399  10406     1   0.14233 265014.560000
  10400  10401     1   0.15375 251793.120000
  10400  10419     1   0.14647 272713.120000
  10401  10405     1   0.14233 265014.560000
  10401  10414     1   0.14316 258236.480000
  10407  10412     1   0.14233 265014.560000
  10420  10421     1   0.15375 251793.120000
  10420  10431     1   0.15375 251793.120000
  10420  10438     1   0.14316 258236.480000
  10421  10423     1   0.15375 251793.120000
  10421  10441     1   0.14233 265014.560000
  10423  10424     1   0.15375 251793.120000
  10423  10430     1   0.14233 265014.560000
  10424  10425     1   0.15375 251793.120000
  10424  10443     1   0.14647 272713.120000
  10425  10429     1   0.14233 265014.560000
  10425  10438     1   0.14316 258236.480000
  10431  10436     1   0.14233 265014.560000
  10445  10447     1   0.14619 275056.160000
  10447  10449     1   0.15375 251793.120000
  10449  10453     1   0.15110 237065.440000
  10453  10454     1   0.15110 237065.440000
  10453  10455     1   0.15110 237065.440000
  10454  10465     1   0.15375 251793.120000
  10455  10457     1   0.15375 251793.120000
  10457  10461     1   0.15241 261918.400000
  10461  10462     1   0.12183 533627.360000
  10461  10493     1   0.13400 406935.840000
  10465  10468     1   0.15241 261918.400000
  10468  10469     1   0.12183 533627.360000
  10468  10517     1   0.13400 406935.840000
  10470  10471     1   0.15375 251793.120000
  10470  10481     1   0.15375 251793.120000
  10470  10488     1   0.14316 258236.480000
  10471  10473     1   0.15375 251793.120000
  10471  10491     1   0.14233 265014.560000
  10473  10474     1   0.15375 251793.120000
  10473  10480     1   0.14233 265014.560000
  10474  10475     1   0.15375 251793.120000
  10474  10493     1   0.14647 272713.120000
  10475  10479     1   0.14233 265014.560000
  10475  10488     1   0.14316 258236.480000
  10481  10486     1   0.14233 265014.560000
  10494  10495     1   0.15375 251793.120000
  10494  10505     1   0.15375 251793.120000
  10494  10512     1   0.14316 258236.480000
  10495  10497     1   0.15375 251793.120000
  10495  10515     1   0.14233 265014.560000
  10497  10498     1   0.15375 251793.120000
  10497  10504     1   0.14233 265014.560000
  10498  10499     1   0.15375 251793.120000
  10498  10517     1   0.14647 272713.120000
  10499  10503     1   0.14233 265014.560000
  10499  10512     1   0.14316 258236.480000
  10505  10510     1   0.14233 265014.560000
  10519  10521     1   0.14619 275056.160000
  10521  10523     1   0.15375 251793.120000
  10523  10527     1   0.15110 237065.440000
  10527  10528     1   0.15110 237065.440000
  10527  10529     1   0.15110 237065.440000
  10528  10539     1   0.15375 251793.120000
  10529  10531     1   0.15375 251793.120000
  10531  10535     1   0.15241 261918.400000
  10535  10536     1   0.12183 533627.360000
  10535  10567     1   0.13400 406935.840000
  10539  10542     1   0.15241 261918.400000
  10542  10543     1   0.12183 533627.360000
  10542  10591     1   0.13400 406935.840000
  10544  10545     1   0.15375 251793.120000
  10544  10555     1   0.15375 251793.120000
  10544  10562     1   0.14316 258236.480000
  10545  10547     1   0.15375 251793.120000
  10545  10565     1   0.14233 265014.560000
  10547  10548     1   0.15375 251793.120000
  10547  10554     1   0.14233 265014.560000
  10548  10549     1   0.15375 251793.120000
  10548  10567     1   0.14647 272713.120000
  10549  10553     1   0.14233 265014.560000
  10549  10562     1   0.14316 258236.480000
  10555  10560     1   0.14233 265014.560000
  10568  10569     1   0.15375 251793.120000
  10568  10579     1   0.15375 251793.120000
  10568  10586     1   0.14316 258236.480000
  10569  10571     1   0.15375 251793.120000
  10569  10589     1   0.14233 265014.560000
  10571  10572     1   0.15375 251793.120000
  10571  10578     1   0.14233 265014.560000
  10572  10573     1   0.15375 251793.120000
  10572  10591     1   0.14647 272713.120000
  10573  10577     1   0.14233 265014.560000
  10573  10586     1   0.14316 258236.480000
  10579  10584     1   0.14233 265014.560000
  10593  10595     1   0.14619 275056.160000
  10595  10597     1   0.15375 251793.120000
  10597  10601     1   0.15110 237065.440000
  10601  10602     1   0.15110 237065.440000
  10601  10603     1   0.15110 237065.440000
  10602  10613     1   0.15375 251793.120000
  10603  10605     1   0.15375 251793.120000
  10605  10609     1   0.15241 261918.400000
  10609  10610     1   0.12183 533627.360000
  10609  10641     1   0.13400 406935.840000
  10613  10616     1   0.15241 261918.400000
  10616  10617     1   0.12183 533627.360000
  10616  10665     1   0.13400 406935.840000
  10618  10619     1   0.15375 251793.120000
  10618  10629     1   0.15375 251793.120000
  10618  10636     1   0.14316 258236.480000
  10619  10621     1   0.15375 251793.120000
  10619  10639     1   0.14233 265014.560000
  10621  10622     1   0.15375 251793.120000
  10621  10628     1   0.14233 265014.560000
  10622  10623     1   0.15375 251793.120000
  10622  10641     1   0.14647 272713.120000
  10623  10627     1   0.14233 265014.560000
  10623  10636     1   0.14316 258236.480000
  10629  10634     1   0.14233 265014.560000
  10642  10643     1   0.15375 251793.120000
  10642  10653     1   0.15375 251793.120000
  10642  10660     1   0.14316 258236.480000
  10643  10645     1   0.15375 251793.120000
  10643  10663     1   0.14233 265014.560000
  10645  10646     1   0.15375 251793.120000
  10645  10652     1   0.14233 265014.560000
  10646  10647     1   0.15375 251793.120000
  10646  10665     1   0.14647 272713.120000
  10647  10651     1   0.14233 265014.560000
  10647  10660     1   0.14316 258236.480000
  10653  10658     1   0.14233 265014.560000
  10667  10669     1   0.14619 275056.160000
  10669  10671     1   0.15375 251793.120000
  10671  10675     1   0.15110 237065.440000
  10675  10676     1   0.15110 237065.440000
  10675  10677     1   0.15110 237065.440000
  10676  10687     1   0.15375 251793.120000
  10677  10679     1   0.15375 251793.120000
  10679  10683     1   0.15241 261918.400000
  10683  10684     1   0.12183 533627.360000
  10683  10715     1   0.13400 406935.840000
  10687  10690     1   0.15241 261918.400000
  10690  10691     1   0.12183 533627.360000
  10690  10739     1   0.13400 406935.840000
  10692  10693     1   0.15375 251793.120000
  10692  10703     1   0.15375 251793.120000
  10692  10710     1   0.14316 258236.480000
  10693  10695     1   0.15375 251793.120000
  10693  10713     1   0.14233 265014.560000
  10695  10696     1   0.15375 251793.120000
  10695  10702     1   0.14233 265014.560000
  10696  10697     1   0.15375 251793.120000
  10696  10715     1   0.14647 272713.120000
  10697  10701     1   0.14233 265014.560000
  10697  10710     1   0.14316 258236.480000
  10703  10708     1   0.14233 265014.560000
  10716  10717     1   0.15375 251793.120000
  10716  10727     1   0.15375 251793.120000
  10716  10734     1   0.14316 258236.480000
  10717  10719     1   0.15375 251793.120000
  10717  10737     1   0.14233 265014.560000
  10719  10720     1   0.15375 251793.120000
  10719  10726     1   0.14233 265014.560000
  10720  10721     1   0.15375 251793.120000
  10720  10739     1   0.14647 272713.120000
  10721  10725     1   0.14233 265014.560000
  10721  10734     1   0.14316 258236.480000
  10727  10732     1   0.14233 265014.560000
  10741  10743     1   0.14619 275056.160000
  10743  10745     1   0.15375 251793.120000
  10745  10749     1   0.15110 237065.440000
  10749  10750     1   0.15110 237065.440000
  10749  10751     1   0.15110 237065.440000
  10750  10761     1   0.15375 251793.120000
  10751  10753     1   0.15375 251793.120000
  10753  10757     1   0.15241 261918.400000
  10757  10758     1   0.12183 533627.360000
  10757  10789     1   0.13400 406935.840000
  10761  10764     1   0.15241 261918.400000
  10764  10765     1   0.12183 533627.360000
  10764  10813     1   0.13400 406935.840000
  10766  10767     1   0.15375 251793.120000
  10766  10777     1   0.15375 251793.120000
  10766  10784     1   0.14316 258236.480000
  10767  10769     1   0.15375 251793.120000
  10767  10787     1   0.14233 265014.560000
  10769  10770     1   0.15375 251793.120000
  10769  10776     1   0.14233 265014.560000
  10770  10771     1   0.15375 251793.120000
  10770  10789     1   0.14647 272713.120000
  10771  10775     1   0.14233 265014.560000
  10771  10784     1   0.14316 258236.480000
  10777  10782     1   0.14233 265014.560000
  10790  10791     1   0.15375 251793.120000
  10790  10801     1   0.15375 251793.120000
  10790  10808     1   0.14316 258236.480000
  10791  10793     1   0.15375 251793.120000
  10791  10811     1   0.14233 265014.560000
  10793  10794     1   0.15375 251793.120000
  10793  10800     1   0.14233 265014.560000
  10794  10795     1   0.15375 251793.120000
  10794  10813     1   0.14647 272713.120000
  10795  10799     1   0.14233 265014.560000
  10795  10808     1   0.14316 258236.480000
  10801  10806     1   0.14233 265014.560000
  10815  10817     1   0.14619 275056.160000
  10817  10819     1   0.15375 251793.120000
  10819  10823     1   0.15110 237065.440000
  10823  10824     1   0.15110 237065.440000
  10823  10825     1   0.15110 237065.440000
  10824  10835     1   0.15375 251793.120000
  10825  10827     1   0.15375 251793.120000
  10827  10831     1   0.15241 261918.400000
  10831  10832     1   0.12183 533627.360000
  10831  10863     1   0.13400 406935.840000
  10835  10838     1   0.15241 261918.400000
  10838  10839     1   0.12183 533627.360000
  10838  10887     1   0.13400 406935.840000
  10840  10841     1   0.15375 251793.120000
  10840  10851     1   0.15375 251793.120000
  10840  10858     1   0.14316 258236.480000
  10841  10843     1   0.15375 251793.120000
  10841  10861     1   0.14233 265014.560000
  10843  10844     1   0.15375 251793.120000
  10843  10850     1   0.14233 265014.560000
  10844  10845     1   0.15375 251793.120000
  10844  10863     1   0.14647 272713.120000
  10845  10849     1   0.14233 265014.560000
  10845  10858     1   0.14316 258236.480000
  10851  10856     1   0.14233 265014.560000
  10864  10865     1   0.15375 251793.120000
  10864  10875     1   0.15375 251793.120000
  10864  10882     1   0.14316 258236.480000
  10865  10867     1   0.15375 251793.120000
  10865  10885     1   0.14233 265014.560000
  10867  10868     1   0.15375 251793.120000
  10867  10874     1   0.14233 265014.560000
  10868  10869     1   0.15375 251793.120000
  10868  10887     1   0.14647 272713.120000
  10869  10873     1   0.14233 265014.560000
  10869  10882     1   0.14316 258236.480000
  10875  10880     1   0.14233 265014.560000
  10889  10891     1   0.14619 275056.160000
  10891  10893     1   0.15375 251793.120000
  10893  10897     1   0.15110 237065.440000
  10897  10898     1   0.15110 237065.440000
  10897  10899     1   0.15110 237065.440000
  10898  10909     1   0.15375 251793.120000
  10899  10901     1   0.15375 251793.120000
  10901  10905     1   0.15241 261918.400000
  10905  10906     1   0.12183 533627.360000
  10905  10937     1   0.13400 406935.840000
  10909  10912     1   0.15241 261918.400000
  10912  10913     1   0.12183 533627.360000
  10912  10961     1   0.13400 406935.840000
  10914  10915     1   0.15375 251793.120000
  10914  10925     1   0.15375 251793.120000
  10914  10932     1   0.14316 258236.480000
  10915  10917     1   0.15375 251793.120000
  10915  10935     1   0.14233 265014.560000
  10917  10918     1   0.15375 251793.120000
  10917  10924     1   0.14233 265014.560000
  10918  10919     1   0.15375 251793.120000
  10918  10937     1   0.14647 272713.120000
  10919  10923     1   0.14233 265014.560000
  10919  10932     1   0.14316 258236.480000
  10925  10930     1   0.14233 265014.560000
  10938  10939     1   0.15375 251793.120000
  10938  10949     1   0.15375 251793.120000
  10938  10956     1   0.14316 258236.480000
  10939  10941     1   0.15375 251793.120000
  10939  10959     1   0.14233 265014.560000
  10941  10942     1   0.15375 251793.120000
  10941  10948     1   0.14233 265014.560000
  10942  10943     1   0.15375 251793.120000
  10942  10961     1   0.14647 272713.120000
  10943  10947     1   0.14233 265014.560000
  10943  10956     1   0.14316 258236.480000
  10949  10954     1   0.14233 265014.560000
  10963  10965     1   0.14619 275056.160000
  10965  10967     1   0.15375 251793.120000
  10967  10971     1   0.15110 237065.440000
  10971  10972     1   0.15110 237065.440000
  10971  10973     1   0.15110 237065.440000
  10972  10983     1   0.15375 251793.120000
  10973  10975     1   0.15375 251793.120000
  10975  10979     1   0.15241 261918.400000
  10979  10980     1   0.12183 533627.360000
  10979  11011     1   0.13400 406935.840000
  10983  10986     1   0.15241 261918.400000
  10986  10987     1   0.12183 533627.360000
  10986  11035     1   0.13400 406935.840000
  10988  10989     1   0.15375 251793.120000
  10988  10999     1   0.15375 251793.120000
  10988  11006     1   0.14316 258236.480000
  10989  10991     1   0.15375 251793.120000
  10989  11009     1   0.14233 265014.560000
  10991  10992     1   0.15375 251793.120000
  10991  10998     1   0.14233 265014.560000
  10992  10993     1   0.15375 251793.120000
  10992  11011     1   0.14647 272713.120000
  10993  10997     1   0.14233 265014.560000
  10993  11006     1   0.14316 258236.480000
  10999  11004     1   0.14233 265014.560000
  11012  11013     1   0.15375 251793.120000
  11012  11023     1   0.15375 251793.120000
  11012  11030     1   0.14316 258236.480000
  11013  11015     1   0.15375 251793.120000
  11013  11033     1   0.14233 265014.560000
  11015  11016     1   0.15375 251793.120000
  11015  11022     1   0.14233 265014.560000
  11016  11017     1   0.15375 251793.120000
  11016  11035     1   0.14647 272713.120000
  11017  11021     1   0.14233 265014.560000
  11017  11030     1   0.14316 258236.480000
  11023  11028     1   0.14233 265014.560000
  11037  11039     1   0.14619 275056.160000
  11039  11041     1   0.15375 251793.120000
  11041  11045     1   0.15110 237065.440000
  11045  11046     1   0.15110 237065.440000
  11045  11047     1   0.15110 237065.440000
  11046  11057     1   0.15375 251793.120000
  11047  11049     1   0.15375 251793.120000
  11049  11053     1   0.15241 261918.400000
  11053  11054     1   0.12183 533627.360000
  11053  11085     1   0.13400 406935.840000
  11057  11060     1   0.15241 261918.400000
  11060  11061     1   0.12183 533627.360000
  11060  11109     1   0.13400 406935.840000
  11062  11063     1   0.15375 251793.120000
  11062  11073     1   0.15375 251793.120000
  11062  11080     1   0.14316 258236.480000
  11063  11065     1   0.15375 251793.120000
  11063  11083     1   0.14233 265014.560000
  11065  11066     1   0.15375 251793.120000
  11065  11072     1   0.14233 265014.560000
  11066  11067     1   0.15375 251793.120000
  11066  11085     1   0.14647 272713.120000
  11067  11071     1   0.14233 265014.560000
  11067  11080     1   0.14316 258236.480000
  11073  11078     1   0.14233 265014.560000
  11086  11087     1   0.15375 251793.120000
  11086  11097     1   0.15375 251793.120000
  11086  11104     1   0.14316 258236.480000
  11087  11089     1   0.15375 251793.120000
  11087  11107     1   0.14233 265014.560000
  11089  11090     1   0.15375 251793.120000
  11089  11096     1   0.14233 265014.560000
  11090  11091     1   0.15375 251793.120000
  11090  11109     1   0.14647 272713.120000
  11091  11095     1   0.14233 265014.560000
  11091  11104     1   0.14316 258236.480000
  11097  11102     1   0.14233 265014.560000
  11111  11113     1   0.14619 275056.160000
  11113  11115     1   0.15375 251793.120000
  11115  11119     1   0.15110 237065.440000
  11119  11120     1   0.15110 237065.440000
  11119  11121     1   0.15110 237065.440000
  11120  11131     1   0.15375 251793.120000
  11121  11123     1   0.15375 251793.120000
  11123  11127     1   0.15241 261918.400000
  11127  11128     1   0.12183 533627.360000
  11127  11159     1   0.13400 406935.840000
  11131  11134     1   0.15241 261918.400000
  11134  11135     1   0.12183 533627.360000
  11134  11183     1   0.13400 406935.840000
  11136  11137     1   0.15375 251793.120000
  11136  11147     1   0.15375 251793.120000
  11136  11154     1   0.14316 258236.480000
  11137  11139     1   0.15375 251793.120000
  11137  11157     1   0.14233 265014.560000
  11139  11140     1   0.15375 251793.120000
  11139  11146     1   0.14233 265014.560000
  11140  11141     1   0.15375 251793.120000
  11140  11159     1   0.14647 272713.120000
  11141  11145     1   0.14233 265014.560000
  11141  11154     1   0.14316 258236.480000
  11147  11152     1   0.14233 265014.560000
  11160  11161     1   0.15375 251793.120000
  11160  11171     1   0.15375 251793.120000
  11160  11178     1   0.14316 258236.480000
  11161  11163     1   0.15375 251793.120000
  11161  11181     1   0.14233 265014.560000
  11163  11164     1   0.15375 251793.120000
  11163  11170     1   0.14233 265014.560000
  11164  11165     1   0.15375 251793.120000
  11164  11183     1   0.14647 272713.120000
  11165  11169     1   0.14233 265014.560000
  11165  11178     1   0.14316 258236.480000
  11171  11176     1   0.14233 265014.560000
  11185  11187     1   0.14619 275056.160000
  11187  11189     1   0.15375 251793.120000
  11189  11193     1   0.15110 237065.440000
  11193  11194     1   0.15110 237065.440000
  11193  11195     1   0.15110 237065.440000
  11194  11205     1   0.15375 251793.120000
  11195  11197     1   0.15375 251793.120000
  11197  11201     1   0.15241 261918.400000
  11201  11202     1   0.12183 533627.360000
  11201  11233     1   0.13400 406935.840000
  11205  11208     1   0.15241 261918.400000
  11208  11209     1   0.12183 533627.360000
  11208  11257     1   0.13400 406935.840000
  11210  11211     1   0.15375 251793.120000
  11210  11221     1   0.15375 251793.120000
  11210  11228     1   0.14316 258236.480000
  11211  11213     1   0.15375 251793.120000
  11211  11231     1   0.14233 265014.560000
  11213  11214     1   0.15375 251793.120000
  11213  11220     1   0.14233 265014.560000
  11214  11215     1   0.15375 251793.120000
  11214  11233     1   0.14647 272713.120000
  11215  11219     1   0.14233 265014.560000
  11215  11228     1   0.14316 258236.480000
  11221  11226     1   0.14233 265014.560000
  11234  11235     1   0.15375 251793.120000
  11234  11245     1   0.15375 251793.120000
  11234  11252     1   0.14316 258236.480000
  11235  11237     1   0.15375 251793.120000
  11235  11255     1   0.14233 265014.560000
  11237  11238     1   0.15375 251793.120000
  11237  11244     1   0.14233 265014.560000
  11238  11239     1   0.15375 251793.120000
  11238  11257     1   0.14647 272713.120000
  11239  11243     1   0.14233 265014.560000
  11239  11252     1   0.14316 258236.480000
  11245  11250     1   0.14233 265014.560000
  11259  11261     1   0.14619 275056.160000
  11261  11263     1   0.15375 251793.120000
  11263  11267     1   0.15110 237065.440000
  11267  11268     1   0.15110 237065.440000
  11267  11269     1   0.15110 237065.440000
  11268  11279     1   0.15375 251793.120000
  11269  11271     1   0.15375 251793.120000
  11271  11275     1   0.15241 261918.400000
  11275  11276     1   0.12183 533627.360000
  11275  11307     1   0.13400 406935.840000
  11279  11282     1   0.15241 261918.400000
  11282  11283     1   0.12183 533627.360000
  11282  11331     1   0.13400 406935.840000
  11284  11285     1   0.15375 251793.120000
  11284  11295     1   0.15375 251793.120000
  11284  11302     1   0.14316 258236.480000
  11285  11287     1   0.15375 251793.120000
  11285  11305     1   0.14233 265014.560000
  11287  11288     1   0.15375 251793.120000
  11287  11294     1   0.14233 265014.560000
  11288  11289     1   0.15375 251793.120000
  11288  11307     1   0.14647 272713.120000
  11289  11293     1   0.14233 265014.560000
  11289  11302     1   0.14316 258236.480000
  11295  11300     1   0.14233 265014.560000
  11308  11309     1   0.15375 251793.120000
  11308  11319     1   0.15375 251793.120000
  11308  11326     1   0.14316 258236.480000
  11309  11311     1   0.15375 251793.120000
  11309  11329     1   0.14233 265014.560000
  11311  11312     1   0.15375 251793.120000
  11311  11318     1   0.14233 265014.560000
  11312  11313     1   0.15375 251793.120000
  11312  11331     1   0.14647 272713.120000
  11313  11317     1   0.14233 265014.560000
  11313  11326     1   0.14316 258236.480000
  11319  11324     1   0.14233 265014.560000
  11333  11335     1   0.14619 275056.160000
  11335  11337     1   0.15375 251793.120000
  11337  11341     1   0.15110 237065.440000
  11341  11342     1   0.15110 237065.440000
  11341  11343     1   0.15110 237065.440000
  11342  11353     1   0.15375 251793.120000
  11343  11345     1   0.15375 251793.120000
  11345  11349     1   0.15241 261918.400000
  11349  11350     1   0.12183 533627.360000
  11349  11381     1   0.13400 406935.840000
  11353  11356     1   0.15241 261918.400000
  11356  11357     1   0.12183 533627.360000
  11356  11405     1   0.13400 406935.840000
  11358  11359     1   0.15375 251793.120000
  11358  11369     1   0.15375 251793.120000
  11358  11376     1   0.14316 258236.480000
  11359  11361     1   0.15375 251793.120000
  11359  11379     1   0.14233 265014.560000
  11361  11362     1   0.15375 251793.120000
  11361  11368     1   0.14233 265014.560000
  11362  11363     1   0.15375 251793.120000
  11362  11381     1   0.14647 272713.120000
  11363  11367     1   0.14233 265014.560000
  11363  11376     1   0.14316 258236.480000
  11369  11374     1   0.14233 265014.560000
  11382  11383     1   0.15375 251793.120000
  11382  11393     1   0.15375 251793.120000
  11382  11400     1   0.14316 258236.480000
  11383  11385     1   0.15375 251793.120000
  11383  11403     1   0.14233 265014.560000
  11385  11386     1   0.15375 251793.120000
  11385  11392     1   0.14233 265014.560000
  11386  11387     1   0.15375 251793.120000
  11386  11405     1   0.14647 272713.120000
  11387  11391     1   0.14233 265014.560000
  11387  11400     1   0.14316 258236.480000
  11393  11398     1   0.14233 265014.560000
  11407  11409     1   0.14619 275056.160000
  11409  11411     1   0.15375 251793.120000
  11411  11415     1   0.15110 237065.440000
  11415  11416     1   0.15110 237065.440000
  11415  11417     1   0.15110 237065.440000
  11416  11427     1   0.15375 251793.120000
  11417  11419     1   0.15375 251793.120000
  11419  11423     1   0.15241 261918.400000
  11423  11424     1   0.12183 533627.360000
  11423  11455     1   0.13400 406935.840000
  11427  11430     1   0.15241 261918.400000
  11430  11431     1   0.12183 533627.360000
  11430  11479     1   0.13400 406935.840000
  11432  11433     1   0.15375 251793.120000
  11432  11443     1   0.15375 251793.120000
  11432  11450     1   0.14316 258236.480000
  11433  11435     1   0.15375 251793.120000
  11433  11453     1   0.14233 265014.560000
  11435  11436     1   0.15375 251793.120000
  11435  11442     1   0.14233 265014.560000
  11436  11437     1   0.15375 251793.120000
  11436  11455     1   0.14647 272713.120000
  11437  11441     1   0.14233 265014.560000
  11437  11450     1   0.14316 258236.480000
  11443  11448     1   0.14233 265014.560000
  11456  11457     1   0.15375 251793.120000
  11456  11467     1   0.15375 251793.120000
  11456  11474     1   0.14316 258236.480000
  11457  11459     1   0.15375 251793.120000
  11457  11477     1   0.14233 265014.560000
  11459  11460     1   0.15375 251793.120000
  11459  11466     1   0.14233 265014.560000
  11460  11461     1   0.15375 251793.120000
  11460  11479     1   0.14647 272713.120000
  11461  11465     1   0.14233 265014.560000
  11461  11474     1   0.14316 258236.480000
  11467  11472     1   0.14233 265014.560000
  11481  11483     1   0.14619 275056.160000
  11483  11485     1   0.15375 251793.120000
  11485  11489     1   0.15110 237065.440000
  11489  11490     1   0.15110 237065.440000
  11489  11491     1   0.15110 237065.440000
  11490  11501     1   0.15375 251793.120000
  11491  11493     1   0.15375 251793.120000
  11493  11497     1   0.15241 261918.400000
  11497  11498     1   0.12183 533627.360000
  11497  11529     1   0.13400 406935.840000
  11501  11504     1   0.15241 261918.400000
  11504  11505     1   0.12183 533627.360000
  11504  11553     1   0.13400 406935.840000
  11506  11507     1   0.15375 251793.120000
  11506  11517     1   0.15375 251793.120000
  11506  11524     1   0.14316 258236.480000
  11507  11509     1   0.15375 251793.120000
  11507  11527     1   0.14233 265014.560000
  11509  11510     1   0.15375 251793.120000
  11509  11516     1   0.14233 265014.560000
  11510  11511     1   0.15375 251793.120000
  11510  11529     1   0.14647 272713.120000
  11511  11515     1   0.14233 265014.560000
  11511  11524     1   0.14316 258236.480000
  11517  11522     1   0.14233 265014.560000
  11530  11531     1   0.15375 251793.120000
  11530  11541     1   0.15375 251793.120000
  11530  11548     1   0.14316 258236.480000
  11531  11533     1   0.15375 251793.120000
  11531  11551     1   0.14233 265014.560000
  11533  11534     1   0.15375 251793.120000
  11533  11540     1   0.14233 265014.560000
  11534  11535     1   0.15375 251793.120000
  11534  11553     1   0.14647 272713.120000
  11535  11539     1   0.14233 265014.560000
  11535  11548     1   0.14316 258236.480000
  11541  11546     1   0.14233 265014.560000
  11555  11557     1   0.14619 275056.160000
  11557  11559     1   0.15375 251793.120000
  11559  11563     1   0.15110 237065.440000
  11563  11564     1   0.15110 237065.440000
  11563  11565     1   0.15110 237065.440000
  11564  11575     1   0.15375 251793.120000
  11565  11567     1   0.15375 251793.120000
  11567  11571     1   0.15241 261918.400000
  11571  11572     1   0.12183 533627.360000
  11571  11603     1   0.13400 406935.840000
  11575  11578     1   0.15241 261918.400000
  11578  11579     1   0.12183 533627.360000
  11578  11627     1   0.13400 406935.840000
  11580  11581     1   0.15375 251793.120000
  11580  11591     1   0.15375 251793.120000
  11580  11598     1   0.14316 258236.480000
  11581  11583     1   0.15375 251793.120000
  11581  11601     1   0.14233 265014.560000
  11583  11584     1   0.15375 251793.120000
  11583  11590     1   0.14233 265014.560000
  11584  11585     1   0.15375 251793.120000
  11584  11603     1   0.14647 272713.120000
  11585  11589     1   0.14233 265014.560000
  11585  11598     1   0.14316 258236.480000
  11591  11596     1   0.14233 265014.560000
  11604  11605     1   0.15375 251793.120000
  11604  11615     1   0.15375 251793.120000
  11604  11622     1   0.14316 258236.480000
  11605  11607     1   0.15375 251793.120000
  11605  11625     1   0.14233 265014.560000
  11607  11608     1   0.15375 251793.120000
  11607  11614     1   0.14233 265014.560000
  11608  11609     1   0.15375 251793.120000
  11608  11627     1   0.14647 272713.120000
  11609  11613     1   0.14233 265014.560000
  11609  11622     1   0.14316 258236.480000
  11615  11620     1   0.14233 265014.560000
  11629  11631     1   0.14619 275056.160000
  11631  11633     1   0.15375 251793.120000
  11633  11637     1   0.15110 237065.440000
  11637  11638     1   0.15110 237065.440000
  11637  11639     1   0.15110 237065.440000
  11638  11649     1   0.15375 251793.120000
  11639  11641     1   0.15375 251793.120000
  11641  11645     1   0.15241 261918.400000
  11645  11646     1   0.12183 533627.360000
  11645  11677     1   0.13400 406935.840000
  11649  11652     1   0.15241 261918.400000
  11652  11653     1   0.12183 533627.360000
  11652  11701     1   0.13400 406935.840000
  11654  11655     1   0.15375 251793.120000
  11654  11665     1   0.15375 251793.120000
  11654  11672     1   0.14316 258236.480000
  11655  11657     1   0.15375 251793.120000
  11655  11675     1   0.14233 265014.560000
  11657  11658     1   0.15375 251793.120000
  11657  11664     1   0.14233 265014.560000
  11658  11659     1   0.15375 251793.120000
  11658  11677     1   0.14647 272713.120000
  11659  11663     1   0.14233 265014.560000
  11659  11672     1   0.14316 258236.480000
  11665  11670     1   0.14233 265014.560000
  11678  11679     1   0.15375 251793.120000
  11678  11689     1   0.15375 251793.120000
  11678  11696     1   0.14316 258236.480000
  11679  11681     1   0.15375 251793.120000
  11679  11699     1   0.14233 265014.560000
  11681  11682     1   0.15375 251793.120000
  11681  11688     1   0.14233 265014.560000
  11682  11683     1   0.15375 251793.120000
  11682  11701     1   0.14647 272713.120000
  11683  11687     1   0.14233 265014.560000
  11683  11696     1   0.14316 258236.480000
  11689  11694     1   0.14233 265014.560000
  11703  11705     1   0.14619 275056.160000
  11705  11707     1   0.15375 251793.120000
  11707  11711     1   0.15110 237065.440000
  11711  11712     1   0.15110 237065.440000
  11711  11713     1   0.15110 237065.440000
  11712  11723     1   0.15375 251793.120000
  11713  11715     1   0.15375 251793.120000
  11715  11719     1   0.15241 261918.400000
  11719  11720     1   0.12183 533627.360000
  11719  11751     1   0.13400 406935.840000
  11723  11726     1   0.15241 261918.400000
  11726  11727     1   0.12183 533627.360000
  11726  11775     1   0.13400 406935.840000
  11728  11729     1   0.15375 251793.120000
  11728  11739     1   0.15375 251793.120000
  11728  11746     1   0.14316 258236.480000
  11729  11731     1   0.15375 251793.120000
  11729  11749     1   0.14233 265014.560000
  11731  11732     1   0.15375 251793.120000
  11731  11738     1   0.14233 265014.560000
  11732  11733     1   0.15375 251793.120000
  11732  11751     1   0.14647 272713.120000
  11733  11737     1   0.14233 265014.560000
  11733  11746     1   0.14316 258236.480000
  11739  11744     1   0.14233 265014.560000
  11752  11753     1   0.15375 251793.120000
  11752  11763     1   0.15375 251793.120000
  11752  11770     1   0.14316 258236.480000
  11753  11755     1   0.15375 251793.120000
  11753  11773     1   0.14233 265014.560000
  11755  11756     1   0.15375 251793.120000
  11755  11762     1   0.14233 265014.560000
  11756  11757     1   0.15375 251793.120000
  11756  11775     1   0.14647 272713.120000
  11757  11761     1   0.14233 265014.560000
  11757  11770     1   0.14316 258236.480000
  11763  11768     1   0.14233 265014.560000
  11777  11779     1   0.14619 275056.160000
  11779  11781     1   0.15375 251793.120000
  11781  11785     1   0.15110 237065.440000
  11785  11786     1   0.15110 237065.440000
  11785  11787     1   0.15110 237065.440000
  11786  11797     1   0.15375 251793.120000
  11787  11789     1   0.15375 251793.120000
  11789  11793     1   0.15241 261918.400000
  11793  11794     1   0.12183 533627.360000
  11793  11825     1   0.13400 406935.840000
  11797  11800     1   0.15241 261918.400000
  11800  11801     1   0.12183 533627.360000
  11800  11849     1   0.13400 406935.840000
  11802  11803     1   0.15375 251793.120000
  11802  11813     1   0.15375 251793.120000
  11802  11820     1   0.14316 258236.480000
  11803  11805     1   0.15375 251793.120000
  11803  11823     1   0.14233 265014.560000
  11805  11806     1   0.15375 251793.120000
  11805  11812     1   0.14233 265014.560000
  11806  11807     1   0.15375 251793.120000
  11806  11825     1   0.14647 272713.120000
  11807  11811     1   0.14233 265014.560000
  11807  11820     1   0.14316 258236.480000
  11813  11818     1   0.14233 265014.560000
  11826  11827     1   0.15375 251793.120000
  11826  11837     1   0.15375 251793.120000
  11826  11844     1   0.14316 258236.480000
  11827  11829     1   0.15375 251793.120000
  11827  11847     1   0.14233 265014.560000
  11829  11830     1   0.15375 251793.120000
  11829  11836     1   0.14233 265014.560000
  11830  11831     1   0.15375 251793.120000
  11830  11849     1   0.14647 272713.120000
  11831  11835     1   0.14233 265014.560000
  11831  11844     1   0.14316 258236.480000
  11837  11842     1   0.14233 265014.560000
  11851  11853     1   0.14619 275056.160000
  11853  11855     1   0.15375 251793.120000
  11855  11859     1   0.15110 237065.440000
  11859  11860     1   0.15110 237065.440000
  11859  11861     1   0.15110 237065.440000
  11860  11871     1   0.15375 251793.120000
  11861  11863     1   0.15375 251793.120000
  11863  11867     1   0.15241 261918.400000
  11867  11868     1   0.12183 533627.360000
  11867  11899     1   0.13400 406935.840000
  11871  11874     1   0.15241 261918.400000
  11874  11875     1   0.12183 533627.360000
  11874  11923     1   0.13400 406935.840000
  11876  11877     1   0.15375 251793.120000
  11876  11887     1   0.15375 251793.120000
  11876  11894     1   0.14316 258236.480000
  11877  11879     1   0.15375 251793.120000
  11877  11897     1   0.14233 265014.560000
  11879  11880     1   0.15375 251793.120000
  11879  11886     1   0.14233 265014.560000
  11880  11881     1   0.15375 251793.120000
  11880  11899     1   0.14647 272713.120000
  11881  11885     1   0.14233 265014.560000
  11881  11894     1   0.14316 258236.480000
  11887  11892     1   0.14233 265014.560000
  11900  11901     1   0.15375 251793.120000
  11900  11911     1   0.15375 251793.120000
  11900  11918     1   0.14316 258236.480000
  11901  11903     1   0.15375 251793.120000
  11901  11921     1   0.14233 265014.560000
  11903  11904     1   0.15375 251793.120000
  11903  11910     1   0.14233 265014.560000
  11904  11905     1   0.15375 251793.120000
  11904  11923     1   0.14647 272713.120000
  11905  11909     1   0.14233 265014.560000
  11905  11918     1   0.14316 258236.480000
  11911  11916     1   0.14233 265014.560000
  11925  11927     1   0.14619 275056.160000
  11927  11929     1   0.15375 251793.120000
  11929  11933     1   0.15110 237065.440000
  11933  11934     1   0.15110 237065.440000
  11933  11935     1   0.15110 237065.440000
  11934  11945     1   0.15375 251793.120000
  11935  11937     1   0.15375 251793.120000
  11937  11941     1   0.15241 261918.400000
  11941  11942     1   0.12183 533627.360000
  11941  11973     1   0.13400 406935.840000
  11945  11948     1   0.15241 261918.400000
  11948  11949     1   0.12183 533627.360000
  11948  11997     1   0.13400 406935.840000
  11950  11951     1   0.15375 251793.120000
  11950  11961     1   0.15375 251793.120000
  11950  11968     1   0.14316 258236.480000
  11951  11953     1   0.15375 251793.120000
  11951  11971     1   0.14233 265014.560000
  11953  11954     1   0.15375 251793.120000
  11953  11960     1   0.14233 265014.560000
  11954  11955     1   0.15375 251793.120000
  11954  11973     1   0.14647 272713.120000
  11955  11959     1   0.14233 265014.560000
  11955  11968     1   0.14316 258236.480000
  11961  11966     1   0.14233 265014.560000
  11974  11975     1   0.15375 251793.120000
  11974  11985     1   0.15375 251793.120000
  11974  11992     1   0.14316 258236.480000
  11975  11977     1   0.15375 251793.120000
  11975  11995     1   0.14233 265014.560000
  11977  11978     1   0.15375 251793.120000
  11977  11984     1   0.14233 265014.560000
  11978  11979     1   0.15375 251793.120000
  11978  11997     1   0.14647 272713.120000
  11979  11983     1   0.14233 265014.560000
  11979  11992     1   0.14316 258236.480000
  11985  11990     1   0.14233 265014.560000
  11999  12001     1   0.14619 275056.160000
  12001  12003     1   0.15375 251793.120000
  12003  12007     1   0.15110 237065.440000
  12007  12008     1   0.15110 237065.440000
  12007  12009     1   0.15110 237065.440000
  12008  12019     1   0.15375 251793.120000
  12009  12011     1   0.15375 251793.120000
  12011  12015     1   0.15241 261918.400000
  12015  12016     1   0.12183 533627.360000
  12015  12047     1   0.13400 406935.840000
  12019  12022     1   0.15241 261918.400000
  12022  12023     1   0.12183 533627.360000
  12022  12071     1   0.13400 406935.840000
  12024  12025     1   0.15375 251793.120000
  12024  12035     1   0.15375 251793.120000
  12024  12042     1   0.14316 258236.480000
  12025  12027     1   0.15375 251793.120000
  12025  12045     1   0.14233 265014.560000
  12027  12028     1   0.15375 251793.120000
  12027  12034     1   0.14233 265014.560000
  12028  12029     1   0.15375 251793.120000
  12028  12047     1   0.14647 272713.120000
  12029  12033     1   0.14233 265014.560000
  12029  12042     1   0.14316 258236.480000
  12035  12040     1   0.14233 265014.560000
  12048  12049     1   0.15375 251793.120000
  12048  12059     1   0.15375 251793.120000
  12048  12066     1   0.14316 258236.480000
  12049  12051     1   0.15375 251793.120000
  12049  12069     1   0.14233 265014.560000
  12051  12052     1   0.15375 251793.120000
  12051  12058     1   0.14233 265014.560000
  12052  12053     1   0.15375 251793.120000
  12052  12071     1   0.14647 272713.120000
  12053  12057     1   0.14233 265014.560000
  12053  12066     1   0.14316 258236.480000
  12059  12064     1   0.14233 265014.560000
  12073  12075     1   0.14619 275056.160000
  12075  12077     1   0.15375 251793.120000
  12077  12081     1   0.15110 237065.440000
  12081  12082     1   0.15110 237065.440000
  12081  12083     1   0.15110 237065.440000
  12082  12093     1   0.15375 251793.120000
  12083  12085     1   0.15375 251793.120000
  12085  12089     1   0.15241 261918.400000
  12089  12090     1   0.12183 533627.360000
  12089  12121     1   0.13400 406935.840000
  12093  12096     1   0.15241 261918.400000
  12096  12097     1   0.12183 533627.360000
  12096  12145     1   0.13400 406935.840000
  12098  12099     1   0.15375 251793.120000
  12098  12109     1   0.15375 251793.120000
  12098  12116     1   0.14316 258236.480000
  12099  12101     1   0.15375 251793.120000
  12099  12119     1   0.14233 265014.560000
  12101  12102     1   0.15375 251793.120000
  12101  12108     1   0.14233 265014.560000
  12102  12103     1   0.15375 251793.120000
  12102  12121     1   0.14647 272713.120000
  12103  12107     1   0.14233 265014.560000
  12103  12116     1   0.14316 258236.480000
  12109  12114     1   0.14233 265014.560000
  12122  12123     1   0.15375 251793.120000
  12122  12133     1   0.15375 251793.120000
  12122  12140     1   0.14316 258236.480000
  12123  12125     1   0.15375 251793.120000
  12123  12143     1   0.14233 265014.560000
  12125  12126     1   0.15375 251793.120000
  12125  12132     1   0.14233 265014.560000
  12126  12127     1   0.15375 251793.120000
  12126  12145     1   0.14647 272713.120000
  12127  12131     1   0.14233 265014.560000
  12127  12140     1   0.14316 258236.480000
  12133  12138     1   0.14233 265014.560000
  12147  12149     1   0.14619 275056.160000
  12149  12151     1   0.15375 251793.120000
  12151  12155     1   0.15110 237065.440000
  12155  12156     1   0.15110 237065.440000
  12155  12157     1   0.15110 237065.440000
  12156  12167     1   0.15375 251793.120000
  12157  12159     1   0.15375 251793.120000
  12159  12163     1   0.15241 261918.400000
  12163  12164     1   0.12183 533627.360000
  12163  12195     1   0.13400 406935.840000
  12167  12170     1   0.15241 261918.400000
  12170  12171     1   0.12183 533627.360000
  12170  12219     1   0.13400 406935.840000
  12172  12173     1   0.15375 251793.120000
  12172  12183     1   0.15375 251793.120000
  12172  12190     1   0.14316 258236.480000
  12173  12175     1   0.15375 251793.120000
  12173  12193     1   0.14233 265014.560000
  12175  12176     1   0.15375 251793.120000
  12175  12182     1   0.14233 265014.560000
  12176  12177     1   0.15375 251793.120000
  12176  12195     1   0.14647 272713.120000
  12177  12181     1   0.14233 265014.560000
  12177  12190     1   0.14316 258236.480000
  12183  12188     1   0.14233 265014.560000
  12196  12197     1   0.15375 251793.120000
  12196  12207     1   0.15375 251793.120000
  12196  12214     1   0.14316 258236.480000
  12197  12199     1   0.15375 251793.120000
  12197  12217     1   0.14233 265014.560000
  12199  12200     1   0.15375 251793.120000
  12199  12206     1   0.14233 265014.560000
  12200  12201     1   0.15375 251793.120000
  12200  12219     1   0.14647 272713.120000
  12201  12205     1   0.14233 265014.560000
  12201  12214     1   0.14316 258236.480000
  12207  12212     1   0.14233 265014.560000
  12221  12223     1   0.14619 275056.160000
  12223  12225     1   0.15375 251793.120000
  12225  12229     1   0.15110 237065.440000
  12229  12230     1   0.15110 237065.440000
  12229  12231     1   0.15110 237065.440000
  12230  12241     1   0.15375 251793.120000
  12231  12233     1   0.15375 251793.120000
  12233  12237     1   0.15241 261918.400000
  12237  12238     1   0.12183 533627.360000
  12237  12269     1   0.13400 406935.840000
  12241  12244     1   0.15241 261918.400000
  12244  12245     1   0.12183 533627.360000
  12244  12293     1   0.13400 406935.840000
  12246  12247     1   0.15375 251793.120000
  12246  12257     1   0.15375 251793.120000
  12246  12264     1   0.14316 258236.480000
  12247  12249     1   0.15375 251793.120000
  12247  12267     1   0.14233 265014.560000
  12249  12250     1   0.15375 251793.120000
  12249  12256     1   0.14233 265014.560000
  12250  12251     1   0.15375 251793.120000
  12250  12269     1   0.14647 272713.120000
  12251  12255     1   0.14233 265014.560000
  12251  12264     1   0.14316 258236.480000
  12257  12262     1   0.14233 265014.560000
  12270  12271     1   0.15375 251793.120000
  12270  12281     1   0.15375 251793.120000
  12270  12288     1   0.14316 258236.480000
  12271  12273     1   0.15375 251793.120000
  12271  12291     1   0.14233 265014.560000
  12273  12274     1   0.15375 251793.120000
  12273  12280     1   0.14233 265014.560000
  12274  12275     1   0.15375 251793.120000
  12274  12293     1   0.14647 272713.120000
  12275  12279     1   0.14233 265014.560000
  12275  12288     1   0.14316 258236.480000
  12281  12286     1   0.14233 265014.560000
  12295  12297     1   0.14619 275056.160000
  12297  12299     1   0.15375 251793.120000
  12299  12303     1   0.15110 237065.440000
  12303  12304     1   0.15110 237065.440000
  12303  12305     1   0.15110 237065.440000
  12304  12315     1   0.15375 251793.120000
  12305  12307     1   0.15375 251793.120000
  12307  12311     1   0.15241 261918.400000
  12311  12312     1   0.12183 533627.360000
  12311  12343     1   0.13400 406935.840000
  12315  12318     1   0.15241 261918.400000
  12318  12319     1   0.12183 533627.360000
  12318  12367     1   0.13400 406935.840000
  12320  12321     1   0.15375 251793.120000
  12320  12331     1   0.15375 251793.120000
  12320  12338     1   0.14316 258236.480000
  12321  12323     1   0.15375 251793.120000
  12321  12341     1   0.14233 265014.560000
  12323  12324     1   0.15375 251793.120000
  12323  12330     1   0.14233 265014.560000
  12324  12325     1   0.15375 251793.120000
  12324  12343     1   0.14647 272713.120000
  12325  12329     1   0.14233 265014.560000
  12325  12338     1   0.14316 258236.480000
  12331  12336     1   0.14233 265014.560000
  12344  12345     1   0.15375 251793.120000
  12344  12355     1   0.15375 251793.120000
  12344  12362     1   0.14316 258236.480000
  12345  12347     1   0.15375 251793.120000
  12345  12365     1   0.14233 265014.560000
  12347  12348     1   0.15375 251793.120000
  12347  12354     1   0.14233 265014.560000
  12348  12349     1   0.15375 251793.120000
  12348  12367     1   0.14647 272713.120000
  12349  12353     1   0.14233 265014.560000
  12349  12362     1   0.14316 258236.480000
  12355  12360     1   0.14233 265014.560000
  12369  12371     1   0.14619 275056.160000
  12371  12373     1   0.15375 251793.120000
  12373  12377     1   0.15110 237065.440000
  12377  12378     1   0.15110 237065.440000
  12377  12379     1   0.15110 237065.440000
  12378  12389     1   0.15375 251793.120000
  12379  12381     1   0.15375 251793.120000
  12381  12385     1   0.15241 261918.400000
  12385  12386     1   0.12183 533627.360000
  12385  12417     1   0.13400 406935.840000
  12389  12392     1   0.15241 261918.400000
  12392  12393     1   0.12183 533627.360000
  12392  12441     1   0.13400 406935.840000
  12394  12395     1   0.15375 251793.120000
  12394  12405     1   0.15375 251793.120000
  12394  12412     1   0.14316 258236.480000
  12395  12397     1   0.15375 251793.120000
  12395  12415     1   0.14233 265014.560000
  12397  12398     1   0.15375 251793.120000
  12397  12404     1   0.14233 265014.560000
  12398  12399     1   0.15375 251793.120000
  12398  12417     1   0.14647 272713.120000
  12399  12403     1   0.14233 265014.560000
  12399  12412     1   0.14316 258236.480000
  12405  12410     1   0.14233 265014.560000
  12418  12419     1   0.15375 251793.120000
  12418  12429     1   0.15375 251793.120000
  12418  12436     1   0.14316 258236.480000
  12419  12421     1   0.15375 251793.120000
  12419  12439     1   0.14233 265014.560000
  12421  12422     1   0.15375 251793.120000
  12421  12428     1   0.14233 265014.560000
  12422  12423     1   0.15375 251793.120000
  12422  12441     1   0.14647 272713.120000
  12423  12427     1   0.14233 265014.560000
  12423  12436     1   0.14316 258236.480000
  12429  12434     1   0.14233 265014.560000
  12443  12445     1   0.14619 275056.160000
  12445  12447     1   0.15375 251793.120000
  12447  12451     1   0.15110 237065.440000
  12451  12452     1   0.15110 237065.440000
  12451  12453     1   0.15110 237065.440000
  12452  12463     1   0.15375 251793.120000
  12453  12455     1   0.15375 251793.120000
  12455  12459     1   0.15241 261918.400000
  12459  12460     1   0.12183 533627.360000
  12459  12491     1   0.13400 406935.840000
  12463  12466     1   0.15241 261918.400000
  12466  12467     1   0.12183 533627.360000
  12466  12515     1   0.13400 406935.840000
  12468  12469     1   0.15375 251793.120000
  12468  12479     1   0.15375 251793.120000
  12468  12486     1   0.14316 258236.480000
  12469  12471     1   0.15375 251793.120000
  12469  12489     1   0.14233 265014.560000
  12471  12472     1   0.15375 251793.120000
  12471  12478     1   0.14233 265014.560000
  12472  12473     1   0.15375 251793.120000
  12472  12491     1   0.14647 272713.120000
  12473  12477     1   0.14233 265014.560000
  12473  12486     1   0.14316 258236.480000
  12479  12484     1   0.14233 265014.560000
  12492  12493     1   0.15375 251793.120000
  12492  12503     1   0.15375 251793.120000
  12492  12510     1   0.14316 258236.480000
  12493  12495     1   0.15375 251793.120000
  12493  12513     1   0.14233 265014.560000
  12495  12496     1   0.15375 251793.120000
  12495  12502     1   0.14233 265014.560000
  12496  12497     1   0.15375 251793.120000
  12496  12515     1   0.14647 272713.120000
  12497  12501     1   0.14233 265014.560000
  12497  12510     1   0.14316 258236.480000
  12503  12508     1   0.14233 265014.560000
  12517  12519     1   0.14619 275056.160000
  12519  12521     1   0.15375 251793.120000
  12521  12525     1   0.15110 237065.440000
  12525  12526     1   0.15110 237065.440000
  12525  12527     1   0.15110 237065.440000
  12526  12537     1   0.15375 251793.120000
  12527  12529     1   0.15375 251793.120000
  12529  12533     1   0.15241 261918.400000
  12533  12534     1   0.12183 533627.360000
  12533  12565     1   0.13400 406935.840000
  12537  12540     1   0.15241 261918.400000
  12540  12541     1   0.12183 533627.360000
  12540  12589     1   0.13400 406935.840000
  12542  12543     1   0.15375 251793.120000
  12542  12553     1   0.15375 251793.120000
  12542  12560     1   0.14316 258236.480000
  12543  12545     1   0.15375 251793.120000
  12543  12563     1   0.14233 265014.560000
  12545  12546     1   0.15375 251793.120000
  12545  12552     1   0.14233 265014.560000
  12546  12547     1   0.15375 251793.120000
  12546  12565     1   0.14647 272713.120000
  12547  12551     1   0.14233 265014.560000
  12547  12560     1   0.14316 258236.480000
  12553  12558     1   0.14233 265014.560000
  12566  12567     1   0.15375 251793.120000
  12566  12577     1   0.15375 251793.120000
  12566  12584     1   0.14316 258236.480000
  12567  12569     1   0.15375 251793.120000
  12567  12587     1   0.14233 265014.560000
  12569  12570     1   0.15375 251793.120000
  12569  12576     1   0.14233 265014.560000
  12570  12571     1   0.15375 251793.120000
  12570  12589     1   0.14647 272713.120000
  12571  12575     1   0.14233 265014.560000
  12571  12584     1   0.14316 258236.480000
  12577  12582     1   0.14233 265014.560000
  12591  12593     1   0.14619 275056.160000
  12593  12595     1   0.15375 251793.120000
  12595  12599     1   0.15110 237065.440000
  12599  12600     1   0.15110 237065.440000
  12599  12601     1   0.15110 237065.440000
  12600  12611     1   0.15375 251793.120000
  12601  12603     1   0.15375 251793.120000
  12603  12607     1   0.15241 261918.400000
  12607  12608     1   0.12183 533627.360000
  12607  12639     1   0.13400 406935.840000
  12611  12614     1   0.15241 261918.400000
  12614  12615     1   0.12183 533627.360000
  12614  12663     1   0.13400 406935.840000
  12616  12617     1   0.15375 251793.120000
  12616  12627     1   0.15375 251793.120000
  12616  12634     1   0.14316 258236.480000
  12617  12619     1   0.15375 251793.120000
  12617  12637     1   0.14233 265014.560000
  12619  12620     1   0.15375 251793.120000
  12619  12626     1   0.14233 265014.560000
  12620  12621     1   0.15375 251793.120000
  12620  12639     1   0.14647 272713.120000
  12621  12625     1   0.14233 265014.560000
  12621  12634     1   0.14316 258236.480000
  12627  12632     1   0.14233 265014.560000
  12640  12641     1   0.15375 251793.120000
  12640  12651     1   0.15375 251793.120000
  12640  12658     1   0.14316 258236.480000
  12641  12643     1   0.15375 251793.120000
  12641  12661     1   0.14233 265014.560000
  12643  12644     1   0.15375 251793.120000
  12643  12650     1   0.14233 265014.560000
  12644  12645     1   0.15375 251793.120000
  12644  12663     1   0.14647 272713.120000
  12645  12649     1   0.14233 265014.560000
  12645  12658     1   0.14316 258236.480000
  12651  12656     1   0.14233 265014.560000
  12665  12667     1   0.14619 275056.160000
  12667  12669     1   0.15375 251793.120000
  12669  12673     1   0.15110 237065.440000
  12673  12674     1   0.15110 237065.440000
  12673  12675     1   0.15110 237065.440000
  12674  12685     1   0.15375 251793.120000
  12675  12677     1   0.15375 251793.120000
  12677  12681     1   0.15241 261918.400000
  12681  12682     1   0.12183 533627.360000
  12681  12713     1   0.13400 406935.840000
  12685  12688     1   0.15241 261918.400000
  12688  12689     1   0.12183 533627.360000
  12688  12737     1   0.13400 406935.840000
  12690  12691     1   0.15375 251793.120000
  12690  12701     1   0.15375 251793.120000
  12690  12708     1   0.14316 258236.480000
  12691  12693     1   0.15375 251793.120000
  12691  12711     1   0.14233 265014.560000
  12693  12694     1   0.15375 251793.120000
  12693  12700     1   0.14233 265014.560000
  12694  12695     1   0.15375 251793.120000
  12694  12713     1   0.14647 272713.120000
  12695  12699     1   0.14233 265014.560000
  12695  12708     1   0.14316 258236.480000
  12701  12706     1   0.14233 265014.560000
  12714  12715     1   0.15375 251793.120000
  12714  12725     1   0.15375 251793.120000
  12714  12732     1   0.14316 258236.480000
  12715  12717     1   0.15375 251793.120000
  12715  12735     1   0.14233 265014.560000
  12717  12718     1   0.15375 251793.120000
  12717  12724     1   0.14233 265014.560000
  12718  12719     1   0.15375 251793.120000
  12718  12737     1   0.14647 272713.120000
  12719  12723     1   0.14233 265014.560000
  12719  12732     1   0.14316 258236.480000
  12725  12730     1   0.14233 265014.560000
      1     41     1   0.10304 312293.760000
      2     21     1   0.10910 283424.160000
      2     22     1   0.10910 283424.160000
      3     23     1   0.10910 283424.160000
      3     24     1   0.10910 283424.160000
      4     42     1   0.10304 312293.760000
      5     25     1   0.10910 283424.160000
      5     26     1   0.10910 283424.160000
      6     27     1   0.10910 283424.160000
      6     28     1   0.10910 283424.160000
      7     29     1   0.10910 283424.160000
      7     30     1   0.10910 283424.160000
      8     31     1   0.10910 283424.160000
      8     32     1   0.10910 283424.160000
      9     33     1   0.10969 276646.080000
      9     34     1   0.10969 276646.080000
     11     35     1   0.10969 276646.080000
     11     36     1   0.10969 276646.080000
     13     37     1   0.10969 276646.080000
     13     38     1   0.10969 276646.080000
     15     39     1   0.10969 276646.080000
     15     40     1   0.10969 276646.080000
     43     68     1   0.10304 312293.760000
     44     55     1   0.10910 283424.160000
     44     56     1   0.10910 283424.160000
     45     57     1   0.10910 283424.160000
     45     58     1   0.10910 283424.160000
     46     59     1   0.10969 276646.080000
     46     60     1   0.10969 276646.080000
     48     61     1   0.10969 276646.080000
     48     62     1   0.10969 276646.080000
     50     63     1   0.10910 283424.160000
     50     64     1   0.10910 283424.160000
     51     65     1   0.10969 276646.080000
     51     66     1   0.10969 276646.080000
     52     67     1   0.10129 337397.760000
     69     94     1   0.10304 312293.760000
     70     81     1   0.10910 283424.160000
     70     82     1   0.10910 283424.160000
     71     83     1   0.10910 283424.160000
     71     84     1   0.10910 283424.160000
     72     85     1   0.10969 276646.080000
     72     86     1   0.10969 276646.080000
     74     87     1   0.10969 276646.080000
     74     88     1   0.10969 276646.080000
     76     89     1   0.10910 283424.160000
     76     90     1   0.10910 283424.160000
     77     91     1   0.10969 276646.080000
     77     92     1   0.10969 276646.080000
     78     93     1   0.10129 337397.760000
     95    120     1   0.10304 312293.760000
     96    107     1   0.10910 283424.160000
     96    108     1   0.10910 283424.160000
     97    109     1   0.10910 283424.160000
     97    110     1   0.10910 283424.160000
     98    111     1   0.10969 276646.080000
     98    112     1   0.10969 276646.080000
    100    113     1   0.10969 276646.080000
    100    114     1   0.10969 276646.080000
    102    115     1   0.10910 283424.160000
    102    116     1   0.10910 283424.160000
    103    117     1   0.10969 276646.080000
    103    118     1   0.10969 276646.080000
    104    119     1   0.10129 337397.760000
    121    146     1   0.10304 312293.760000
    122    133     1   0.10910 283424.160000
    122    134     1   0.10910 283424.160000
    123    135     1   0.10910 283424.160000
    123    136     1   0.10910 283424.160000
    124    137     1   0.10969 276646.080000
    124    138     1   0.10969 276646.080000
    126    139     1   0.10969 276646.080000
    126    140     1   0.10969 276646.080000
    128    141     1   0.10910 283424.160000
    128    142     1   0.10910 283424.160000
    129    143     1   0.10969 276646.080000
    129    144     1   0.10969 276646.080000
    130    145     1   0.10129 337397.760000
    147    172     1   0.10304 312293.760000
    148    159     1   0.10910 283424.160000
    148    160     1   0.10910 283424.160000
    149    161     1   0.10910 283424.160000
    149    162     1   0.10910 283424.160000
    150    163     1   0.10969 276646.080000
    150    164     1   0.10969 276646.080000
    152    165     1   0.10969 276646.080000
    152    166     1   0.10969 276646.080000
    154    167     1   0.10910 283424.160000
    154    168     1   0.10910 283424.160000
    155    169     1   0.10969 276646.080000
    155    170     1   0.10969 276646.080000
    156    171     1   0.10129 337397.760000
    173    198     1   0.10304 312293.760000
    174    185     1   0.10910 283424.160000
    174    186     1   0.10910 283424.160000
    175    187     1   0.10910 283424.160000
    175    188     1   0.10910 283424.160000
    176    189     1   0.10969 276646.080000
    176    190     1   0.10969 276646.080000
    178    191     1   0.10969 276646.080000
    178    192     1   0.10969 276646.080000
    180    193     1   0.10910 283424.160000
    180    194     1   0.10910 283424.160000
    181    195     1   0.10969 276646.080000
    181    196     1   0.10969 276646.080000
    182    197     1   0.10129 337397.760000
    199    224     1   0.10304 312293.760000
    200    211     1   0.10910 283424.160000
    200    212     1   0.10910 283424.160000
    201    213     1   0.10910 283424.160000
    201    214     1   0.10910 283424.160000
    202    215     1   0.10969 276646.080000
    202    216     1   0.10969 276646.080000
    204    217     1   0.10969 276646.080000
    204    218     1   0.10969 276646.080000
    206    219     1   0.10910 283424.160000
    206    220     1   0.10910 283424.160000
    207    221     1   0.10969 276646.080000
    207    222     1   0.10969 276646.080000
    208    223     1   0.10129 337397.760000
    225    250     1   0.10304 312293.760000
    226    237     1   0.10910 283424.160000
    226    238     1   0.10910 283424.160000
    227    239     1   0.10910 283424.160000
    227    240     1   0.10910 283424.160000
    228    241     1   0.10969 276646.080000
    228    242     1   0.10969 276646.080000
    230    243     1   0.10969 276646.080000
    230    244     1   0.10969 276646.080000
    232    245     1   0.10910 283424.160000
    232    246     1   0.10910 283424.160000
    233    247     1   0.10969 276646.080000
    233    248     1   0.10969 276646.080000
    234    249     1   0.10129 337397.760000
    251    276     1   0.10304 312293.760000
    252    263     1   0.10910 283424.160000
    252    264     1   0.10910 283424.160000
    253    265     1   0.10910 283424.160000
    253    266     1   0.10910 283424.160000
    254    267     1   0.10969 276646.080000
    254    268     1   0.10969 276646.080000
    256    269     1   0.10969 276646.080000
    256    270     1   0.10969 276646.080000
    258    271     1   0.10910 283424.160000
    258    272     1   0.10910 283424.160000
    259    273     1   0.10969 276646.080000
    259    274     1   0.10969 276646.080000
    260    275     1   0.10129 337397.760000
    277    302     1   0.10304 312293.760000
    278    289     1   0.10910 283424.160000
    278    290     1   0.10910 283424.160000
    279    291     1   0.10910 283424.160000
    279    292     1   0.10910 283424.160000
    280    293     1   0.10969 276646.080000
    280    294     1   0.10969 276646.080000
    282    295     1   0.10969 276646.080000
    282    296     1   0.10969 276646.080000
    284    297     1   0.10910 283424.160000
    284    298     1   0.10910 283424.160000
    285    299     1   0.10969 276646.080000
    285    300     1   0.10969 276646.080000
    286    301     1   0.10129 337397.760000
    303    328     1   0.10304 312293.760000
    304    315     1   0.10910 283424.160000
    304    316     1   0.10910 283424.160000
    305    317     1   0.10910 283424.160000
    305    318     1   0.10910 283424.160000
    306    319     1   0.10969 276646.080000
    306    320     1   0.10969 276646.080000
    308    321     1   0.10969 276646.080000
    308    322     1   0.10969 276646.080000
    310    323     1   0.10910 283424.160000
    310    324     1   0.10910 283424.160000
    311    325     1   0.10969 276646.080000
    311    326     1   0.10969 276646.080000
    312    327     1   0.10129 337397.760000
    329    354     1   0.10304 312293.760000
    330    341     1   0.10910 283424.160000
    330    342     1   0.10910 283424.160000
    331    343     1   0.10910 283424.160000
    331    344     1   0.10910 283424.160000
    332    345     1   0.10969 276646.080000
    332    346     1   0.10969 276646.080000
    334    347     1   0.10969 276646.080000
    334    348     1   0.10969 276646.080000
    336    349     1   0.10910 283424.160000
    336    350     1   0.10910 283424.160000
    337    351     1   0.10969 276646.080000
    337    352     1   0.10969 276646.080000
    338    353     1   0.10129 337397.760000
    355    380     1   0.10304 312293.760000
    356    367     1   0.10910 283424.160000
    356    368     1   0.10910 283424.160000
    357    369     1   0.10910 283424.160000
    357    370     1   0.10910 283424.160000
    358    371     1   0.10969 276646.080000
    358    372     1   0.10969 276646.080000
    360    373     1   0.10969 276646.080000
    360    374     1   0.10969 276646.080000
    362    375     1   0.10910 283424.160000
    362    376     1   0.10910 283424.160000
    363    377     1   0.10969 276646.080000
    363    378     1   0.10969 276646.080000
    364    379     1   0.10129 337397.760000
    381    406     1   0.10304 312293.760000
    382    393     1   0.10910 283424.160000
    382    394     1   0.10910 283424.160000
    383    395     1   0.10910 283424.160000
    383    396     1   0.10910 283424.160000
    384    397     1   0.10969 276646.080000
    384    398     1   0.10969 276646.080000
    386    399     1   0.10969 276646.080000
    386    400     1   0.10969 276646.080000
    388    401     1   0.10910 283424.160000
    388    402     1   0.10910 283424.160000
    389    403     1   0.10969 276646.080000
    389    404     1   0.10969 276646.080000
    390    405     1   0.10129 337397.760000
    407    432     1   0.10304 312293.760000
    408    419     1   0.10910 283424.160000
    408    420     1   0.10910 283424.160000
    409    421     1   0.10910 283424.160000
    409    422     1   0.10910 283424.160000
    410    423     1   0.10969 276646.080000
    410    424     1   0.10969 276646.080000
    412    425     1   0.10969 276646.080000
    412    426     1   0.10969 276646.080000
    414    427     1   0.10910 283424.160000
    414    428     1   0.10910 283424.160000
    415    429     1   0.10969 276646.080000
    415    430     1   0.10969 276646.080000
    416    431     1   0.10129 337397.760000
    433    458     1   0.10304 312293.760000
    434    445     1   0.10910 283424.160000
    434    446     1   0.10910 283424.160000
    435    447     1   0.10910 283424.160000
    435    448     1   0.10910 283424.160000
    436    449     1   0.10969 276646.080000
    436    450     1   0.10969 276646.080000
    438    451     1   0.10969 276646.080000
    438    452     1   0.10969 276646.080000
    440    453     1   0.10910 283424.160000
    440    454     1   0.10910 283424.160000
    441    455     1   0.10969 276646.080000
    441    456     1   0.10969 276646.080000
    442    457     1   0.10129 337397.760000
    459    484     1   0.10304 312293.760000
    460    471     1   0.10910 283424.160000
    460    472     1   0.10910 283424.160000
    461    473     1   0.10910 283424.160000
    461    474     1   0.10910 283424.160000
    462    475     1   0.10969 276646.080000
    462    476     1   0.10969 276646.080000
    464    477     1   0.10969 276646.080000
    464    478     1   0.10969 276646.080000
    466    479     1   0.10910 283424.160000
    466    480     1   0.10910 283424.160000
    467    481     1   0.10969 276646.080000
    467    482     1   0.10969 276646.080000
    468    483     1   0.10129 337397.760000
    485    510     1   0.10304 312293.760000
    486    497     1   0.10910 283424.160000
    486    498     1   0.10910 283424.160000
    487    499     1   0.10910 283424.160000
    487    500     1   0.10910 283424.160000
    488    501     1   0.10969 276646.080000
    488    502     1   0.10969 276646.080000
    490    503     1   0.10969 276646.080000
    490    504     1   0.10969 276646.080000
    492    505     1   0.10910 283424.160000
    492    506     1   0.10910 283424.160000
    493    507     1   0.10969 276646.080000
    493    508     1   0.10969 276646.080000
    494    509     1   0.10129 337397.760000
    511    536     1   0.10304 312293.760000
    512    523     1   0.10910 283424.160000
    512    524     1   0.10910 283424.160000
    513    525     1   0.10910 283424.160000
    513    526     1   0.10910 283424.160000
    514    527     1   0.10969 276646.080000
    514    528     1   0.10969 276646.080000
    516    529     1   0.10969 276646.080000
    516    530     1   0.10969 276646.080000
    518    531     1   0.10910 283424.160000
    518    532     1   0.10910 283424.160000
    519    533     1   0.10969 276646.080000
    519    534     1   0.10969 276646.080000
    520    535     1   0.10129 337397.760000
    537    562     1   0.10304 312293.760000
    538    549     1   0.10910 283424.160000
    538    550     1   0.10910 283424.160000
    539    551     1   0.10910 283424.160000
    539    552     1   0.10910 283424.160000
    540    553     1   0.10969 276646.080000
    540    554     1   0.10969 276646.080000
    542    555     1   0.10969 276646.080000
    542    556     1   0.10969 276646.080000
    544    557     1   0.10910 283424.160000
    544    558     1   0.10910 283424.160000
    545    559     1   0.10969 276646.080000
    545    560     1   0.10969 276646.080000
    546    561     1   0.10129 337397.760000
    563    588     1   0.10304 312293.760000
    564    575     1   0.10910 283424.160000
    564    576     1   0.10910 283424.160000
    565    577     1   0.10910 283424.160000
    565    578     1   0.10910 283424.160000
    566    579     1   0.10969 276646.080000
    566    580     1   0.10969 276646.080000
    568    581     1   0.10969 276646.080000
    568    582     1   0.10969 276646.080000
    570    583     1   0.10910 283424.160000
    570    584     1   0.10910 283424.160000
    571    585     1   0.10969 276646.080000
    571    586     1   0.10969 276646.080000
    572    587     1   0.10129 337397.760000
    589    614     1   0.10304 312293.760000
    590    601     1   0.10910 283424.160000
    590    602     1   0.10910 283424.160000
    591    603     1   0.10910 283424.160000
    591    604     1   0.10910 283424.160000
    592    605     1   0.10969 276646.080000
    592    606     1   0.10969 276646.080000
    594    607     1   0.10969 276646.080000
    594    608     1   0.10969 276646.080000
    596    609     1   0.10910 283424.160000
    596    610     1   0.10910 283424.160000
    597    611     1   0.10969 276646.080000
    597    612     1   0.10969 276646.080000
    598    613     1   0.10129 337397.760000
    615    640     1   0.10304 312293.760000
    616    627     1   0.10910 283424.160000
    616    628     1   0.10910 283424.160000
    617    629     1   0.10910 283424.160000
    617    630     1   0.10910 283424.160000
    618    631     1   0.10969 276646.080000
    618    632     1   0.10969 276646.080000
    620    633     1   0.10969 276646.080000
    620    634     1   0.10969 276646.080000
    622    635     1   0.10910 283424.160000
    622    636     1   0.10910 283424.160000
    623    637     1   0.10969 276646.080000
    623    638     1   0.10969 276646.080000
    624    639     1   0.10129 337397.760000
    641    666     1   0.10304 312293.760000
    642    653     1   0.10910 283424.160000
    642    654     1   0.10910 283424.160000
    643    655     1   0.10910 283424.160000
    643    656     1   0.10910 283424.160000
    644    657     1   0.10969 276646.080000
    644    658     1   0.10969 276646.080000
    646    659     1   0.10969 276646.080000
    646    660     1   0.10969 276646.080000
    648    661     1   0.10910 283424.160000
    648    662     1   0.10910 283424.160000
    649    663     1   0.10969 276646.080000
    649    664     1   0.10969 276646.080000
    650    665     1   0.10129 337397.760000
    667    692     1   0.10304 312293.760000
    668    679     1   0.10910 283424.160000
    668    680     1   0.10910 283424.160000
    669    681     1   0.10910 283424.160000
    669    682     1   0.10910 283424.160000
    670    683     1   0.10969 276646.080000
    670    684     1   0.10969 276646.080000
    672    685     1   0.10969 276646.080000
    672    686     1   0.10969 276646.080000
    674    687     1   0.10910 283424.160000
    674    688     1   0.10910 283424.160000
    675    689     1   0.10969 276646.080000
    675    690     1   0.10969 276646.080000
    676    691     1   0.10129 337397.760000
    693    718     1   0.10304 312293.760000
    694    705     1   0.10910 283424.160000
    694    706     1   0.10910 283424.160000
    695    707     1   0.10910 283424.160000
    695    708     1   0.10910 283424.160000
    696    709     1   0.10969 276646.080000
    696    710     1   0.10969 276646.080000
    698    711     1   0.10969 276646.080000
    698    712     1   0.10969 276646.080000
    700    713     1   0.10910 283424.160000
    700    714     1   0.10910 283424.160000
    701    715     1   0.10969 276646.080000
    701    716     1   0.10969 276646.080000
    702    717     1   0.10129 337397.760000
    719    744     1   0.10304 312293.760000
    720    731     1   0.10910 283424.160000
    720    732     1   0.10910 283424.160000
    721    733     1   0.10910 283424.160000
    721    734     1   0.10910 283424.160000
    722    735     1   0.10969 276646.080000
    722    736     1   0.10969 276646.080000
    724    737     1   0.10969 276646.080000
    724    738     1   0.10969 276646.080000
    726    739     1   0.10910 283424.160000
    726    740     1   0.10910 283424.160000
    727    741     1   0.10969 276646.080000
    727    742     1   0.10969 276646.080000
    728    743     1   0.10129 337397.760000
    745    770     1   0.10304 312293.760000
    746    757     1   0.10910 283424.160000
    746    758     1   0.10910 283424.160000
    747    759     1   0.10910 283424.160000
    747    760     1   0.10910 283424.160000
    748    761     1   0.10969 276646.080000
    748    762     1   0.10969 276646.080000
    750    763     1   0.10969 276646.080000
    750    764     1   0.10969 276646.080000
    752    765     1   0.10910 283424.160000
    752    766     1   0.10910 283424.160000
    753    767     1   0.10969 276646.080000
    753    768     1   0.10969 276646.080000
    754    769     1   0.10129 337397.760000
    771    796     1   0.10304 312293.760000
    772    783     1   0.10910 283424.160000
    772    784     1   0.10910 283424.160000
    773    785     1   0.10910 283424.160000
    773    786     1   0.10910 283424.160000
    774    787     1   0.10969 276646.080000
    774    788     1   0.10969 276646.080000
    776    789     1   0.10969 276646.080000
    776    790     1   0.10969 276646.080000
    778    791     1   0.10910 283424.160000
    778    792     1   0.10910 283424.160000
    779    793     1   0.10969 276646.080000
    779    794     1   0.10969 276646.080000
    780    795     1   0.10129 337397.760000
    797    822     1   0.10304 312293.760000
    798    809     1   0.10910 283424.160000
    798    810     1   0.10910 283424.160000
    799    811     1   0.10910 283424.160000
    799    812     1   0.10910 283424.160000
    800    813     1   0.10969 276646.080000
    800    814     1   0.10969 276646.080000
    802    815     1   0.10969 276646.080000
    802    816     1   0.10969 276646.080000
    804    817     1   0.10910 283424.160000
    804    818     1   0.10910 283424.160000
    805    819     1   0.10969 276646.080000
    805    820     1   0.10969 276646.080000
    806    821     1   0.10129 337397.760000
    823    848     1   0.10304 312293.760000
    824    835     1   0.10910 283424.160000
    824    836     1   0.10910 283424.160000
    825    837     1   0.10910 283424.160000
    825    838     1   0.10910 283424.160000
    826    839     1   0.10969 276646.080000
    826    840     1   0.10969 276646.080000
    828    841     1   0.10969 276646.080000
    828    842     1   0.10969 276646.080000
    830    843     1   0.10910 283424.160000
    830    844     1   0.10910 283424.160000
    831    845     1   0.10969 276646.080000
    831    846     1   0.10969 276646.080000
    832    847     1   0.10129 337397.760000
    849    874     1   0.10304 312293.760000
    850    861     1   0.10910 283424.160000
    850    862     1   0.10910 283424.160000
    851    863     1   0.10910 283424.160000
    851    864     1   0.10910 283424.160000
    852    865     1   0.10969 276646.080000
    852    866     1   0.10969 276646.080000
    854    867     1   0.10969 276646.080000
    854    868     1   0.10969 276646.080000
    856    869     1   0.10910 283424.160000
    856    870     1   0.10910 283424.160000
    857    871     1   0.10969 276646.080000
    857    872     1   0.10969 276646.080000
    858    873     1   0.10129 337397.760000
    875    900     1   0.10304 312293.760000
    876    887     1   0.10910 283424.160000
    876    888     1   0.10910 283424.160000
    877    889     1   0.10910 283424.160000
    877    890     1   0.10910 283424.160000
    878    891     1   0.10969 276646.080000
    878    892     1   0.10969 276646.080000
    880    893     1   0.10969 276646.080000
    880    894     1   0.10969 276646.080000
    882    895     1   0.10910 283424.160000
    882    896     1   0.10910 283424.160000
    883    897     1   0.10969 276646.080000
    883    898     1   0.10969 276646.080000
    884    899     1   0.10129 337397.760000
    901    926     1   0.10304 312293.760000
    902    913     1   0.10910 283424.160000
    902    914     1   0.10910 283424.160000
    903    915     1   0.10910 283424.160000
    903    916     1   0.10910 283424.160000
    904    917     1   0.10969 276646.080000
    904    918     1   0.10969 276646.080000
    906    919     1   0.10969 276646.080000
    906    920     1   0.10969 276646.080000
    908    921     1   0.10910 283424.160000
    908    922     1   0.10910 283424.160000
    909    923     1   0.10969 276646.080000
    909    924     1   0.10969 276646.080000
    910    925     1   0.10129 337397.760000
    927    952     1   0.10304 312293.760000
    928    939     1   0.10910 283424.160000
    928    940     1   0.10910 283424.160000
    929    941     1   0.10910 283424.160000
    929    942     1   0.10910 283424.160000
    930    943     1   0.10969 276646.080000
    930    944     1   0.10969 276646.080000
    932    945     1   0.10969 276646.080000
    932    946     1   0.10969 276646.080000
    934    947     1   0.10910 283424.160000
    934    948     1   0.10910 283424.160000
    935    949     1   0.10969 276646.080000
    935    950     1   0.10969 276646.080000
    936    951     1   0.10129 337397.760000
    953    978     1   0.10304 312293.760000
    954    965     1   0.10910 283424.160000
    954    966     1   0.10910 283424.160000
    955    967     1   0.10910 283424.160000
    955    968     1   0.10910 283424.160000
    956    969     1   0.10969 276646.080000
    956    970     1   0.10969 276646.080000
    958    971     1   0.10969 276646.080000
    958    972     1   0.10969 276646.080000
    960    973     1   0.10910 283424.160000
    960    974     1   0.10910 283424.160000
    961    975     1   0.10969 276646.080000
    961    976     1   0.10969 276646.080000
    962    977     1   0.10129 337397.760000
    979   1004     1   0.10304 312293.760000
    980    991     1   0.10910 283424.160000
    980    992     1   0.10910 283424.160000
    981    993     1   0.10910 283424.160000
    981    994     1   0.10910 283424.160000
    982    995     1   0.10969 276646.080000
    982    996     1   0.10969 276646.080000
    984    997     1   0.10969 276646.080000
    984    998     1   0.10969 276646.080000
    986    999     1   0.10910 283424.160000
    986   1000     1   0.10910 283424.160000
    987   1001     1   0.10969 276646.080000
    987   1002     1   0.10969 276646.080000
    988   1003     1   0.10129 337397.760000
   1005   1030     1   0.10304 312293.760000
   1006   1017     1   0.10910 283424.160000
   1006   1018     1   0.10910 283424.160000
   1007   1019     1   0.10910 283424.160000
   1007   1020     1   0.10910 283424.160000
   1008   1021     1   0.10969 276646.080000
   1008   1022     1   0.10969 276646.080000
   1010   1023     1   0.10969 276646.080000
   1010   1024     1   0.10969 276646.080000
   1012   1025     1   0.10910 283424.160000
   1012   1026     1   0.10910 283424.160000
   1013   1027     1   0.10969 276646.080000
   1013   1028     1   0.10969 276646.080000
   1014   1029     1   0.10129 337397.760000
   1031   1056     1   0.10304 312293.760000
   1032   1043     1   0.10910 283424.160000
   1032   1044     1   0.10910 283424.160000
   1033   1045     1   0.10910 283424.160000
   1033   1046     1   0.10910 283424.160000
   1034   1047     1   0.10969 276646.080000
   1034   1048     1   0.10969 276646.080000
   1036   1049     1   0.10969 276646.080000
   1036   1050     1   0.10969 276646.080000
   1038   1051     1   0.10910 283424.160000
   1038   1052     1   0.10910 283424.160000
   1039   1053     1   0.10969 276646.080000
   1039   1054     1   0.10969 276646.080000
   1040   1055     1   0.10129 337397.760000
   1057   1082     1   0.10304 312293.760000
   1058   1069     1   0.10910 283424.160000
   1058   1070     1   0.10910 283424.160000
   1059   1071     1   0.10910 283424.160000
   1059   1072     1   0.10910 283424.160000
   1060   1073     1   0.10969 276646.080000
   1060   1074     1   0.10969 276646.080000
   1062   1075     1   0.10969 276646.080000
   1062   1076     1   0.10969 276646.080000
   1064   1077     1   0.10910 283424.160000
   1064   1078     1   0.10910 283424.160000
   1065   1079     1   0.10969 276646.080000
   1065   1080     1   0.10969 276646.080000
   1066   1081     1   0.10129 337397.760000
   1083   1108     1   0.10304 312293.760000
   1084   1095     1   0.10910 283424.160000
   1084   1096     1   0.10910 283424.160000
   1085   1097     1   0.10910 283424.160000
   1085   1098     1   0.10910 283424.160000
   1086   1099     1   0.10969 276646.080000
   1086   1100     1   0.10969 276646.080000
   1088   1101     1   0.10969 276646.080000
   1088   1102     1   0.10969 276646.080000
   1090   1103     1   0.10910 283424.160000
   1090   1104     1   0.10910 283424.160000
   1091   1105     1   0.10969 276646.080000
   1091   1106     1   0.10969 276646.080000
   1092   1107     1   0.10129 337397.760000
   1109   1134     1   0.10304 312293.760000
   1110   1121     1   0.10910 283424.160000
   1110   1122     1   0.10910 283424.160000
   1111   1123     1   0.10910 283424.160000
   1111   1124     1   0.10910 283424.160000
   1112   1125     1   0.10969 276646.080000
   1112   1126     1   0.10969 276646.080000
   1114   1127     1   0.10969 276646.080000
   1114   1128     1   0.10969 276646.080000
   1116   1129     1   0.10910 283424.160000
   1116   1130     1   0.10910 283424.160000
   1117   1131     1   0.10969 276646.080000
   1117   1132     1   0.10969 276646.080000
   1118   1133     1   0.10129 337397.760000
   1135   1160     1   0.10304 312293.760000
   1136   1147     1   0.10910 283424.160000
   1136   1148     1   0.10910 283424.160000
   1137   1149     1   0.10910 283424.160000
   1137   1150     1   0.10910 283424.160000
   1138   1151     1   0.10969 276646.080000
   1138   1152     1   0.10969 276646.080000
   1140   1153     1   0.10969 276646.080000
   1140   1154     1   0.10969 276646.080000
   1142   1155     1   0.10910 283424.160000
   1142   1156     1   0.10910 283424.160000
   1143   1157     1   0.10969 276646.080000
   1143   1158     1   0.10969 276646.080000
   1144   1159     1   0.10129 337397.760000
   1161   1186     1   0.10304 312293.760000
   1162   1173     1   0.10910 283424.160000
   1162   1174     1   0.10910 283424.160000
   1163   1175     1   0.10910 283424.160000
   1163   1176     1   0.10910 283424.160000
   1164   1177     1   0.10969 276646.080000
   1164   1178     1   0.10969 276646.080000
   1166   1179     1   0.10969 276646.080000
   1166   1180     1   0.10969 276646.080000
   1168   1181     1   0.10910 283424.160000
   1168   1182     1   0.10910 283424.160000
   1169   1183     1   0.10969 276646.080000
   1169   1184     1   0.10969 276646.080000
   1170   1185     1   0.10129 337397.760000
   1187   1212     1   0.10304 312293.760000
   1188   1199     1   0.10910 283424.160000
   1188   1200     1   0.10910 283424.160000
   1189   1201     1   0.10910 283424.160000
   1189   1202     1   0.10910 283424.160000
   1190   1203     1   0.10969 276646.080000
   1190   1204     1   0.10969 276646.080000
   1192   1205     1   0.10969 276646.080000
   1192   1206     1   0.10969 276646.080000
   1194   1207     1   0.10910 283424.160000
   1194   1208     1   0.10910 283424.160000
   1195   1209     1   0.10969 276646.080000
   1195   1210     1   0.10969 276646.080000
   1196   1211     1   0.10129 337397.760000
   1213   1238     1   0.10304 312293.760000
   1214   1225     1   0.10910 283424.160000
   1214   1226     1   0.10910 283424.160000
   1215   1227     1   0.10910 283424.160000
   1215   1228     1   0.10910 283424.160000
   1216   1229     1   0.10969 276646.080000
   1216   1230     1   0.10969 276646.080000
   1218   1231     1   0.10969 276646.080000
   1218   1232     1   0.10969 276646.080000
   1220   1233     1   0.10910 283424.160000
   1220   1234     1   0.10910 283424.160000
   1221   1235     1   0.10969 276646.080000
   1221   1236     1   0.10969 276646.080000
   1222   1237     1   0.10129 337397.760000
   1239   1264     1   0.10304 312293.760000
   1240   1251     1   0.10910 283424.160000
   1240   1252     1   0.10910 283424.160000
   1241   1253     1   0.10910 283424.160000
   1241   1254     1   0.10910 283424.160000
   1242   1255     1   0.10969 276646.080000
   1242   1256     1   0.10969 276646.080000
   1244   1257     1   0.10969 276646.080000
   1244   1258     1   0.10969 276646.080000
   1246   1259     1   0.10910 283424.160000
   1246   1260     1   0.10910 283424.160000
   1247   1261     1   0.10969 276646.080000
   1247   1262     1   0.10969 276646.080000
   1248   1263     1   0.10129 337397.760000
   1265   1290     1   0.10304 312293.760000
   1266   1277     1   0.10910 283424.160000
   1266   1278     1   0.10910 283424.160000
   1267   1279     1   0.10910 283424.160000
   1267   1280     1   0.10910 283424.160000
   1268   1281     1   0.10969 276646.080000
   1268   1282     1   0.10969 276646.080000
   1270   1283     1   0.10969 276646.080000
   1270   1284     1   0.10969 276646.080000
   1272   1285     1   0.10910 283424.160000
   1272   1286     1   0.10910 283424.160000
   1273   1287     1   0.10969 276646.080000
   1273   1288     1   0.10969 276646.080000
   1274   1289     1   0.10129 337397.760000
   1291   1316     1   0.10304 312293.760000
   1292   1303     1   0.10910 283424.160000
   1292   1304     1   0.10910 283424.160000
   1293   1305     1   0.10910 283424.160000
   1293   1306     1   0.10910 283424.160000
   1294   1307     1   0.10969 276646.080000
   1294   1308     1   0.10969 276646.080000
   1296   1309     1   0.10969 276646.080000
   1296   1310     1   0.10969 276646.080000
   1298   1311     1   0.10910 283424.160000
   1298   1312     1   0.10910 283424.160000
   1299   1313     1   0.10969 276646.080000
   1299   1314     1   0.10969 276646.080000
   1300   1315     1   0.10129 337397.760000
   1317   1342     1   0.10304 312293.760000
   1318   1329     1   0.10910 283424.160000
   1318   1330     1   0.10910 283424.160000
   1319   1331     1   0.10910 283424.160000
   1319   1332     1   0.10910 283424.160000
   1320   1333     1   0.10969 276646.080000
   1320   1334     1   0.10969 276646.080000
   1322   1335     1   0.10969 276646.080000
   1322   1336     1   0.10969 276646.080000
   1324   1337     1   0.10910 283424.160000
   1324   1338     1   0.10910 283424.160000
   1325   1339     1   0.10969 276646.080000
   1325   1340     1   0.10969 276646.080000
   1326   1341     1   0.10129 337397.760000
   1343   1368     1   0.10304 312293.760000
   1344   1355     1   0.10910 283424.160000
   1344   1356     1   0.10910 283424.160000
   1345   1357     1   0.10910 283424.160000
   1345   1358     1   0.10910 283424.160000
   1346   1359     1   0.10969 276646.080000
   1346   1360     1   0.10969 276646.080000
   1348   1361     1   0.10969 276646.080000
   1348   1362     1   0.10969 276646.080000
   1350   1363     1   0.10910 283424.160000
   1350   1364     1   0.10910 283424.160000
   1351   1365     1   0.10969 276646.080000
   1351   1366     1   0.10969 276646.080000
   1352   1367     1   0.10129 337397.760000
   1369   1394     1   0.10304 312293.760000
   1370   1381     1   0.10910 283424.160000
   1370   1382     1   0.10910 283424.160000
   1371   1383     1   0.10910 283424.160000
   1371   1384     1   0.10910 283424.160000
   1372   1385     1   0.10969 276646.080000
   1372   1386     1   0.10969 276646.080000
   1374   1387     1   0.10969 276646.080000
   1374   1388     1   0.10969 276646.080000
   1376   1389     1   0.10910 283424.160000
   1376   1390     1   0.10910 283424.160000
   1377   1391     1   0.10969 276646.080000
   1377   1392     1   0.10969 276646.080000
   1378   1393     1   0.10129 337397.760000
   1395   1420     1   0.10304 312293.760000
   1396   1407     1   0.10910 283424.160000
   1396   1408     1   0.10910 283424.160000
   1397   1409     1   0.10910 283424.160000
   1397   1410     1   0.10910 283424.160000
   1398   1411     1   0.10969 276646.080000
   1398   1412     1   0.10969 276646.080000
   1400   1413     1   0.10969 276646.080000
   1400   1414     1   0.10969 276646.080000
   1402   1415     1   0.10910 283424.160000
   1402   1416     1   0.10910 283424.160000
   1403   1417     1   0.10969 276646.080000
   1403   1418     1   0.10969 276646.080000
   1404   1419     1   0.10129 337397.760000
   1421   1446     1   0.10304 312293.760000
   1422   1433     1   0.10910 283424.160000
   1422   1434     1   0.10910 283424.160000
   1423   1435     1   0.10910 283424.160000
   1423   1436     1   0.10910 283424.160000
   1424   1437     1   0.10969 276646.080000
   1424   1438     1   0.10969 276646.080000
   1426   1439     1   0.10969 276646.080000
   1426   1440     1   0.10969 276646.080000
   1428   1441     1   0.10910 283424.160000
   1428   1442     1   0.10910 283424.160000
   1429   1443     1   0.10969 276646.080000
   1429   1444     1   0.10969 276646.080000
   1430   1445     1   0.10129 337397.760000
   1447   1472     1   0.10304 312293.760000
   1448   1459     1   0.10910 283424.160000
   1448   1460     1   0.10910 283424.160000
   1449   1461     1   0.10910 283424.160000
   1449   1462     1   0.10910 283424.160000
   1450   1463     1   0.10969 276646.080000
   1450   1464     1   0.10969 276646.080000
   1452   1465     1   0.10969 276646.080000
   1452   1466     1   0.10969 276646.080000
   1454   1467     1   0.10910 283424.160000
   1454   1468     1   0.10910 283424.160000
   1455   1469     1   0.10969 276646.080000
   1455   1470     1   0.10969 276646.080000
   1456   1471     1   0.10129 337397.760000
   1473   1498     1   0.10304 312293.760000
   1474   1485     1   0.10910 283424.160000
   1474   1486     1   0.10910 283424.160000
   1475   1487     1   0.10910 283424.160000
   1475   1488     1   0.10910 283424.160000
   1476   1489     1   0.10969 276646.080000
   1476   1490     1   0.10969 276646.080000
   1478   1491     1   0.10969 276646.080000
   1478   1492     1   0.10969 276646.080000
   1480   1493     1   0.10910 283424.160000
   1480   1494     1   0.10910 283424.160000
   1481   1495     1   0.10969 276646.080000
   1481   1496     1   0.10969 276646.080000
   1482   1497     1   0.10129 337397.760000
   1499   1524     1   0.10304 312293.760000
   1500   1511     1   0.10910 283424.160000
   1500   1512     1   0.10910 283424.160000
   1501   1513     1   0.10910 283424.160000
   1501   1514     1   0.10910 283424.160000
   1502   1515     1   0.10969 276646.080000
   1502   1516     1   0.10969 276646.080000
   1504   1517     1   0.10969 276646.080000
   1504   1518     1   0.10969 276646.080000
   1506   1519     1   0.10910 283424.160000
   1506   1520     1   0.10910 283424.160000
   1507   1521     1   0.10969 276646.080000
   1507   1522     1   0.10969 276646.080000
   1508   1523     1   0.10129 337397.760000
   1525   1550     1   0.10304 312293.760000
   1526   1537     1   0.10910 283424.160000
   1526   1538     1   0.10910 283424.160000
   1527   1539     1   0.10910 283424.160000
   1527   1540     1   0.10910 283424.160000
   1528   1541     1   0.10969 276646.080000
   1528   1542     1   0.10969 276646.080000
   1530   1543     1   0.10969 276646.080000
   1530   1544     1   0.10969 276646.080000
   1532   1545     1   0.10910 283424.160000
   1532   1546     1   0.10910 283424.160000
   1533   1547     1   0.10969 276646.080000
   1533   1548     1   0.10969 276646.080000
   1534   1549     1   0.10129 337397.760000
   1551   1576     1   0.10304 312293.760000
   1552   1563     1   0.10910 283424.160000
   1552   1564     1   0.10910 283424.160000
   1553   1565     1   0.10910 283424.160000
   1553   1566     1   0.10910 283424.160000
   1554   1567     1   0.10969 276646.080000
   1554   1568     1   0.10969 276646.080000
   1556   1569     1   0.10969 276646.080000
   1556   1570     1   0.10969 276646.080000
   1558   1571     1   0.10910 283424.160000
   1558   1572     1   0.10910 283424.160000
   1559   1573     1   0.10969 276646.080000
   1559   1574     1   0.10969 276646.080000
   1560   1575     1   0.10129 337397.760000
   1577   1602     1   0.10304 312293.760000
   1578   1589     1   0.10910 283424.160000
   1578   1590     1   0.10910 283424.160000
   1579   1591     1   0.10910 283424.160000
   1579   1592     1   0.10910 283424.160000
   1580   1593     1   0.10969 276646.080000
   1580   1594     1   0.10969 276646.080000
   1582   1595     1   0.10969 276646.080000
   1582   1596     1   0.10969 276646.080000
   1584   1597     1   0.10910 283424.160000
   1584   1598     1   0.10910 283424.160000
   1585   1599     1   0.10969 276646.080000
   1585   1600     1   0.10969 276646.080000
   1586   1601     1   0.10129 337397.760000
   1603   1628     1   0.10304 312293.760000
   1604   1615     1   0.10910 283424.160000
   1604   1616     1   0.10910 283424.160000
   1605   1617     1   0.10910 283424.160000
   1605   1618     1   0.10910 283424.160000
   1606   1619     1   0.10969 276646.080000
   1606   1620     1   0.10969 276646.080000
   1608   1621     1   0.10969 276646.080000
   1608   1622     1   0.10969 276646.080000
   1610   1623     1   0.10910 283424.160000
   1610   1624     1   0.10910 283424.160000
   1611   1625     1   0.10969 276646.080000
   1611   1626     1   0.10969 276646.080000
   1612   1627     1   0.10129 337397.760000
   1629   1654     1   0.10304 312293.760000
   1630   1641     1   0.10910 283424.160000
   1630   1642     1   0.10910 283424.160000
   1631   1643     1   0.10910 283424.160000
   1631   1644     1   0.10910 283424.160000
   1632   1645     1   0.10969 276646.080000
   1632   1646     1   0.10969 276646.080000
   1634   1647     1   0.10969 276646.080000
   1634   1648     1   0.10969 276646.080000
   1636   1649     1   0.10910 283424.160000
   1636   1650     1   0.10910 283424.160000
   1637   1651     1   0.10969 276646.080000
   1637   1652     1   0.10969 276646.080000
   1638   1653     1   0.10129 337397.760000
   1655   1680     1   0.10304 312293.760000
   1656   1667     1   0.10910 283424.160000
   1656   1668     1   0.10910 283424.160000
   1657   1669     1   0.10910 283424.160000
   1657   1670     1   0.10910 283424.160000
   1658   1671     1   0.10969 276646.080000
   1658   1672     1   0.10969 276646.080000
   1660   1673     1   0.10969 276646.080000
   1660   1674     1   0.10969 276646.080000
   1662   1675     1   0.10910 283424.160000
   1662   1676     1   0.10910 283424.160000
   1663   1677     1   0.10969 276646.080000
   1663   1678     1   0.10969 276646.080000
   1664   1679     1   0.10129 337397.760000
   1681   1706     1   0.10304 312293.760000
   1682   1693     1   0.10910 283424.160000
   1682   1694     1   0.10910 283424.160000
   1683   1695     1   0.10910 283424.160000
   1683   1696     1   0.10910 283424.160000
   1684   1697     1   0.10969 276646.080000
   1684   1698     1   0.10969 276646.080000
   1686   1699     1   0.10969 276646.080000
   1686   1700     1   0.10969 276646.080000
   1688   1701     1   0.10910 283424.160000
   1688   1702     1   0.10910 283424.160000
   1689   1703     1   0.10969 276646.080000
   1689   1704     1   0.10969 276646.080000
   1690   1705     1   0.10129 337397.760000
   1707   1732     1   0.10304 312293.760000
   1708   1719     1   0.10910 283424.160000
   1708   1720     1   0.10910 283424.160000
   1709   1721     1   0.10910 283424.160000
   1709   1722     1   0.10910 283424.160000
   1710   1723     1   0.10969 276646.080000
   1710   1724     1   0.10969 276646.080000
   1712   1725     1   0.10969 276646.080000
   1712   1726     1   0.10969 276646.080000
   1714   1727     1   0.10910 283424.160000
   1714   1728     1   0.10910 283424.160000
   1715   1729     1   0.10969 276646.080000
   1715   1730     1   0.10969 276646.080000
   1716   1731     1   0.10129 337397.760000
   1733   1758     1   0.10304 312293.760000
   1734   1745     1   0.10910 283424.160000
   1734   1746     1   0.10910 283424.160000
   1735   1747     1   0.10910 283424.160000
   1735   1748     1   0.10910 283424.160000
   1736   1749     1   0.10969 276646.080000
   1736   1750     1   0.10969 276646.080000
   1738   1751     1   0.10969 276646.080000
   1738   1752     1   0.10969 276646.080000
   1740   1753     1   0.10910 283424.160000
   1740   1754     1   0.10910 283424.160000
   1741   1755     1   0.10969 276646.080000
   1741   1756     1   0.10969 276646.080000
   1742   1757     1   0.10129 337397.760000
   1759   1784     1   0.10304 312293.760000
   1760   1771     1   0.10910 283424.160000
   1760   1772     1   0.10910 283424.160000
   1761   1773     1   0.10910 283424.160000
   1761   1774     1   0.10910 283424.160000
   1762   1775     1   0.10969 276646.080000
   1762   1776     1   0.10969 276646.080000
   1764   1777     1   0.10969 276646.080000
   1764   1778     1   0.10969 276646.080000
   1766   1779     1   0.10910 283424.160000
   1766   1780     1   0.10910 283424.160000
   1767   1781     1   0.10969 276646.080000
   1767   1782     1   0.10969 276646.080000
   1768   1783     1   0.10129 337397.760000
   1785   1810     1   0.10304 312293.760000
   1786   1797     1   0.10910 283424.160000
   1786   1798     1   0.10910 283424.160000
   1787   1799     1   0.10910 283424.160000
   1787   1800     1   0.10910 283424.160000
   1788   1801     1   0.10969 276646.080000
   1788   1802     1   0.10969 276646.080000
   1790   1803     1   0.10969 276646.080000
   1790   1804     1   0.10969 276646.080000
   1792   1805     1   0.10910 283424.160000
   1792   1806     1   0.10910 283424.160000
   1793   1807     1   0.10969 276646.080000
   1793   1808     1   0.10969 276646.080000
   1794   1809     1   0.10129 337397.760000
   1811   1836     1   0.10304 312293.760000
   1812   1823     1   0.10910 283424.160000
   1812   1824     1   0.10910 283424.160000
   1813   1825     1   0.10910 283424.160000
   1813   1826     1   0.10910 283424.160000
   1814   1827     1   0.10969 276646.080000
   1814   1828     1   0.10969 276646.080000
   1816   1829     1   0.10969 276646.080000
   1816   1830     1   0.10969 276646.080000
   1818   1831     1   0.10910 283424.160000
   1818   1832     1   0.10910 283424.160000
   1819   1833     1   0.10969 276646.080000
   1819   1834     1   0.10969 276646.080000
   1820   1835     1   0.10129 337397.760000
   1837   1862     1   0.10304 312293.760000
   1838   1849     1   0.10910 283424.160000
   1838   1850     1   0.10910 283424.160000
   1839   1851     1   0.10910 283424.160000
   1839   1852     1   0.10910 283424.160000
   1840   1853     1   0.10969 276646.080000
   1840   1854     1   0.10969 276646.080000
   1842   1855     1   0.10969 276646.080000
   1842   1856     1   0.10969 276646.080000
   1844   1857     1   0.10910 283424.160000
   1844   1858     1   0.10910 283424.160000
   1845   1859     1   0.10969 276646.080000
   1845   1860     1   0.10969 276646.080000
   1846   1861     1   0.10129 337397.760000
   1863   1888     1   0.10304 312293.760000
   1864   1875     1   0.10910 283424.160000
   1864   1876     1   0.10910 283424.160000
   1865   1877     1   0.10910 283424.160000
   1865   1878     1   0.10910 283424.160000
   1866   1879     1   0.10969 276646.080000
   1866   1880     1   0.10969 276646.080000
   1868   1881     1   0.10969 276646.080000
   1868   1882     1   0.10969 276646.080000
   1870   1883     1   0.10910 283424.160000
   1870   1884     1   0.10910 283424.160000
   1871   1885     1   0.10969 276646.080000
   1871   1886     1   0.10969 276646.080000
   1872   1887     1   0.10129 337397.760000
   1889   1914     1   0.10304 312293.760000
   1890   1901     1   0.10910 283424.160000
   1890   1902     1   0.10910 283424.160000
   1891   1903     1   0.10910 283424.160000
   1891   1904     1   0.10910 283424.160000
   1892   1905     1   0.10969 276646.080000
   1892   1906     1   0.10969 276646.080000
   1894   1907     1   0.10969 276646.080000
   1894   1908     1   0.10969 276646.080000
   1896   1909     1   0.10910 283424.160000
   1896   1910     1   0.10910 283424.160000
   1897   1911     1   0.10969 276646.080000
   1897   1912     1   0.10969 276646.080000
   1898   1913     1   0.10129 337397.760000
   1915   1940     1   0.10304 312293.760000
   1916   1927     1   0.10910 283424.160000
   1916   1928     1   0.10910 283424.160000
   1917   1929     1   0.10910 283424.160000
   1917   1930     1   0.10910 283424.160000
   1918   1931     1   0.10969 276646.080000
   1918   1932     1   0.10969 276646.080000
   1920   1933     1   0.10969 276646.080000
   1920   1934     1   0.10969 276646.080000
   1922   1935     1   0.10910 283424.160000
   1922   1936     1   0.10910 283424.160000
   1923   1937     1   0.10969 276646.080000
   1923   1938     1   0.10969 276646.080000
   1924   1939     1   0.10129 337397.760000
   1941   1966     1   0.10304 312293.760000
   1942   1953     1   0.10910 283424.160000
   1942   1954     1   0.10910 283424.160000
   1943   1955     1   0.10910 283424.160000
   1943   1956     1   0.10910 283424.160000
   1944   1957     1   0.10969 276646.080000
   1944   1958     1   0.10969 276646.080000
   1946   1959     1   0.10969 276646.080000
   1946   1960     1   0.10969 276646.080000
   1948   1961     1   0.10910 283424.160000
   1948   1962     1   0.10910 283424.160000
   1949   1963     1   0.10969 276646.080000
   1949   1964     1   0.10969 276646.080000
   1950   1965     1   0.10129 337397.760000
   1967   1992     1   0.10304 312293.760000
   1968   1979     1   0.10910 283424.160000
   1968   1980     1   0.10910 283424.160000
   1969   1981     1   0.10910 283424.160000
   1969   1982     1   0.10910 283424.160000
   1970   1983     1   0.10969 276646.080000
   1970   1984     1   0.10969 276646.080000
   1972   1985     1   0.10969 276646.080000
   1972   1986     1   0.10969 276646.080000
   1974   1987     1   0.10910 283424.160000
   1974   1988     1   0.10910 283424.160000
   1975   1989     1   0.10969 276646.080000
   1975   1990     1   0.10969 276646.080000
   1976   1991     1   0.10129 337397.760000
   1993   2018     1   0.10304 312293.760000
   1994   2005     1   0.10910 283424.160000
   1994   2006     1   0.10910 283424.160000
   1995   2007     1   0.10910 283424.160000
   1995   2008     1   0.10910 283424.160000
   1996   2009     1   0.10969 276646.080000
   1996   2010     1   0.10969 276646.080000
   1998   2011     1   0.10969 276646.080000
   1998   2012     1   0.10969 276646.080000
   2000   2013     1   0.10910 283424.160000
   2000   2014     1   0.10910 283424.160000
   2001   2015     1   0.10969 276646.080000
   2001   2016     1   0.10969 276646.080000
   2002   2017     1   0.10129 337397.760000
   2019   2044     1   0.10304 312293.760000
   2020   2031     1   0.10910 283424.160000
   2020   2032     1   0.10910 283424.160000
   2021   2033     1   0.10910 283424.160000
   2021   2034     1   0.10910 283424.160000
   2022   2035     1   0.10969 276646.080000
   2022   2036     1   0.10969 276646.080000
   2024   2037     1   0.10969 276646.080000
   2024   2038     1   0.10969 276646.080000
   2026   2039     1   0.10910 283424.160000
   2026   2040     1   0.10910 283424.160000
   2027   2041     1   0.10969 276646.080000
   2027   2042     1   0.10969 276646.080000
   2028   2043     1   0.10129 337397.760000
   2045   2070     1   0.10304 312293.760000
   2046   2057     1   0.10910 283424.160000
   2046   2058     1   0.10910 283424.160000
   2047   2059     1   0.10910 283424.160000
   2047   2060     1   0.10910 283424.160000
   2048   2061     1   0.10969 276646.080000
   2048   2062     1   0.10969 276646.080000
   2050   2063     1   0.10969 276646.080000
   2050   2064     1   0.10969 276646.080000
   2052   2065     1   0.10910 283424.160000
   2052   2066     1   0.10910 283424.160000
   2053   2067     1   0.10969 276646.080000
   2053   2068     1   0.10969 276646.080000
   2054   2069     1   0.10129 337397.760000
   2071   2096     1   0.10304 312293.760000
   2072   2083     1   0.10910 283424.160000
   2072   2084     1   0.10910 283424.160000
   2073   2085     1   0.10910 283424.160000
   2073   2086     1   0.10910 283424.160000
   2074   2087     1   0.10969 276646.080000
   2074   2088     1   0.10969 276646.080000
   2076   2089     1   0.10969 276646.080000
   2076   2090     1   0.10969 276646.080000
   2078   2091     1   0.10910 283424.160000
   2078   2092     1   0.10910 283424.160000
   2079   2093     1   0.10969 276646.080000
   2079   2094     1   0.10969 276646.080000
   2080   2095     1   0.10129 337397.760000
   2097   2122     1   0.10304 312293.760000
   2098   2109     1   0.10910 283424.160000
   2098   2110     1   0.10910 283424.160000
   2099   2111     1   0.10910 283424.160000
   2099   2112     1   0.10910 283424.160000
   2100   2113     1   0.10969 276646.080000
   2100   2114     1   0.10969 276646.080000
   2102   2115     1   0.10969 276646.080000
   2102   2116     1   0.10969 276646.080000
   2104   2117     1   0.10910 283424.160000
   2104   2118     1   0.10910 283424.160000
   2105   2119     1   0.10969 276646.080000
   2105   2120     1   0.10969 276646.080000
   2106   2121     1   0.10129 337397.760000
   2123   2148     1   0.10304 312293.760000
   2124   2135     1   0.10910 283424.160000
   2124   2136     1   0.10910 283424.160000
   2125   2137     1   0.10910 283424.160000
   2125   2138     1   0.10910 283424.160000
   2126   2139     1   0.10969 276646.080000
   2126   2140     1   0.10969 276646.080000
   2128   2141     1   0.10969 276646.080000
   2128   2142     1   0.10969 276646.080000
   2130   2143     1   0.10910 283424.160000
   2130   2144     1   0.10910 283424.160000
   2131   2145     1   0.10969 276646.080000
   2131   2146     1   0.10969 276646.080000
   2132   2147     1   0.10129 337397.760000
   2149   2174     1   0.10304 312293.760000
   2150   2161     1   0.10910 283424.160000
   2150   2162     1   0.10910 283424.160000
   2151   2163     1   0.10910 283424.160000
   2151   2164     1   0.10910 283424.160000
   2152   2165     1   0.10969 276646.080000
   2152   2166     1   0.10969 276646.080000
   2154   2167     1   0.10969 276646.080000
   2154   2168     1   0.10969 276646.080000
   2156   2169     1   0.10910 283424.160000
   2156   2170     1   0.10910 283424.160000
   2157   2171     1   0.10969 276646.080000
   2157   2172     1   0.10969 276646.080000
   2158   2173     1   0.10129 337397.760000
   2175   2200     1   0.10304 312293.760000
   2176   2187     1   0.10910 283424.160000
   2176   2188     1   0.10910 283424.160000
   2177   2189     1   0.10910 283424.160000
   2177   2190     1   0.10910 283424.160000
   2178   2191     1   0.10969 276646.080000
   2178   2192     1   0.10969 276646.080000
   2180   2193     1   0.10969 276646.080000
   2180   2194     1   0.10969 276646.080000
   2182   2195     1   0.10910 283424.160000
   2182   2196     1   0.10910 283424.160000
   2183   2197     1   0.10969 276646.080000
   2183   2198     1   0.10969 276646.080000
   2184   2199     1   0.10129 337397.760000
   2201   2226     1   0.10304 312293.760000
   2202   2213     1   0.10910 283424.160000
   2202   2214     1   0.10910 283424.160000
   2203   2215     1   0.10910 283424.160000
   2203   2216     1   0.10910 283424.160000
   2204   2217     1   0.10969 276646.080000
   2204   2218     1   0.10969 276646.080000
   2206   2219     1   0.10969 276646.080000
   2206   2220     1   0.10969 276646.080000
   2208   2221     1   0.10910 283424.160000
   2208   2222     1   0.10910 283424.160000
   2209   2223     1   0.10969 276646.080000
   2209   2224     1   0.10969 276646.080000
   2210   2225     1   0.10129 337397.760000
   2227   2252     1   0.10304 312293.760000
   2228   2239     1   0.10910 283424.160000
   2228   2240     1   0.10910 283424.160000
   2229   2241     1   0.10910 283424.160000
   2229   2242     1   0.10910 283424.160000
   2230   2243     1   0.10969 276646.080000
   2230   2244     1   0.10969 276646.080000
   2232   2245     1   0.10969 276646.080000
   2232   2246     1   0.10969 276646.080000
   2234   2247     1   0.10910 283424.160000
   2234   2248     1   0.10910 283424.160000
   2235   2249     1   0.10969 276646.080000
   2235   2250     1   0.10969 276646.080000
   2236   2251     1   0.10129 337397.760000
   2253   2278     1   0.10304 312293.760000
   2254   2265     1   0.10910 283424.160000
   2254   2266     1   0.10910 283424.160000
   2255   2267     1   0.10910 283424.160000
   2255   2268     1   0.10910 283424.160000
   2256   2269     1   0.10969 276646.080000
   2256   2270     1   0.10969 276646.080000
   2258   2271     1   0.10969 276646.080000
   2258   2272     1   0.10969 276646.080000
   2260   2273     1   0.10910 283424.160000
   2260   2274     1   0.10910 283424.160000
   2261   2275     1   0.10969 276646.080000
   2261   2276     1   0.10969 276646.080000
   2262   2277     1   0.10129 337397.760000
   2279   2304     1   0.10304 312293.760000
   2280   2291     1   0.10910 283424.160000
   2280   2292     1   0.10910 283424.160000
   2281   2293     1   0.10910 283424.160000
   2281   2294     1   0.10910 283424.160000
   2282   2295     1   0.10969 276646.080000
   2282   2296     1   0.10969 276646.080000
   2284   2297     1   0.10969 276646.080000
   2284   2298     1   0.10969 276646.080000
   2286   2299     1   0.10910 283424.160000
   2286   2300     1   0.10910 283424.160000
   2287   2301     1   0.10969 276646.080000
   2287   2302     1   0.10969 276646.080000
   2288   2303     1   0.10129 337397.760000
   2305   2330     1   0.10304 312293.760000
   2306   2317     1   0.10910 283424.160000
   2306   2318     1   0.10910 283424.160000
   2307   2319     1   0.10910 283424.160000
   2307   2320     1   0.10910 283424.160000
   2308   2321     1   0.10969 276646.080000
   2308   2322     1   0.10969 276646.080000
   2310   2323     1   0.10969 276646.080000
   2310   2324     1   0.10969 276646.080000
   2312   2325     1   0.10910 283424.160000
   2312   2326     1   0.10910 283424.160000
   2313   2327     1   0.10969 276646.080000
   2313   2328     1   0.10969 276646.080000
   2314   2329     1   0.10129 337397.760000
   2331   2356     1   0.10304 312293.760000
   2332   2343     1   0.10910 283424.160000
   2332   2344     1   0.10910 283424.160000
   2333   2345     1   0.10910 283424.160000
   2333   2346     1   0.10910 283424.160000
   2334   2347     1   0.10969 276646.080000
   2334   2348     1   0.10969 276646.080000
   2336   2349     1   0.10969 276646.080000
   2336   2350     1   0.10969 276646.080000
   2338   2351     1   0.10910 283424.160000
   2338   2352     1   0.10910 283424.160000
   2339   2353     1   0.10969 276646.080000
   2339   2354     1   0.10969 276646.080000
   2340   2355     1   0.10129 337397.760000
   2357   2382     1   0.10304 312293.760000
   2358   2369     1   0.10910 283424.160000
   2358   2370     1   0.10910 283424.160000
   2359   2371     1   0.10910 283424.160000
   2359   2372     1   0.10910 283424.160000
   2360   2373     1   0.10969 276646.080000
   2360   2374     1   0.10969 276646.080000
   2362   2375     1   0.10969 276646.080000
   2362   2376     1   0.10969 276646.080000
   2364   2377     1   0.10910 283424.160000
   2364   2378     1   0.10910 283424.160000
   2365   2379     1   0.10969 276646.080000
   2365   2380     1   0.10969 276646.080000
   2366   2381     1   0.10129 337397.760000
   2383   2408     1   0.10304 312293.760000
   2384   2395     1   0.10910 283424.160000
   2384   2396     1   0.10910 283424.160000
   2385   2397     1   0.10910 283424.160000
   2385   2398     1   0.10910 283424.160000
   2386   2399     1   0.10969 276646.080000
   2386   2400     1   0.10969 276646.080000
   2388   2401     1   0.10969 276646.080000
   2388   2402     1   0.10969 276646.080000
   2390   2403     1   0.10910 283424.160000
   2390   2404     1   0.10910 283424.160000
   2391   2405     1   0.10969 276646.080000
   2391   2406     1   0.10969 276646.080000
   2392   2407     1   0.10129 337397.760000
   2409   2434     1   0.10304 312293.760000
   2410   2421     1   0.10910 283424.160000
   2410   2422     1   0.10910 283424.160000
   2411   2423     1   0.10910 283424.160000
   2411   2424     1   0.10910 283424.160000
   2412   2425     1   0.10969 276646.080000
   2412   2426     1   0.10969 276646.080000
   2414   2427     1   0.10969 276646.080000
   2414   2428     1   0.10969 276646.080000
   2416   2429     1   0.10910 283424.160000
   2416   2430     1   0.10910 283424.160000
   2417   2431     1   0.10969 276646.080000
   2417   2432     1   0.10969 276646.080000
   2418   2433     1   0.10129 337397.760000
   2435   2460     1   0.10304 312293.760000
   2436   2447     1   0.10910 283424.160000
   2436   2448     1   0.10910 283424.160000
   2437   2449     1   0.10910 283424.160000
   2437   2450     1   0.10910 283424.160000
   2438   2451     1   0.10969 276646.080000
   2438   2452     1   0.10969 276646.080000
   2440   2453     1   0.10969 276646.080000
   2440   2454     1   0.10969 276646.080000
   2442   2455     1   0.10910 283424.160000
   2442   2456     1   0.10910 283424.160000
   2443   2457     1   0.10969 276646.080000
   2443   2458     1   0.10969 276646.080000
   2444   2459     1   0.10129 337397.760000
   2461   2486     1   0.10304 312293.760000
   2462   2473     1   0.10910 283424.160000
   2462   2474     1   0.10910 283424.160000
   2463   2475     1   0.10910 283424.160000
   2463   2476     1   0.10910 283424.160000
   2464   2477     1   0.10969 276646.080000
   2464   2478     1   0.10969 276646.080000
   2466   2479     1   0.10969 276646.080000
   2466   2480     1   0.10969 276646.080000
   2468   2481     1   0.10910 283424.160000
   2468   2482     1   0.10910 283424.160000
   2469   2483     1   0.10969 276646.080000
   2469   2484     1   0.10969 276646.080000
   2470   2485     1   0.10129 337397.760000
   2487   2512     1   0.10304 312293.760000
   2488   2499     1   0.10910 283424.160000
   2488   2500     1   0.10910 283424.160000
   2489   2501     1   0.10910 283424.160000
   2489   2502     1   0.10910 283424.160000
   2490   2503     1   0.10969 276646.080000
   2490   2504     1   0.10969 276646.080000
   2492   2505     1   0.10969 276646.080000
   2492   2506     1   0.10969 276646.080000
   2494   2507     1   0.10910 283424.160000
   2494   2508     1   0.10910 283424.160000
   2495   2509     1   0.10969 276646.080000
   2495   2510     1   0.10969 276646.080000
   2496   2511     1   0.10129 337397.760000
   2513   2538     1   0.10304 312293.760000
   2514   2525     1   0.10910 283424.160000
   2514   2526     1   0.10910 283424.160000
   2515   2527     1   0.10910 283424.160000
   2515   2528     1   0.10910 283424.160000
   2516   2529     1   0.10969 276646.080000
   2516   2530     1   0.10969 276646.080000
   2518   2531     1   0.10969 276646.080000
   2518   2532     1   0.10969 276646.080000
   2520   2533     1   0.10910 283424.160000
   2520   2534     1   0.10910 283424.160000
   2521   2535     1   0.10969 276646.080000
   2521   2536     1   0.10969 276646.080000
   2522   2537     1   0.10129 337397.760000
   2539   2564     1   0.10304 312293.760000
   2540   2551     1   0.10910 283424.160000
   2540   2552     1   0.10910 283424.160000
   2541   2553     1   0.10910 283424.160000
   2541   2554     1   0.10910 283424.160000
   2542   2555     1   0.10969 276646.080000
   2542   2556     1   0.10969 276646.080000
   2544   2557     1   0.10969 276646.080000
   2544   2558     1   0.10969 276646.080000
   2546   2559     1   0.10910 283424.160000
   2546   2560     1   0.10910 283424.160000
   2547   2561     1   0.10969 276646.080000
   2547   2562     1   0.10969 276646.080000
   2548   2563     1   0.10129 337397.760000
   2565   2590     1   0.10304 312293.760000
   2566   2577     1   0.10910 283424.160000
   2566   2578     1   0.10910 283424.160000
   2567   2579     1   0.10910 283424.160000
   2567   2580     1   0.10910 283424.160000
   2568   2581     1   0.10969 276646.080000
   2568   2582     1   0.10969 276646.080000
   2570   2583     1   0.10969 276646.080000
   2570   2584     1   0.10969 276646.080000
   2572   2585     1   0.10910 283424.160000
   2572   2586     1   0.10910 283424.160000
   2573   2587     1   0.10969 276646.080000
   2573   2588     1   0.10969 276646.080000
   2574   2589     1   0.10129 337397.760000
   2591   2616     1   0.10304 312293.760000
   2592   2603     1   0.10910 283424.160000
   2592   2604     1   0.10910 283424.160000
   2593   2605     1   0.10910 283424.160000
   2593   2606     1   0.10910 283424.160000
   2594   2607     1   0.10969 276646.080000
   2594   2608     1   0.10969 276646.080000
   2596   2609     1   0.10969 276646.080000
   2596   2610     1   0.10969 276646.080000
   2598   2611     1   0.10910 283424.160000
   2598   2612     1   0.10910 283424.160000
   2599   2613     1   0.10969 276646.080000
   2599   2614     1   0.10969 276646.080000
   2600   2615     1   0.10129 337397.760000
   2617   2642     1   0.10304 312293.760000
   2618   2629     1   0.10910 283424.160000
   2618   2630     1   0.10910 283424.160000
   2619   2631     1   0.10910 283424.160000
   2619   2632     1   0.10910 283424.160000
   2620   2633     1   0.10969 276646.080000
   2620   2634     1   0.10969 276646.080000
   2622   2635     1   0.10969 276646.080000
   2622   2636     1   0.10969 276646.080000
   2624   2637     1   0.10910 283424.160000
   2624   2638     1   0.10910 283424.160000
   2625   2639     1   0.10969 276646.080000
   2625   2640     1   0.10969 276646.080000
   2626   2641     1   0.10129 337397.760000
   2643   2668     1   0.10304 312293.760000
   2644   2655     1   0.10910 283424.160000
   2644   2656     1   0.10910 283424.160000
   2645   2657     1   0.10910 283424.160000
   2645   2658     1   0.10910 283424.160000
   2646   2659     1   0.10969 276646.080000
   2646   2660     1   0.10969 276646.080000
   2648   2661     1   0.10969 276646.080000
   2648   2662     1   0.10969 276646.080000
   2650   2663     1   0.10910 283424.160000
   2650   2664     1   0.10910 283424.160000
   2651   2665     1   0.10969 276646.080000
   2651   2666     1   0.10969 276646.080000
   2652   2667     1   0.10129 337397.760000
   2669   2694     1   0.10304 312293.760000
   2670   2681     1   0.10910 283424.160000
   2670   2682     1   0.10910 283424.160000
   2671   2683     1   0.10910 283424.160000
   2671   2684     1   0.10910 283424.160000
   2672   2685     1   0.10969 276646.080000
   2672   2686     1   0.10969 276646.080000
   2674   2687     1   0.10969 276646.080000
   2674   2688     1   0.10969 276646.080000
   2676   2689     1   0.10910 283424.160000
   2676   2690     1   0.10910 283424.160000
   2677   2691     1   0.10969 276646.080000
   2677   2692     1   0.10969 276646.080000
   2678   2693     1   0.10129 337397.760000
   2695   2720     1   0.10304 312293.760000
   2696   2707     1   0.10910 283424.160000
   2696   2708     1   0.10910 283424.160000
   2697   2709     1   0.10910 283424.160000
   2697   2710     1   0.10910 283424.160000
   2698   2711     1   0.10969 276646.080000
   2698   2712     1   0.10969 276646.080000
   2700   2713     1   0.10969 276646.080000
   2700   2714     1   0.10969 276646.080000
   2702   2715     1   0.10910 283424.160000
   2702   2716     1   0.10910 283424.160000
   2703   2717     1   0.10969 276646.080000
   2703   2718     1   0.10969 276646.080000
   2704   2719     1   0.10129 337397.760000
   2721   2746     1   0.10304 312293.760000
   2722   2733     1   0.10910 283424.160000
   2722   2734     1   0.10910 283424.160000
   2723   2735     1   0.10910 283424.160000
   2723   2736     1   0.10910 283424.160000
   2724   2737     1   0.10969 276646.080000
   2724   2738     1   0.10969 276646.080000
   2726   2739     1   0.10969 276646.080000
   2726   2740     1   0.10969 276646.080000
   2728   2741     1   0.10910 283424.160000
   2728   2742     1   0.10910 283424.160000
   2729   2743     1   0.10969 276646.080000
   2729   2744     1   0.10969 276646.080000
   2730   2745     1   0.10129 337397.760000
   2747   2772     1   0.10304 312293.760000
   2748   2759     1   0.10910 283424.160000
   2748   2760     1   0.10910 283424.160000
   2749   2761     1   0.10910 283424.160000
   2749   2762     1   0.10910 283424.160000
   2750   2763     1   0.10969 276646.080000
   2750   2764     1   0.10969 276646.080000
   2752   2765     1   0.10969 276646.080000
   2752   2766     1   0.10969 276646.080000
   2754   2767     1   0.10910 283424.160000
   2754   2768     1   0.10910 283424.160000
   2755   2769     1   0.10969 276646.080000
   2755   2770     1   0.10969 276646.080000
   2756   2771     1   0.10129 337397.760000
   2773   2798     1   0.10304 312293.760000
   2774   2785     1   0.10910 283424.160000
   2774   2786     1   0.10910 283424.160000
   2775   2787     1   0.10910 283424.160000
   2775   2788     1   0.10910 283424.160000
   2776   2789     1   0.10969 276646.080000
   2776   2790     1   0.10969 276646.080000
   2778   2791     1   0.10969 276646.080000
   2778   2792     1   0.10969 276646.080000
   2780   2793     1   0.10910 283424.160000
   2780   2794     1   0.10910 283424.160000
   2781   2795     1   0.10969 276646.080000
   2781   2796     1   0.10969 276646.080000
   2782   2797     1   0.10129 337397.760000
   2799   2824     1   0.10304 312293.760000
   2800   2811     1   0.10910 283424.160000
   2800   2812     1   0.10910 283424.160000
   2801   2813     1   0.10910 283424.160000
   2801   2814     1   0.10910 283424.160000
   2802   2815     1   0.10969 276646.080000
   2802   2816     1   0.10969 276646.080000
   2804   2817     1   0.10969 276646.080000
   2804   2818     1   0.10969 276646.080000
   2806   2819     1   0.10910 283424.160000
   2806   2820     1   0.10910 283424.160000
   2807   2821     1   0.10969 276646.080000
   2807   2822     1   0.10969 276646.080000
   2808   2823     1   0.10129 337397.760000
   2825   2850     1   0.10304 312293.760000
   2826   2837     1   0.10910 283424.160000
   2826   2838     1   0.10910 283424.160000
   2827   2839     1   0.10910 283424.160000
   2827   2840     1   0.10910 283424.160000
   2828   2841     1   0.10969 276646.080000
   2828   2842     1   0.10969 276646.080000
   2830   2843     1   0.10969 276646.080000
   2830   2844     1   0.10969 276646.080000
   2832   2845     1   0.10910 283424.160000
   2832   2846     1   0.10910 283424.160000
   2833   2847     1   0.10969 276646.080000
   2833   2848     1   0.10969 276646.080000
   2834   2849     1   0.10129 337397.760000
   2851   2876     1   0.10304 312293.760000
   2852   2863     1   0.10910 283424.160000
   2852   2864     1   0.10910 283424.160000
   2853   2865     1   0.10910 283424.160000
   2853   2866     1   0.10910 283424.160000
   2854   2867     1   0.10969 276646.080000
   2854   2868     1   0.10969 276646.080000
   2856   2869     1   0.10969 276646.080000
   2856   2870     1   0.10969 276646.080000
   2858   2871     1   0.10910 283424.160000
   2858   2872     1   0.10910 283424.160000
   2859   2873     1   0.10969 276646.080000
   2859   2874     1   0.10969 276646.080000
   2860   2875     1   0.10129 337397.760000
   2877   2902     1   0.10304 312293.760000
   2878   2889     1   0.10910 283424.160000
   2878   2890     1   0.10910 283424.160000
   2879   2891     1   0.10910 283424.160000
   2879   2892     1   0.10910 283424.160000
   2880   2893     1   0.10969 276646.080000
   2880   2894     1   0.10969 276646.080000
   2882   2895     1   0.10969 276646.080000
   2882   2896     1   0.10969 276646.080000
   2884   2897     1   0.10910 283424.160000
   2884   2898     1   0.10910 283424.160000
   2885   2899     1   0.10969 276646.080000
   2885   2900     1   0.10969 276646.080000
   2886   2901     1   0.10129 337397.760000
   2903   2928     1   0.10304 312293.760000
   2904   2915     1   0.10910 283424.160000
   2904   2916     1   0.10910 283424.160000
   2905   2917     1   0.10910 283424.160000
   2905   2918     1   0.10910 283424.160000
   2906   2919     1   0.10969 276646.080000
   2906   2920     1   0.10969 276646.080000
   2908   2921     1   0.10969 276646.080000
   2908   2922     1   0.10969 276646.080000
   2910   2923     1   0.10910 283424.160000
   2910   2924     1   0.10910 283424.160000
   2911   2925     1   0.10969 276646.080000
   2911   2926     1   0.10969 276646.080000
   2912   2927     1   0.10129 337397.760000
   2929   2954     1   0.10304 312293.760000
   2930   2941     1   0.10910 283424.160000
   2930   2942     1   0.10910 283424.160000
   2931   2943     1   0.10910 283424.160000
   2931   2944     1   0.10910 283424.160000
   2932   2945     1   0.10969 276646.080000
   2932   2946     1   0.10969 276646.080000
   2934   2947     1   0.10969 276646.080000
   2934   2948     1   0.10969 276646.080000
   2936   2949     1   0.10910 283424.160000
   2936   2950     1   0.10910 283424.160000
   2937   2951     1   0.10969 276646.080000
   2937   2952     1   0.10969 276646.080000
   2938   2953     1   0.10129 337397.760000
   2955   2980     1   0.10304 312293.760000
   2956   2967     1   0.10910 283424.160000
   2956   2968     1   0.10910 283424.160000
   2957   2969     1   0.10910 283424.160000
   2957   2970     1   0.10910 283424.160000
   2958   2971     1   0.10969 276646.080000
   2958   2972     1   0.10969 276646.080000
   2960   2973     1   0.10969 276646.080000
   2960   2974     1   0.10969 276646.080000
   2962   2975     1   0.10910 283424.160000
   2962   2976     1   0.10910 283424.160000
   2963   2977     1   0.10969 276646.080000
   2963   2978     1   0.10969 276646.080000
   2964   2979     1   0.10129 337397.760000
   2981   3006     1   0.10304 312293.760000
   2982   2993     1   0.10910 283424.160000
   2982   2994     1   0.10910 283424.160000
   2983   2995     1   0.10910 283424.160000
   2983   2996     1   0.10910 283424.160000
   2984   2997     1   0.10969 276646.080000
   2984   2998     1   0.10969 276646.080000
   2986   2999     1   0.10969 276646.080000
   2986   3000     1   0.10969 276646.080000
   2988   3001     1   0.10910 283424.160000
   2988   3002     1   0.10910 283424.160000
   2989   3003     1   0.10969 276646.080000
   2989   3004     1   0.10969 276646.080000
   2990   3005     1   0.10129 337397.760000
   3007   3032     1   0.10304 312293.760000
   3008   3019     1   0.10910 283424.160000
   3008   3020     1   0.10910 283424.160000
   3009   3021     1   0.10910 283424.160000
   3009   3022     1   0.10910 283424.160000
   3010   3023     1   0.10969 276646.080000
   3010   3024     1   0.10969 276646.080000
   3012   3025     1   0.10969 276646.080000
   3012   3026     1   0.10969 276646.080000
   3014   3027     1   0.10910 283424.160000
   3014   3028     1   0.10910 283424.160000
   3015   3029     1   0.10969 276646.080000
   3015   3030     1   0.10969 276646.080000
   3016   3031     1   0.10129 337397.760000
   3033   3058     1   0.10304 312293.760000
   3034   3045     1   0.10910 283424.160000
   3034   3046     1   0.10910 283424.160000
   3035   3047     1   0.10910 283424.160000
   3035   3048     1   0.10910 283424.160000
   3036   3049     1   0.10969 276646.080000
   3036   3050     1   0.10969 276646.080000
   3038   3051     1   0.10969 276646.080000
   3038   3052     1   0.10969 276646.080000
   3040   3053     1   0.10910 283424.160000
   3040   3054     1   0.10910 283424.160000
   3041   3055     1   0.10969 276646.080000
   3041   3056     1   0.10969 276646.080000
   3042   3057     1   0.10129 337397.760000
   3059   3084     1   0.10304 312293.760000
   3060   3071     1   0.10910 283424.160000
   3060   3072     1   0.10910 283424.160000
   3061   3073     1   0.10910 283424.160000
   3061   3074     1   0.10910 283424.160000
   3062   3075     1   0.10969 276646.080000
   3062   3076     1   0.10969 276646.080000
   3064   3077     1   0.10969 276646.080000
   3064   3078     1   0.10969 276646.080000
   3066   3079     1   0.10910 283424.160000
   3066   3080     1   0.10910 283424.160000
   3067   3081     1   0.10969 276646.080000
   3067   3082     1   0.10969 276646.080000
   3068   3083     1   0.10129 337397.760000
   3085   3110     1   0.10304 312293.760000
   3086   3097     1   0.10910 283424.160000
   3086   3098     1   0.10910 283424.160000
   3087   3099     1   0.10910 283424.160000
   3087   3100     1   0.10910 283424.160000
   3088   3101     1   0.10969 276646.080000
   3088   3102     1   0.10969 276646.080000
   3090   3103     1   0.10969 276646.080000
   3090   3104     1   0.10969 276646.080000
   3092   3105     1   0.10910 283424.160000
   3092   3106     1   0.10910 283424.160000
   3093   3107     1   0.10969 276646.080000
   3093   3108     1   0.10969 276646.080000
   3094   3109     1   0.10129 337397.760000
   3111   3136     1   0.10304 312293.760000
   3112   3123     1   0.10910 283424.160000
   3112   3124     1   0.10910 283424.160000
   3113   3125     1   0.10910 283424.160000
   3113   3126     1   0.10910 283424.160000
   3114   3127     1   0.10969 276646.080000
   3114   3128     1   0.10969 276646.080000
   3116   3129     1   0.10969 276646.080000
   3116   3130     1   0.10969 276646.080000
   3118   3131     1   0.10910 283424.160000
   3118   3132     1   0.10910 283424.160000
   3119   3133     1   0.10969 276646.080000
   3119   3134     1   0.10969 276646.080000
   3120   3135     1   0.10129 337397.760000
   3137   3162     1   0.10304 312293.760000
   3138   3149     1   0.10910 283424.160000
   3138   3150     1   0.10910 283424.160000
   3139   3151     1   0.10910 283424.160000
   3139   3152     1   0.10910 283424.160000
   3140   3153     1   0.10969 276646.080000
   3140   3154     1   0.10969 276646.080000
   3142   3155     1   0.10969 276646.080000
   3142   3156     1   0.10969 276646.080000
   3144   3157     1   0.10910 283424.160000
   3144   3158     1   0.10910 283424.160000
   3145   3159     1   0.10969 276646.080000
   3145   3160     1   0.10969 276646.080000
   3146   3161     1   0.10129 337397.760000
   3163   3188     1   0.10304 312293.760000
   3164   3175     1   0.10910 283424.160000
   3164   3176     1   0.10910 283424.160000
   3165   3177     1   0.10910 283424.160000
   3165   3178     1   0.10910 283424.160000
   3166   3179     1   0.10969 276646.080000
   3166   3180     1   0.10969 276646.080000
   3168   3181     1   0.10969 276646.080000
   3168   3182     1   0.10969 276646.080000
   3170   3183     1   0.10910 283424.160000
   3170   3184     1   0.10910 283424.160000
   3171   3185     1   0.10969 276646.080000
   3171   3186     1   0.10969 276646.080000
   3172   3187     1   0.10129 337397.760000
   3189   3214     1   0.10304 312293.760000
   3190   3201     1   0.10910 283424.160000
   3190   3202     1   0.10910 283424.160000
   3191   3203     1   0.10910 283424.160000
   3191   3204     1   0.10910 283424.160000
   3192   3205     1   0.10969 276646.080000
   3192   3206     1   0.10969 276646.080000
   3194   3207     1   0.10969 276646.080000
   3194   3208     1   0.10969 276646.080000
   3196   3209     1   0.10910 283424.160000
   3196   3210     1   0.10910 283424.160000
   3197   3211     1   0.10969 276646.080000
   3197   3212     1   0.10969 276646.080000
   3198   3213     1   0.10129 337397.760000
   3215   3240     1   0.10304 312293.760000
   3216   3227     1   0.10910 283424.160000
   3216   3228     1   0.10910 283424.160000
   3217   3229     1   0.10910 283424.160000
   3217   3230     1   0.10910 283424.160000
   3218   3231     1   0.10969 276646.080000
   3218   3232     1   0.10969 276646.080000
   3220   3233     1   0.10969 276646.080000
   3220   3234     1   0.10969 276646.080000
   3222   3235     1   0.10910 283424.160000
   3222   3236     1   0.10910 283424.160000
   3223   3237     1   0.10969 276646.080000
   3223   3238     1   0.10969 276646.080000
   3224   3239     1   0.10129 337397.760000
   3241   3266     1   0.10304 312293.760000
   3242   3253     1   0.10910 283424.160000
   3242   3254     1   0.10910 283424.160000
   3243   3255     1   0.10910 283424.160000
   3243   3256     1   0.10910 283424.160000
   3244   3257     1   0.10969 276646.080000
   3244   3258     1   0.10969 276646.080000
   3246   3259     1   0.10969 276646.080000
   3246   3260     1   0.10969 276646.080000
   3248   3261     1   0.10910 283424.160000
   3248   3262     1   0.10910 283424.160000
   3249   3263     1   0.10969 276646.080000
   3249   3264     1   0.10969 276646.080000
   3250   3265     1   0.10129 337397.760000
   3267   3268     1   0.10129 337397.760000
   3269   3270     1   0.10969 276646.080000
   3269   3272     1   0.10969 276646.080000
   3271   3273     1   0.10969 276646.080000
   3271   3274     1   0.10969 276646.080000
   3275   3340     1   0.10304 312293.760000
   3276   3285     1   0.10969 276646.080000
   3276   3286     1   0.10969 276646.080000
   3277   3278     1   0.10969 276646.080000
   3277   3280     1   0.10969 276646.080000
   3279   3281     1   0.10969 276646.080000
   3279   3282     1   0.10969 276646.080000
   3287   3288     1   0.10969 276646.080000
   3287   3289     1   0.10969 276646.080000
   3292   3294     1   0.10969 276646.080000
   3293   3312     1   0.10969 276646.080000
   3295   3299     1   0.10969 276646.080000
   3296   3298     1   0.10969 276646.080000
   3297   3300     1   0.10961 277566.560000
   3301   3311     1   0.09730 310787.520000
   3302   3304     1   0.09730 310787.520000
   3303   3306     1   0.10969 276646.080000
   3303   3307     1   0.10969 276646.080000
   3305   3315     1   0.10190 328360.320000
   3308   3309     1   0.09730 310787.520000
   3313   3314     1   0.09730 310787.520000
   3316   3318     1   0.10969 276646.080000
   3317   3336     1   0.10969 276646.080000
   3319   3323     1   0.10969 276646.080000
   3320   3322     1   0.10969 276646.080000
   3321   3324     1   0.10961 277566.560000
   3325   3335     1   0.09730 310787.520000
   3326   3328     1   0.09730 310787.520000
   3327   3330     1   0.10969 276646.080000
   3327   3331     1   0.10969 276646.080000
   3329   3339     1   0.10190 328360.320000
   3332   3333     1   0.09730 310787.520000
   3337   3338     1   0.09730 310787.520000
   3341   3342     1   0.10129 337397.760000
   3343   3344     1   0.10969 276646.080000
   3343   3346     1   0.10969 276646.080000
   3345   3347     1   0.10969 276646.080000
   3345   3348     1   0.10969 276646.080000
   3349   3414     1   0.10304 312293.760000
   3350   3359     1   0.10969 276646.080000
   3350   3360     1   0.10969 276646.080000
   3351   3352     1   0.10969 276646.080000
   3351   3354     1   0.10969 276646.080000
   3353   3355     1   0.10969 276646.080000
   3353   3356     1   0.10969 276646.080000
   3361   3362     1   0.10969 276646.080000
   3361   3363     1   0.10969 276646.080000
   3366   3368     1   0.10969 276646.080000
   3367   3386     1   0.10969 276646.080000
   3369   3373     1   0.10969 276646.080000
   3370   3372     1   0.10969 276646.080000
   3371   3374     1   0.10961 277566.560000
   3375   3385     1   0.09730 310787.520000
   3376   3378     1   0.09730 310787.520000
   3377   3380     1   0.10969 276646.080000
   3377   3381     1   0.10969 276646.080000
   3379   3389     1   0.10190 328360.320000
   3382   3383     1   0.09730 310787.520000
   3387   3388     1   0.09730 310787.520000
   3390   3392     1   0.10969 276646.080000
   3391   3410     1   0.10969 276646.080000
   3393   3397     1   0.10969 276646.080000
   3394   3396     1   0.10969 276646.080000
   3395   3398     1   0.10961 277566.560000
   3399   3409     1   0.09730 310787.520000
   3400   3402     1   0.09730 310787.520000
   3401   3404     1   0.10969 276646.080000
   3401   3405     1   0.10969 276646.080000
   3403   3413     1   0.10190 328360.320000
   3406   3407     1   0.09730 310787.520000
   3411   3412     1   0.09730 310787.520000
   3415   3416     1   0.10129 337397.760000
   3417   3418     1   0.10969 276646.080000
   3417   3420     1   0.10969 276646.080000
   3419   3421     1   0.10969 276646.080000
   3419   3422     1   0.10969 276646.080000
   3423   3488     1   0.10304 312293.760000
   3424   3433     1   0.10969 276646.080000
   3424   3434     1   0.10969 276646.080000
   3425   3426     1   0.10969 276646.080000
   3425   3428     1   0.10969 276646.080000
   3427   3429     1   0.10969 276646.080000
   3427   3430     1   0.10969 276646.080000
   3435   3436     1   0.10969 276646.080000
   3435   3437     1   0.10969 276646.080000
   3440   3442     1   0.10969 276646.080000
   3441   3460     1   0.10969 276646.080000
   3443   3447     1   0.10969 276646.080000
   3444   3446     1   0.10969 276646.080000
   3445   3448     1   0.10961 277566.560000
   3449   3459     1   0.09730 310787.520000
   3450   3452     1   0.09730 310787.520000
   3451   3454     1   0.10969 276646.080000
   3451   3455     1   0.10969 276646.080000
   3453   3463     1   0.10190 328360.320000
   3456   3457     1   0.09730 310787.520000
   3461   3462     1   0.09730 310787.520000
   3464   3466     1   0.10969 276646.080000
   3465   3484     1   0.10969 276646.080000
   3467   3471     1   0.10969 276646.080000
   3468   3470     1   0.10969 276646.080000
   3469   3472     1   0.10961 277566.560000
   3473   3483     1   0.09730 310787.520000
   3474   3476     1   0.09730 310787.520000
   3475   3478     1   0.10969 276646.080000
   3475   3479     1   0.10969 276646.080000
   3477   3487     1   0.10190 328360.320000
   3480   3481     1   0.09730 310787.520000
   3485   3486     1   0.09730 310787.520000
   3489   3490     1   0.10129 337397.760000
   3491   3492     1   0.10969 276646.080000
   3491   3494     1   0.10969 276646.080000
   3493   3495     1   0.10969 276646.080000
   3493   3496     1   0.10969 276646.080000
   3497   3562     1   0.10304 312293.760000
   3498   3507     1   0.10969 276646.080000
   3498   3508     1   0.10969 276646.080000
   3499   3500     1   0.10969 276646.080000
   3499   3502     1   0.10969 276646.080000
   3501   3503     1   0.10969 276646.080000
   3501   3504     1   0.10969 276646.080000
   3509   3510     1   0.10969 276646.080000
   3509   3511     1   0.10969 276646.080000
   3514   3516     1   0.10969 276646.080000
   3515   3534     1   0.10969 276646.080000
   3517   3521     1   0.10969 276646.080000
   3518   3520     1   0.10969 276646.080000
   3519   3522     1   0.10961 277566.560000
   3523   3533     1   0.09730 310787.520000
   3524   3526     1   0.09730 310787.520000
   3525   3528     1   0.10969 276646.080000
   3525   3529     1   0.10969 276646.080000
   3527   3537     1   0.10190 328360.320000
   3530   3531     1   0.09730 310787.520000
   3535   3536     1   0.09730 310787.520000
   3538   3540     1   0.10969 276646.080000
   3539   3558     1   0.10969 276646.080000
   3541   3545     1   0.10969 276646.080000
   3542   3544     1   0.10969 276646.080000
   3543   3546     1   0.10961 277566.560000
   3547   3557     1   0.09730 310787.520000
   3548   3550     1   0.09730 310787.520000
   3549   3552     1   0.10969 276646.080000
   3549   3553     1   0.10969 276646.080000
   3551   3561     1   0.10190 328360.320000
   3554   3555     1   0.09730 310787.520000
   3559   3560     1   0.09730 310787.520000
   3563   3564     1   0.10129 337397.760000
   3565   3566     1   0.10969 276646.080000
   3565   3568     1   0.10969 276646.080000
   3567   3569     1   0.10969 276646.080000
   3567   3570     1   0.10969 276646.080000
   3571   3636     1   0.10304 312293.760000
   3572   3581     1   0.10969 276646.080000
   3572   3582     1   0.10969 276646.080000
   3573   3574     1   0.10969 276646.080000
   3573   3576     1   0.10969 276646.080000
   3575   3577     1   0.10969 276646.080000
   3575   3578     1   0.10969 276646.080000
   3583   3584     1   0.10969 276646.080000
   3583   3585     1   0.10969 276646.080000
   3588   3590     1   0.10969 276646.080000
   3589   3608     1   0.10969 276646.080000
   3591   3595     1   0.10969 276646.080000
   3592   3594     1   0.10969 276646.080000
   3593   3596     1   0.10961 277566.560000
   3597   3607     1   0.09730 310787.520000
   3598   3600     1   0.09730 310787.520000
   3599   3602     1   0.10969 276646.080000
   3599   3603     1   0.10969 276646.080000
   3601   3611     1   0.10190 328360.320000
   3604   3605     1   0.09730 310787.520000
   3609   3610     1   0.09730 310787.520000
   3612   3614     1   0.10969 276646.080000
   3613   3632     1   0.10969 276646.080000
   3615   3619     1   0.10969 276646.080000
   3616   3618     1   0.10969 276646.080000
   3617   3620     1   0.10961 277566.560000
   3621   3631     1   0.09730 310787.520000
   3622   3624     1   0.09730 310787.520000
   3623   3626     1   0.10969 276646.080000
   3623   3627     1   0.10969 276646.080000
   3625   3635     1   0.10190 328360.320000
   3628   3629     1   0.09730 310787.520000
   3633   3634     1   0.09730 310787.520000
   3637   3638     1   0.10129 337397.760000
   3639   3640     1   0.10969 276646.080000
   3639   3642     1   0.10969 276646.080000
   3641   3643     1   0.10969 276646.080000
   3641   3644     1   0.10969 276646.080000
   3645   3710     1   0.10304 312293.760000
   3646   3655     1   0.10969 276646.080000
   3646   3656     1   0.10969 276646.080000
   3647   3648     1   0.10969 276646.080000
   3647   3650     1   0.10969 276646.080000
   3649   3651     1   0.10969 276646.080000
   3649   3652     1   0.10969 276646.080000
   3657   3658     1   0.10969 276646.080000
   3657   3659     1   0.10969 276646.080000
   3662   3664     1   0.10969 276646.080000
   3663   3682     1   0.10969 276646.080000
   3665   3669     1   0.10969 276646.080000
   3666   3668     1   0.10969 276646.080000
   3667   3670     1   0.10961 277566.560000
   3671   3681     1   0.09730 310787.520000
   3672   3674     1   0.09730 310787.520000
   3673   3676     1   0.10969 276646.080000
   3673   3677     1   0.10969 276646.080000
   3675   3685     1   0.10190 328360.320000
   3678   3679     1   0.09730 310787.520000
   3683   3684     1   0.09730 310787.520000
   3686   3688     1   0.10969 276646.080000
   3687   3706     1   0.10969 276646.080000
   3689   3693     1   0.10969 276646.080000
   3690   3692     1   0.10969 276646.080000
   3691   3694     1   0.10961 277566.560000
   3695   3705     1   0.09730 310787.520000
   3696   3698     1   0.09730 310787.520000
   3697   3700     1   0.10969 276646.080000
   3697   3701     1   0.10969 276646.080000
   3699   3709     1   0.10190 328360.320000
   3702   3703     1   0.09730 310787.520000
   3707   3708     1   0.09730 310787.520000
   3711   3712     1   0.10129 337397.760000
   3713   3714     1   0.10969 276646.080000
   3713   3716     1   0.10969 276646.080000
   3715   3717     1   0.10969 276646.080000
   3715   3718     1   0.10969 276646.080000
   3719   3784     1   0.10304 312293.760000
   3720   3729     1   0.10969 276646.080000
   3720   3730     1   0.10969 276646.080000
   3721   3722     1   0.10969 276646.080000
   3721   3724     1   0.10969 276646.080000
   3723   3725     1   0.10969 276646.080000
   3723   3726     1   0.10969 276646.080000
   3731   3732     1   0.10969 276646.080000
   3731   3733     1   0.10969 276646.080000
   3736   3738     1   0.10969 276646.080000
   3737   3756     1   0.10969 276646.080000
   3739   3743     1   0.10969 276646.080000
   3740   3742     1   0.10969 276646.080000
   3741   3744     1   0.10961 277566.560000
   3745   3755     1   0.09730 310787.520000
   3746   3748     1   0.09730 310787.520000
   3747   3750     1   0.10969 276646.080000
   3747   3751     1   0.10969 276646.080000
   3749   3759     1   0.10190 328360.320000
   3752   3753     1   0.09730 310787.520000
   3757   3758     1   0.09730 310787.520000
   3760   3762     1   0.10969 276646.080000
   3761   3780     1   0.10969 276646.080000
   3763   3767     1   0.10969 276646.080000
   3764   3766     1   0.10969 276646.080000
   3765   3768     1   0.10961 277566.560000
   3769   3779     1   0.09730 310787.520000
   3770   3772     1   0.09730 310787.520000
   3771   3774     1   0.10969 276646.080000
   3771   3775     1   0.10969 276646.080000
   3773   3783     1   0.10190 328360.320000
   3776   3777     1   0.09730 310787.520000
   3781   3782     1   0.09730 310787.520000
   3785   3786     1   0.10129 337397.760000
   3787   3788     1   0.10969 276646.080000
   3787   3790     1   0.10969 276646.080000
   3789   3791     1   0.10969 276646.080000
   3789   3792     1   0.10969 276646.080000
   3793   3858     1   0.10304 312293.760000
   3794   3803     1   0.10969 276646.080000
   3794   3804     1   0.10969 276646.080000
   3795   3796     1   0.10969 276646.080000
   3795   3798     1   0.10969 276646.080000
   3797   3799     1   0.10969 276646.080000
   3797   3800     1   0.10969 276646.080000
   3805   3806     1   0.10969 276646.080000
   3805   3807     1   0.10969 276646.080000
   3810   3812     1   0.10969 276646.080000
   3811   3830     1   0.10969 276646.080000
   3813   3817     1   0.10969 276646.080000
   3814   3816     1   0.10969 276646.080000
   3815   3818     1   0.10961 277566.560000
   3819   3829     1   0.09730 310787.520000
   3820   3822     1   0.09730 310787.520000
   3821   3824     1   0.10969 276646.080000
   3821   3825     1   0.10969 276646.080000
   3823   3833     1   0.10190 328360.320000
   3826   3827     1   0.09730 310787.520000
   3831   3832     1   0.09730 310787.520000
   3834   3836     1   0.10969 276646.080000
   3835   3854     1   0.10969 276646.080000
   3837   3841     1   0.10969 276646.080000
   3838   3840     1   0.10969 276646.080000
   3839   3842     1   0.10961 277566.560000
   3843   3853     1   0.09730 310787.520000
   3844   3846     1   0.09730 310787.520000
   3845   3848     1   0.10969 276646.080000
   3845   3849     1   0.10969 276646.080000
   3847   3857     1   0.10190 328360.320000
   3850   3851     1   0.09730 310787.520000
   3855   3856     1   0.09730 310787.520000
   3859   3860     1   0.10129 337397.760000
   3861   3862     1   0.10969 276646.080000
   3861   3864     1   0.10969 276646.080000
   3863   3865     1   0.10969 276646.080000
   3863   3866     1   0.10969 276646.080000
   3867   3932     1   0.10304 312293.760000
   3868   3877     1   0.10969 276646.080000
   3868   3878     1   0.10969 276646.080000
   3869   3870     1   0.10969 276646.080000
   3869   3872     1   0.10969 276646.080000
   3871   3873     1   0.10969 276646.080000
   3871   3874     1   0.10969 276646.080000
   3879   3880     1   0.10969 276646.080000
   3879   3881     1   0.10969 276646.080000
   3884   3886     1   0.10969 276646.080000
   3885   3904     1   0.10969 276646.080000
   3887   3891     1   0.10969 276646.080000
   3888   3890     1   0.10969 276646.080000
   3889   3892     1   0.10961 277566.560000
   3893   3903     1   0.09730 310787.520000
   3894   3896     1   0.09730 310787.520000
   3895   3898     1   0.10969 276646.080000
   3895   3899     1   0.10969 276646.080000
   3897   3907     1   0.10190 328360.320000
   3900   3901     1   0.09730 310787.520000
   3905   3906     1   0.09730 310787.520000
   3908   3910     1   0.10969 276646.080000
   3909   3928     1   0.10969 276646.080000
   3911   3915     1   0.10969 276646.080000
   3912   3914     1   0.10969 276646.080000
   3913   3916     1   0.10961 277566.560000
   3917   3927     1   0.09730 310787.520000
   3918   3920     1   0.09730 310787.520000
   3919   3922     1   0.10969 276646.080000
   3919   3923     1   0.10969 276646.080000
   3921   3931     1   0.10190 328360.320000
   3924   3925     1   0.09730 310787.520000
   3929   3930     1   0.09730 310787.520000
   3933   3934     1   0.10129 337397.760000
   3935   3936     1   0.10969 276646.080000
   3935   3938     1   0.10969 276646.080000
   3937   3939     1   0.10969 276646.080000
   3937   3940     1   0.10969 276646.080000
   3941   4006     1   0.10304 312293.760000
   3942   3951     1   0.10969 276646.080000
   3942   3952     1   0.10969 276646.080000
   3943   3944     1   0.10969 276646.080000
   3943   3946     1   0.10969 276646.080000
   3945   3947     1   0.10969 276646.080000
   3945   3948     1   0.10969 276646.080000
   3953   3954     1   0.10969 276646.080000
   3953   3955     1   0.10969 276646.080000
   3958   3960     1   0.10969 276646.080000
   3959   3978     1   0.10969 276646.080000
   3961   3965     1   0.10969 276646.080000
   3962   3964     1   0.10969 276646.080000
   3963   3966     1   0.10961 277566.560000
   3967   3977     1   0.09730 310787.520000
   3968   3970     1   0.09730 310787.520000
   3969   3972     1   0.10969 276646.080000
   3969   3973     1   0.10969 276646.080000
   3971   3981     1   0.10190 328360.320000
   3974   3975     1   0.09730 310787.520000
   3979   3980     1   0.09730 310787.520000
   3982   3984     1   0.10969 276646.080000
   3983   4002     1   0.10969 276646.080000
   3985   3989     1   0.10969 276646.080000
   3986   3988     1   0.10969 276646.080000
   3987   3990     1   0.10961 277566.560000
   3991   4001     1   0.09730 310787.520000
   3992   3994     1   0.09730 310787.520000
   3993   3996     1   0.10969 276646.080000
   3993   3997     1   0.10969 276646.080000
   3995   4005     1   0.10190 328360.320000
   3998   3999     1   0.09730 310787.520000
   4003   4004     1   0.09730 310787.520000
   4007   4008     1   0.10129 337397.760000
   4009   4010     1   0.10969 276646.080000
   4009   4012     1   0.10969 276646.080000
   4011   4013     1   0.10969 276646.080000
   4011   4014     1   0.10969 276646.080000
   4015   4080     1   0.10304 312293.760000
   4016   4025     1   0.10969 276646.080000
   4016   4026     1   0.10969 276646.080000
   4017   4018     1   0.10969 276646.080000
   4017   4020     1   0.10969 276646.080000
   4019   4021     1   0.10969 276646.080000
   4019   4022     1   0.10969 276646.080000
   4027   4028     1   0.10969 276646.080000
   4027   4029     1   0.10969 276646.080000
   4032   4034     1   0.10969 276646.080000
   4033   4052     1   0.10969 276646.080000
   4035   4039     1   0.10969 276646.080000
   4036   4038     1   0.10969 276646.080000
   4037   4040     1   0.10961 277566.560000
   4041   4051     1   0.09730 310787.520000
   4042   4044     1   0.09730 310787.520000
   4043   4046     1   0.10969 276646.080000
   4043   4047     1   0.10969 276646.080000
   4045   4055     1   0.10190 328360.320000
   4048   4049     1   0.09730 310787.520000
   4053   4054     1   0.09730 310787.520000
   4056   4058     1   0.10969 276646.080000
   4057   4076     1   0.10969 276646.080000
   4059   4063     1   0.10969 276646.080000
   4060   4062     1   0.10969 276646.080000
   4061   4064     1   0.10961 277566.560000
   4065   4075     1   0.09730 310787.520000
   4066   4068     1   0.09730 310787.520000
   4067   4070     1   0.10969 276646.080000
   4067   4071     1   0.10969 276646.080000
   4069   4079     1   0.10190 328360.320000
   4072   4073     1   0.09730 310787.520000
   4077   4078     1   0.09730 310787.520000
   4081   4082     1   0.10129 337397.760000
   4083   4084     1   0.10969 276646.080000
   4083   4086     1   0.10969 276646.080000
   4085   4087     1   0.10969 276646.080000
   4085   4088     1   0.10969 276646.080000
   4089   4154     1   0.10304 312293.760000
   4090   4099     1   0.10969 276646.080000
   4090   4100     1   0.10969 276646.080000
   4091   4092     1   0.10969 276646.080000
   4091   4094     1   0.10969 276646.080000
   4093   4095     1   0.10969 276646.080000
   4093   4096     1   0.10969 276646.080000
   4101   4102     1   0.10969 276646.080000
   4101   4103     1   0.10969 276646.080000
   4106   4108     1   0.10969 276646.080000
   4107   4126     1   0.10969 276646.080000
   4109   4113     1   0.10969 276646.080000
   4110   4112     1   0.10969 276646.080000
   4111   4114     1   0.10961 277566.560000
   4115   4125     1   0.09730 310787.520000
   4116   4118     1   0.09730 310787.520000
   4117   4120     1   0.10969 276646.080000
   4117   4121     1   0.10969 276646.080000
   4119   4129     1   0.10190 328360.320000
   4122   4123     1   0.09730 310787.520000
   4127   4128     1   0.09730 310787.520000
   4130   4132     1   0.10969 276646.080000
   4131   4150     1   0.10969 276646.080000
   4133   4137     1   0.10969 276646.080000
   4134   4136     1   0.10969 276646.080000
   4135   4138     1   0.10961 277566.560000
   4139   4149     1   0.09730 310787.520000
   4140   4142     1   0.09730 310787.520000
   4141   4144     1   0.10969 276646.080000
   4141   4145     1   0.10969 276646.080000
   4143   4153     1   0.10190 328360.320000
   4146   4147     1   0.09730 310787.520000
   4151   4152     1   0.09730 310787.520000
   4155   4156     1   0.10129 337397.760000
   4157   4158     1   0.10969 276646.080000
   4157   4160     1   0.10969 276646.080000
   4159   4161     1   0.10969 276646.080000
   4159   4162     1   0.10969 276646.080000
   4163   4228     1   0.10304 312293.760000
   4164   4173     1   0.10969 276646.080000
   4164   4174     1   0.10969 276646.080000
   4165   4166     1   0.10969 276646.080000
   4165   4168     1   0.10969 276646.080000
   4167   4169     1   0.10969 276646.080000
   4167   4170     1   0.10969 276646.080000
   4175   4176     1   0.10969 276646.080000
   4175   4177     1   0.10969 276646.080000
   4180   4182     1   0.10969 276646.080000
   4181   4200     1   0.10969 276646.080000
   4183   4187     1   0.10969 276646.080000
   4184   4186     1   0.10969 276646.080000
   4185   4188     1   0.10961 277566.560000
   4189   4199     1   0.09730 310787.520000
   4190   4192     1   0.09730 310787.520000
   4191   4194     1   0.10969 276646.080000
   4191   4195     1   0.10969 276646.080000
   4193   4203     1   0.10190 328360.320000
   4196   4197     1   0.09730 310787.520000
   4201   4202     1   0.09730 310787.520000
   4204   4206     1   0.10969 276646.080000
   4205   4224     1   0.10969 276646.080000
   4207   4211     1   0.10969 276646.080000
   4208   4210     1   0.10969 276646.080000
   4209   4212     1   0.10961 277566.560000
   4213   4223     1   0.09730 310787.520000
   4214   4216     1   0.09730 310787.520000
   4215   4218     1   0.10969 276646.080000
   4215   4219     1   0.10969 276646.080000
   4217   4227     1   0.10190 328360.320000
   4220   4221     1   0.09730 310787.520000
   4225   4226     1   0.09730 310787.520000
   4229   4230     1   0.10129 337397.760000
   4231   4232     1   0.10969 276646.080000
   4231   4234     1   0.10969 276646.080000
   4233   4235     1   0.10969 276646.080000
   4233   4236     1   0.10969 276646.080000
   4237   4302     1   0.10304 312293.760000
   4238   4247     1   0.10969 276646.080000
   4238   4248     1   0.10969 276646.080000
   4239   4240     1   0.10969 276646.080000
   4239   4242     1   0.10969 276646.080000
   4241   4243     1   0.10969 276646.080000
   4241   4244     1   0.10969 276646.080000
   4249   4250     1   0.10969 276646.080000
   4249   4251     1   0.10969 276646.080000
   4254   4256     1   0.10969 276646.080000
   4255   4274     1   0.10969 276646.080000
   4257   4261     1   0.10969 276646.080000
   4258   4260     1   0.10969 276646.080000
   4259   4262     1   0.10961 277566.560000
   4263   4273     1   0.09730 310787.520000
   4264   4266     1   0.09730 310787.520000
   4265   4268     1   0.10969 276646.080000
   4265   4269     1   0.10969 276646.080000
   4267   4277     1   0.10190 328360.320000
   4270   4271     1   0.09730 310787.520000
   4275   4276     1   0.09730 310787.520000
   4278   4280     1   0.10969 276646.080000
   4279   4298     1   0.10969 276646.080000
   4281   4285     1   0.10969 276646.080000
   4282   4284     1   0.10969 276646.080000
   4283   4286     1   0.10961 277566.560000
   4287   4297     1   0.09730 310787.520000
   4288   4290     1   0.09730 310787.520000
   4289   4292     1   0.10969 276646.080000
   4289   4293     1   0.10969 276646.080000
   4291   4301     1   0.10190 328360.320000
   4294   4295     1   0.09730 310787.520000
   4299   4300     1   0.09730 310787.520000
   4303   4304     1   0.10129 337397.760000
   4305   4306     1   0.10969 276646.080000
   4305   4308     1   0.10969 276646.080000
   4307   4309     1   0.10969 276646.080000
   4307   4310     1   0.10969 276646.080000
   4311   4376     1   0.10304 312293.760000
   4312   4321     1   0.10969 276646.080000
   4312   4322     1   0.10969 276646.080000
   4313   4314     1   0.10969 276646.080000
   4313   4316     1   0.10969 276646.080000
   4315   4317     1   0.10969 276646.080000
   4315   4318     1   0.10969 276646.080000
   4323   4324     1   0.10969 276646.080000
   4323   4325     1   0.10969 276646.080000
   4328   4330     1   0.10969 276646.080000
   4329   4348     1   0.10969 276646.080000
   4331   4335     1   0.10969 276646.080000
   4332   4334     1   0.10969 276646.080000
   4333   4336     1   0.10961 277566.560000
   4337   4347     1   0.09730 310787.520000
   4338   4340     1   0.09730 310787.520000
   4339   4342     1   0.10969 276646.080000
   4339   4343     1   0.10969 276646.080000
   4341   4351     1   0.10190 328360.320000
   4344   4345     1   0.09730 310787.520000
   4349   4350     1   0.09730 310787.520000
   4352   4354     1   0.10969 276646.080000
   4353   4372     1   0.10969 276646.080000
   4355   4359     1   0.10969 276646.080000
   4356   4358     1   0.10969 276646.080000
   4357   4360     1   0.10961 277566.560000
   4361   4371     1   0.09730 310787.520000
   4362   4364     1   0.09730 310787.520000
   4363   4366     1   0.10969 276646.080000
   4363   4367     1   0.10969 276646.080000
   4365   4375     1   0.10190 328360.320000
   4368   4369     1   0.09730 310787.520000
   4373   4374     1   0.09730 310787.520000
   4377   4378     1   0.10129 337397.760000
   4379   4380     1   0.10969 276646.080000
   4379   4382     1   0.10969 276646.080000
   4381   4383     1   0.10969 276646.080000
   4381   4384     1   0.10969 276646.080000
   4385   4450     1   0.10304 312293.760000
   4386   4395     1   0.10969 276646.080000
   4386   4396     1   0.10969 276646.080000
   4387   4388     1   0.10969 276646.080000
   4387   4390     1   0.10969 276646.080000
   4389   4391     1   0.10969 276646.080000
   4389   4392     1   0.10969 276646.080000
   4397   4398     1   0.10969 276646.080000
   4397   4399     1   0.10969 276646.080000
   4402   4404     1   0.10969 276646.080000
   4403   4422     1   0.10969 276646.080000
   4405   4409     1   0.10969 276646.080000
   4406   4408     1   0.10969 276646.080000
   4407   4410     1   0.10961 277566.560000
   4411   4421     1   0.09730 310787.520000
   4412   4414     1   0.09730 310787.520000
   4413   4416     1   0.10969 276646.080000
   4413   4417     1   0.10969 276646.080000
   4415   4425     1   0.10190 328360.320000
   4418   4419     1   0.09730 310787.520000
   4423   4424     1   0.09730 310787.520000
   4426   4428     1   0.10969 276646.080000
   4427   4446     1   0.10969 276646.080000
   4429   4433     1   0.10969 276646.080000
   4430   4432     1   0.10969 276646.080000
   4431   4434     1   0.10961 277566.560000
   4435   4445     1   0.09730 310787.520000
   4436   4438     1   0.09730 310787.520000
   4437   4440     1   0.10969 276646.080000
   4437   4441     1   0.10969 276646.080000
   4439   4449     1   0.10190 328360.320000
   4442   4443     1   0.09730 310787.520000
   4447   4448     1   0.09730 310787.520000
   4451   4452     1   0.10129 337397.760000
   4453   4454     1   0.10969 276646.080000
   4453   4456     1   0.10969 276646.080000
   4455   4457     1   0.10969 276646.080000
   4455   4458     1   0.10969 276646.080000
   4459   4524     1   0.10304 312293.760000
   4460   4469     1   0.10969 276646.080000
   4460   4470     1   0.10969 276646.080000
   4461   4462     1   0.10969 276646.080000
   4461   4464     1   0.10969 276646.080000
   4463   4465     1   0.10969 276646.080000
   4463   4466     1   0.10969 276646.080000
   4471   4472     1   0.10969 276646.080000
   4471   4473     1   0.10969 276646.080000
   4476   4478     1   0.10969 276646.080000
   4477   4496     1   0.10969 276646.080000
   4479   4483     1   0.10969 276646.080000
   4480   4482     1   0.10969 276646.080000
   4481   4484     1   0.10961 277566.560000
   4485   4495     1   0.09730 310787.520000
   4486   4488     1   0.09730 310787.520000
   4487   4490     1   0.10969 276646.080000
   4487   4491     1   0.10969 276646.080000
   4489   4499     1   0.10190 328360.320000
   4492   4493     1   0.09730 310787.520000
   4497   4498     1   0.09730 310787.520000
   4500   4502     1   0.10969 276646.080000
   4501   4520     1   0.10969 276646.080000
   4503   4507     1   0.10969 276646.080000
   4504   4506     1   0.10969 276646.080000
   4505   4508     1   0.10961 277566.560000
   4509   4519     1   0.09730 310787.520000
   4510   4512     1   0.09730 310787.520000
   4511   4514     1   0.10969 276646.080000
   4511   4515     1   0.10969 276646.080000
   4513   4523     1   0.10190 328360.320000
   4516   4517     1   0.09730 310787.520000
   4521   4522     1   0.09730 310787.520000
   4525   4526     1   0.10129 337397.760000
   4527   4528     1   0.10969 276646.080000
   4527   4530     1   0.10969 276646.080000
   4529   4531     1   0.10969 276646.080000
   4529   4532     1   0.10969 276646.080000
   4533   4598     1   0.10304 312293.760000
   4534   4543     1   0.10969 276646.080000
   4534   4544     1   0.10969 276646.080000
   4535   4536     1   0.10969 276646.080000
   4535   4538     1   0.10969 276646.080000
   4537   4539     1   0.10969 276646.080000
   4537   4540     1   0.10969 276646.080000
   4545   4546     1   0.10969 276646.080000
   4545   4547     1   0.10969 276646.080000
   4550   4552     1   0.10969 276646.080000
   4551   4570     1   0.10969 276646.080000
   4553   4557     1   0.10969 276646.080000
   4554   4556     1   0.10969 276646.080000
   4555   4558     1   0.10961 277566.560000
   4559   4569     1   0.09730 310787.520000
   4560   4562     1   0.09730 310787.520000
   4561   4564     1   0.10969 276646.080000
   4561   4565     1   0.10969 276646.080000
   4563   4573     1   0.10190 328360.320000
   4566   4567     1   0.09730 310787.520000
   4571   4572     1   0.09730 310787.520000
   4574   4576     1   0.10969 276646.080000
   4575   4594     1   0.10969 276646.080000
   4577   4581     1   0.10969 276646.080000
   4578   4580     1   0.10969 276646.080000
   4579   4582     1   0.10961 277566.560000
   4583   4593     1   0.09730 310787.520000
   4584   4586     1   0.09730 310787.520000
   4585   4588     1   0.10969 276646.080000
   4585   4589     1   0.10969 276646.080000
   4587   4597     1   0.10190 328360.320000
   4590   4591     1   0.09730 310787.520000
   4595   4596     1   0.09730 310787.520000
   4599   4600     1   0.10129 337397.760000
   4601   4602     1   0.10969 276646.080000
   4601   4604     1   0.10969 276646.080000
   4603   4605     1   0.10969 276646.080000
   4603   4606     1   0.10969 276646.080000
   4607   4672     1   0.10304 312293.760000
   4608   4617     1   0.10969 276646.080000
   4608   4618     1   0.10969 276646.080000
   4609   4610     1   0.10969 276646.080000
   4609   4612     1   0.10969 276646.080000
   4611   4613     1   0.10969 276646.080000
   4611   4614     1   0.10969 276646.080000
   4619   4620     1   0.10969 276646.080000
   4619   4621     1   0.10969 276646.080000
   4624   4626     1   0.10969 276646.080000
   4625   4644     1   0.10969 276646.080000
   4627   4631     1   0.10969 276646.080000
   4628   4630     1   0.10969 276646.080000
   4629   4632     1   0.10961 277566.560000
   4633   4643     1   0.09730 310787.520000
   4634   4636     1   0.09730 310787.520000
   4635   4638     1   0.10969 276646.080000
   4635   4639     1   0.10969 276646.080000
   4637   4647     1   0.10190 328360.320000
   4640   4641     1   0.09730 310787.520000
   4645   4646     1   0.09730 310787.520000
   4648   4650     1   0.10969 276646.080000
   4649   4668     1   0.10969 276646.080000
   4651   4655     1   0.10969 276646.080000
   4652   4654     1   0.10969 276646.080000
   4653   4656     1   0.10961 277566.560000
   4657   4667     1   0.09730 310787.520000
   4658   4660     1   0.09730 310787.520000
   4659   4662     1   0.10969 276646.080000
   4659   4663     1   0.10969 276646.080000
   4661   4671     1   0.10190 328360.320000
   4664   4665     1   0.09730 310787.520000
   4669   4670     1   0.09730 310787.520000
   4673   4674     1   0.10129 337397.760000
   4675   4676     1   0.10969 276646.080000
   4675   4678     1   0.10969 276646.080000
   4677   4679     1   0.10969 276646.080000
   4677   4680     1   0.10969 276646.080000
   4681   4746     1   0.10304 312293.760000
   4682   4691     1   0.10969 276646.080000
   4682   4692     1   0.10969 276646.080000
   4683   4684     1   0.10969 276646.080000
   4683   4686     1   0.10969 276646.080000
   4685   4687     1   0.10969 276646.080000
   4685   4688     1   0.10969 276646.080000
   4693   4694     1   0.10969 276646.080000
   4693   4695     1   0.10969 276646.080000
   4698   4700     1   0.10969 276646.080000
   4699   4718     1   0.10969 276646.080000
   4701   4705     1   0.10969 276646.080000
   4702   4704     1   0.10969 276646.080000
   4703   4706     1   0.10961 277566.560000
   4707   4717     1   0.09730 310787.520000
   4708   4710     1   0.09730 310787.520000
   4709   4712     1   0.10969 276646.080000
   4709   4713     1   0.10969 276646.080000
   4711   4721     1   0.10190 328360.320000
   4714   4715     1   0.09730 310787.520000
   4719   4720     1   0.09730 310787.520000
   4722   4724     1   0.10969 276646.080000
   4723   4742     1   0.10969 276646.080000
   4725   4729     1   0.10969 276646.080000
   4726   4728     1   0.10969 276646.080000
   4727   4730     1   0.10961 277566.560000
   4731   4741     1   0.09730 310787.520000
   4732   4734     1   0.09730 310787.520000
   4733   4736     1   0.10969 276646.080000
   4733   4737     1   0.10969 276646.080000
   4735   4745     1   0.10190 328360.320000
   4738   4739     1   0.09730 310787.520000
   4743   4744     1   0.09730 310787.520000
   4747   4748     1   0.10129 337397.760000
   4749   4750     1   0.10969 276646.080000
   4749   4752     1   0.10969 276646.080000
   4751   4753     1   0.10969 276646.080000
   4751   4754     1   0.10969 276646.080000
   4755   4820     1   0.10304 312293.760000
   4756   4765     1   0.10969 276646.080000
   4756   4766     1   0.10969 276646.080000
   4757   4758     1   0.10969 276646.080000
   4757   4760     1   0.10969 276646.080000
   4759   4761     1   0.10969 276646.080000
   4759   4762     1   0.10969 276646.080000
   4767   4768     1   0.10969 276646.080000
   4767   4769     1   0.10969 276646.080000
   4772   4774     1   0.10969 276646.080000
   4773   4792     1   0.10969 276646.080000
   4775   4779     1   0.10969 276646.080000
   4776   4778     1   0.10969 276646.080000
   4777   4780     1   0.10961 277566.560000
   4781   4791     1   0.09730 310787.520000
   4782   4784     1   0.09730 310787.520000
   4783   4786     1   0.10969 276646.080000
   4783   4787     1   0.10969 276646.080000
   4785   4795     1   0.10190 328360.320000
   4788   4789     1   0.09730 310787.520000
   4793   4794     1   0.09730 310787.520000
   4796   4798     1   0.10969 276646.080000
   4797   4816     1   0.10969 276646.080000
   4799   4803     1   0.10969 276646.080000
   4800   4802     1   0.10969 276646.080000
   4801   4804     1   0.10961 277566.560000
   4805   4815     1   0.09730 310787.520000
   4806   4808     1   0.09730 310787.520000
   4807   4810     1   0.10969 276646.080000
   4807   4811     1   0.10969 276646.080000
   4809   4819     1   0.10190 328360.320000
   4812   4813     1   0.09730 310787.520000
   4817   4818     1   0.09730 310787.520000
   4821   4822     1   0.10129 337397.760000
   4823   4824     1   0.10969 276646.080000
   4823   4826     1   0.10969 276646.080000
   4825   4827     1   0.10969 276646.080000
   4825   4828     1   0.10969 276646.080000
   4829   4894     1   0.10304 312293.760000
   4830   4839     1   0.10969 276646.080000
   4830   4840     1   0.10969 276646.080000
   4831   4832     1   0.10969 276646.080000
   4831   4834     1   0.10969 276646.080000
   4833   4835     1   0.10969 276646.080000
   4833   4836     1   0.10969 276646.080000
   4841   4842     1   0.10969 276646.080000
   4841   4843     1   0.10969 276646.080000
   4846   4848     1   0.10969 276646.080000
   4847   4866     1   0.10969 276646.080000
   4849   4853     1   0.10969 276646.080000
   4850   4852     1   0.10969 276646.080000
   4851   4854     1   0.10961 277566.560000
   4855   4865     1   0.09730 310787.520000
   4856   4858     1   0.09730 310787.520000
   4857   4860     1   0.10969 276646.080000
   4857   4861     1   0.10969 276646.080000
   4859   4869     1   0.10190 328360.320000
   4862   4863     1   0.09730 310787.520000
   4867   4868     1   0.09730 310787.520000
   4870   4872     1   0.10969 276646.080000
   4871   4890     1   0.10969 276646.080000
   4873   4877     1   0.10969 276646.080000
   4874   4876     1   0.10969 276646.080000
   4875   4878     1   0.10961 277566.560000
   4879   4889     1   0.09730 310787.520000
   4880   4882     1   0.09730 310787.520000
   4881   4884     1   0.10969 276646.080000
   4881   4885     1   0.10969 276646.080000
   4883   4893     1   0.10190 328360.320000
   4886   4887     1   0.09730 310787.520000
   4891   4892     1   0.09730 310787.520000
   4895   4896     1   0.10129 337397.760000
   4897   4898     1   0.10969 276646.080000
   4897   4900     1   0.10969 276646.080000
   4899   4901     1   0.10969 276646.080000
   4899   4902     1   0.10969 276646.080000
   4903   4968     1   0.10304 312293.760000
   4904   4913     1   0.10969 276646.080000
   4904   4914     1   0.10969 276646.080000
   4905   4906     1   0.10969 276646.080000
   4905   4908     1   0.10969 276646.080000
   4907   4909     1   0.10969 276646.080000
   4907   4910     1   0.10969 276646.080000
   4915   4916     1   0.10969 276646.080000
   4915   4917     1   0.10969 276646.080000
   4920   4922     1   0.10969 276646.080000
   4921   4940     1   0.10969 276646.080000
   4923   4927     1   0.10969 276646.080000
   4924   4926     1   0.10969 276646.080000
   4925   4928     1   0.10961 277566.560000
   4929   4939     1   0.09730 310787.520000
   4930   4932     1   0.09730 310787.520000
   4931   4934     1   0.10969 276646.080000
   4931   4935     1   0.10969 276646.080000
   4933   4943     1   0.10190 328360.320000
   4936   4937     1   0.09730 310787.520000
   4941   4942     1   0.09730 310787.520000
   4944   4946     1   0.10969 276646.080000
   4945   4964     1   0.10969 276646.080000
   4947   4951     1   0.10969 276646.080000
   4948   4950     1   0.10969 276646.080000
   4949   4952     1   0.10961 277566.560000
   4953   4963     1   0.09730 310787.520000
   4954   4956     1   0.09730 310787.520000
   4955   4958     1   0.10969 276646.080000
   4955   4959     1   0.10969 276646.080000
   4957   4967     1   0.10190 328360.320000
   4960   4961     1   0.09730 310787.520000
   4965   4966     1   0.09730 310787.520000
   4969   4970     1   0.10129 337397.760000
   4971   4972     1   0.10969 276646.080000
   4971   4974     1   0.10969 276646.080000
   4973   4975     1   0.10969 276646.080000
   4973   4976     1   0.10969 276646.080000
   4977   5042     1   0.10304 312293.760000
   4978   4987     1   0.10969 276646.080000
   4978   4988     1   0.10969 276646.080000
   4979   4980     1   0.10969 276646.080000
   4979   4982     1   0.10969 276646.080000
   4981   4983     1   0.10969 276646.080000
   4981   4984     1   0.10969 276646.080000
   4989   4990     1   0.10969 276646.080000
   4989   4991     1   0.10969 276646.080000
   4994   4996     1   0.10969 276646.080000
   4995   5014     1   0.10969 276646.080000
   4997   5001     1   0.10969 276646.080000
   4998   5000     1   0.10969 276646.080000
   4999   5002     1   0.10961 277566.560000
   5003   5013     1   0.09730 310787.520000
   5004   5006     1   0.09730 310787.520000
   5005   5008     1   0.10969 276646.080000
   5005   5009     1   0.10969 276646.080000
   5007   5017     1   0.10190 328360.320000
   5010   5011     1   0.09730 310787.520000
   5015   5016     1   0.09730 310787.520000
   5018   5020     1   0.10969 276646.080000
   5019   5038     1   0.10969 276646.080000
   5021   5025     1   0.10969 276646.080000
   5022   5024     1   0.10969 276646.080000
   5023   5026     1   0.10961 277566.560000
   5027   5037     1   0.09730 310787.520000
   5028   5030     1   0.09730 310787.520000
   5029   5032     1   0.10969 276646.080000
   5029   5033     1   0.10969 276646.080000
   5031   5041     1   0.10190 328360.320000
   5034   5035     1   0.09730 310787.520000
   5039   5040     1   0.09730 310787.520000
   5043   5044     1   0.10129 337397.760000
   5045   5046     1   0.10969 276646.080000
   5045   5048     1   0.10969 276646.080000
   5047   5049     1   0.10969 276646.080000
   5047   5050     1   0.10969 276646.080000
   5051   5116     1   0.10304 312293.760000
   5052   5061     1   0.10969 276646.080000
   5052   5062     1   0.10969 276646.080000
   5053   5054     1   0.10969 276646.080000
   5053   5056     1   0.10969 276646.080000
   5055   5057     1   0.10969 276646.080000
   5055   5058     1   0.10969 276646.080000
   5063   5064     1   0.10969 276646.080000
   5063   5065     1   0.10969 276646.080000
   5068   5070     1   0.10969 276646.080000
   5069   5088     1   0.10969 276646.080000
   5071   5075     1   0.10969 276646.080000
   5072   5074     1   0.10969 276646.080000
   5073   5076     1   0.10961 277566.560000
   5077   5087     1   0.09730 310787.520000
   5078   5080     1   0.09730 310787.520000
   5079   5082     1   0.10969 276646.080000
   5079   5083     1   0.10969 276646.080000
   5081   5091     1   0.10190 328360.320000
   5084   5085     1   0.09730 310787.520000
   5089   5090     1   0.09730 310787.520000
   5092   5094     1   0.10969 276646.080000
   5093   5112     1   0.10969 276646.080000
   5095   5099     1   0.10969 276646.080000
   5096   5098     1   0.10969 276646.080000
   5097   5100     1   0.10961 277566.560000
   5101   5111     1   0.09730 310787.520000
   5102   5104     1   0.09730 310787.520000
   5103   5106     1   0.10969 276646.080000
   5103   5107     1   0.10969 276646.080000
   5105   5115     1   0.10190 328360.320000
   5108   5109     1   0.09730 310787.520000
   5113   5114     1   0.09730 310787.520000
   5117   5118     1   0.10129 337397.760000
   5119   5120     1   0.10969 276646.080000
   5119   5122     1   0.10969 276646.080000
   5121   5123     1   0.10969 276646.080000
   5121   5124     1   0.10969 276646.080000
   5125   5190     1   0.10304 312293.760000
   5126   5135     1   0.10969 276646.080000
   5126   5136     1   0.10969 276646.080000
   5127   5128     1   0.10969 276646.080000
   5127   5130     1   0.10969 276646.080000
   5129   5131     1   0.10969 276646.080000
   5129   5132     1   0.10969 276646.080000
   5137   5138     1   0.10969 276646.080000
   5137   5139     1   0.10969 276646.080000
   5142   5144     1   0.10969 276646.080000
   5143   5162     1   0.10969 276646.080000
   5145   5149     1   0.10969 276646.080000
   5146   5148     1   0.10969 276646.080000
   5147   5150     1   0.10961 277566.560000
   5151   5161     1   0.09730 310787.520000
   5152   5154     1   0.09730 310787.520000
   5153   5156     1   0.10969 276646.080000
   5153   5157     1   0.10969 276646.080000
   5155   5165     1   0.10190 328360.320000
   5158   5159     1   0.09730 310787.520000
   5163   5164     1   0.09730 310787.520000
   5166   5168     1   0.10969 276646.080000
   5167   5186     1   0.10969 276646.080000
   5169   5173     1   0.10969 276646.080000
   5170   5172     1   0.10969 276646.080000
   5171   5174     1   0.10961 277566.560000
   5175   5185     1   0.09730 310787.520000
   5176   5178     1   0.09730 310787.520000
   5177   5180     1   0.10969 276646.080000
   5177   5181     1   0.10969 276646.080000
   5179   5189     1   0.10190 328360.320000
   5182   5183     1   0.09730 310787.520000
   5187   5188     1   0.09730 310787.520000
   5191   5192     1   0.10129 337397.760000
   5193   5194     1   0.10969 276646.080000
   5193   5196     1   0.10969 276646.080000
   5195   5197     1   0.10969 276646.080000
   5195   5198     1   0.10969 276646.080000
   5199   5264     1   0.10304 312293.760000
   5200   5209     1   0.10969 276646.080000
   5200   5210     1   0.10969 276646.080000
   5201   5202     1   0.10969 276646.080000
   5201   5204     1   0.10969 276646.080000
   5203   5205     1   0.10969 276646.080000
   5203   5206     1   0.10969 276646.080000
   5211   5212     1   0.10969 276646.080000
   5211   5213     1   0.10969 276646.080000
   5216   5218     1   0.10969 276646.080000
   5217   5236     1   0.10969 276646.080000
   5219   5223     1   0.10969 276646.080000
   5220   5222     1   0.10969 276646.080000
   5221   5224     1   0.10961 277566.560000
   5225   5235     1   0.09730 310787.520000
   5226   5228     1   0.09730 310787.520000
   5227   5230     1   0.10969 276646.080000
   5227   5231     1   0.10969 276646.080000
   5229   5239     1   0.10190 328360.320000
   5232   5233     1   0.09730 310787.520000
   5237   5238     1   0.09730 310787.520000
   5240   5242     1   0.10969 276646.080000
   5241   5260     1   0.10969 276646.080000
   5243   5247     1   0.10969 276646.080000
   5244   5246     1   0.10969 276646.080000
   5245   5248     1   0.10961 277566.560000
   5249   5259     1   0.09730 310787.520000
   5250   5252     1   0.09730 310787.520000
   5251   5254     1   0.10969 276646.080000
   5251   5255     1   0.10969 276646.080000
   5253   5263     1   0.10190 328360.320000
   5256   5257     1   0.09730 310787.520000
   5261   5262     1   0.09730 310787.520000
   5265   5266     1   0.10129 337397.760000
   5267   5268     1   0.10969 276646.080000
   5267   5270     1   0.10969 276646.080000
   5269   5271     1   0.10969 276646.080000
   5269   5272     1   0.10969 276646.080000
   5273   5338     1   0.10304 312293.760000
   5274   5283     1   0.10969 276646.080000
   5274   5284     1   0.10969 276646.080000
   5275   5276     1   0.10969 276646.080000
   5275   5278     1   0.10969 276646.080000
   5277   5279     1   0.10969 276646.080000
   5277   5280     1   0.10969 276646.080000
   5285   5286     1   0.10969 276646.080000
   5285   5287     1   0.10969 276646.080000
   5290   5292     1   0.10969 276646.080000
   5291   5310     1   0.10969 276646.080000
   5293   5297     1   0.10969 276646.080000
   5294   5296     1   0.10969 276646.080000
   5295   5298     1   0.10961 277566.560000
   5299   5309     1   0.09730 310787.520000
   5300   5302     1   0.09730 310787.520000
   5301   5304     1   0.10969 276646.080000
   5301   5305     1   0.10969 276646.080000
   5303   5313     1   0.10190 328360.320000
   5306   5307     1   0.09730 310787.520000
   5311   5312     1   0.09730 310787.520000
   5314   5316     1   0.10969 276646.080000
   5315   5334     1   0.10969 276646.080000
   5317   5321     1   0.10969 276646.080000
   5318   5320     1   0.10969 276646.080000
   5319   5322     1   0.10961 277566.560000
   5323   5333     1   0.09730 310787.520000
   5324   5326     1   0.09730 310787.520000
   5325   5328     1   0.10969 276646.080000
   5325   5329     1   0.10969 276646.080000
   5327   5337     1   0.10190 328360.320000
   5330   5331     1   0.09730 310787.520000
   5335   5336     1   0.09730 310787.520000
   5339   5340     1   0.10129 337397.760000
   5341   5342     1   0.10969 276646.080000
   5341   5344     1   0.10969 276646.080000
   5343   5345     1   0.10969 276646.080000
   5343   5346     1   0.10969 276646.080000
   5347   5412     1   0.10304 312293.760000
   5348   5357     1   0.10969 276646.080000
   5348   5358     1   0.10969 276646.080000
   5349   5350     1   0.10969 276646.080000
   5349   5352     1   0.10969 276646.080000
   5351   5353     1   0.10969 276646.080000
   5351   5354     1   0.10969 276646.080000
   5359   5360     1   0.10969 276646.080000
   5359   5361     1   0.10969 276646.080000
   5364   5366     1   0.10969 276646.080000
   5365   5384     1   0.10969 276646.080000
   5367   5371     1   0.10969 276646.080000
   5368   5370     1   0.10969 276646.080000
   5369   5372     1   0.10961 277566.560000
   5373   5383     1   0.09730 310787.520000
   5374   5376     1   0.09730 310787.520000
   5375   5378     1   0.10969 276646.080000
   5375   5379     1   0.10969 276646.080000
   5377   5387     1   0.10190 328360.320000
   5380   5381     1   0.09730 310787.520000
   5385   5386     1   0.09730 310787.520000
   5388   5390     1   0.10969 276646.080000
   5389   5408     1   0.10969 276646.080000
   5391   5395     1   0.10969 276646.080000
   5392   5394     1   0.10969 276646.080000
   5393   5396     1   0.10961 277566.560000
   5397   5407     1   0.09730 310787.520000
   5398   5400     1   0.09730 310787.520000
   5399   5402     1   0.10969 276646.080000
   5399   5403     1   0.10969 276646.080000
   5401   5411     1   0.10190 328360.320000
   5404   5405     1   0.09730 310787.520000
   5409   5410     1   0.09730 310787.520000
   5413   5414     1   0.10129 337397.760000
   5415   5416     1   0.10969 276646.080000
   5415   5418     1   0.10969 276646.080000
   5417   5419     1   0.10969 276646.080000
   5417   5420     1   0.10969 276646.080000
   5421   5486     1   0.10304 312293.760000
   5422   5431     1   0.10969 276646.080000
   5422   5432     1   0.10969 276646.080000
   5423   5424     1   0.10969 276646.080000
   5423   5426     1   0.10969 276646.080000
   5425   5427     1   0.10969 276646.080000
   5425   5428     1   0.10969 276646.080000
   5433   5434     1   0.10969 276646.080000
   5433   5435     1   0.10969 276646.080000
   5438   5440     1   0.10969 276646.080000
   5439   5458     1   0.10969 276646.080000
   5441   5445     1   0.10969 276646.080000
   5442   5444     1   0.10969 276646.080000
   5443   5446     1   0.10961 277566.560000
   5447   5457     1   0.09730 310787.520000
   5448   5450     1   0.09730 310787.520000
   5449   5452     1   0.10969 276646.080000
   5449   5453     1   0.10969 276646.080000
   5451   5461     1   0.10190 328360.320000
   5454   5455     1   0.09730 310787.520000
   5459   5460     1   0.09730 310787.520000
   5462   5464     1   0.10969 276646.080000
   5463   5482     1   0.10969 276646.080000
   5465   5469     1   0.10969 276646.080000
   5466   5468     1   0.10969 276646.080000
   5467   5470     1   0.10961 277566.560000
   5471   5481     1   0.09730 310787.520000
   5472   5474     1   0.09730 310787.520000
   5473   5476     1   0.10969 276646.080000
   5473   5477     1   0.10969 276646.080000
   5475   5485     1   0.10190 328360.320000
   5478   5479     1   0.09730 310787.520000
   5483   5484     1   0.09730 310787.520000
   5487   5488     1   0.10129 337397.760000
   5489   5490     1   0.10969 276646.080000
   5489   5492     1   0.10969 276646.080000
   5491   5493     1   0.10969 276646.080000
   5491   5494     1   0.10969 276646.080000
   5495   5560     1   0.10304 312293.760000
   5496   5505     1   0.10969 276646.080000
   5496   5506     1   0.10969 276646.080000
   5497   5498     1   0.10969 276646.080000
   5497   5500     1   0.10969 276646.080000
   5499   5501     1   0.10969 276646.080000
   5499   5502     1   0.10969 276646.080000
   5507   5508     1   0.10969 276646.080000
   5507   5509     1   0.10969 276646.080000
   5512   5514     1   0.10969 276646.080000
   5513   5532     1   0.10969 276646.080000
   5515   5519     1   0.10969 276646.080000
   5516   5518     1   0.10969 276646.080000
   5517   5520     1   0.10961 277566.560000
   5521   5531     1   0.09730 310787.520000
   5522   5524     1   0.09730 310787.520000
   5523   5526     1   0.10969 276646.080000
   5523   5527     1   0.10969 276646.080000
   5525   5535     1   0.10190 328360.320000
   5528   5529     1   0.09730 310787.520000
   5533   5534     1   0.09730 310787.520000
   5536   5538     1   0.10969 276646.080000
   5537   5556     1   0.10969 276646.080000
   5539   5543     1   0.10969 276646.080000
   5540   5542     1   0.10969 276646.080000
   5541   5544     1   0.10961 277566.560000
   5545   5555     1   0.09730 310787.520000
   5546   5548     1   0.09730 310787.520000
   5547   5550     1   0.10969 276646.080000
   5547   5551     1   0.10969 276646.080000
   5549   5559     1   0.10190 328360.320000
   5552   5553     1   0.09730 310787.520000
   5557   5558     1   0.09730 310787.520000
   5561   5562     1   0.10129 337397.760000
   5563   5564     1   0.10969 276646.080000
   5563   5566     1   0.10969 276646.080000
   5565   5567     1   0.10969 276646.080000
   5565   5568     1   0.10969 276646.080000
   5569   5634     1   0.10304 312293.760000
   5570   5579     1   0.10969 276646.080000
   5570   5580     1   0.10969 276646.080000
   5571   5572     1   0.10969 276646.080000
   5571   5574     1   0.10969 276646.080000
   5573   5575     1   0.10969 276646.080000
   5573   5576     1   0.10969 276646.080000
   5581   5582     1   0.10969 276646.080000
   5581   5583     1   0.10969 276646.080000
   5586   5588     1   0.10969 276646.080000
   5587   5606     1   0.10969 276646.080000
   5589   5593     1   0.10969 276646.080000
   5590   5592     1   0.10969 276646.080000
   5591   5594     1   0.10961 277566.560000
   5595   5605     1   0.09730 310787.520000
   5596   5598     1   0.09730 310787.520000
   5597   5600     1   0.10969 276646.080000
   5597   5601     1   0.10969 276646.080000
   5599   5609     1   0.10190 328360.320000
   5602   5603     1   0.09730 310787.520000
   5607   5608     1   0.09730 310787.520000
   5610   5612     1   0.10969 276646.080000
   5611   5630     1   0.10969 276646.080000
   5613   5617     1   0.10969 276646.080000
   5614   5616     1   0.10969 276646.080000
   5615   5618     1   0.10961 277566.560000
   5619   5629     1   0.09730 310787.520000
   5620   5622     1   0.09730 310787.520000
   5621   5624     1   0.10969 276646.080000
   5621   5625     1   0.10969 276646.080000
   5623   5633     1   0.10190 328360.320000
   5626   5627     1   0.09730 310787.520000
   5631   5632     1   0.09730 310787.520000
   5635   5636     1   0.10129 337397.760000
   5637   5638     1   0.10969 276646.080000
   5637   5640     1   0.10969 276646.080000
   5639   5641     1   0.10969 276646.080000
   5639   5642     1   0.10969 276646.080000
   5643   5708     1   0.10304 312293.760000
   5644   5653     1   0.10969 276646.080000
   5644   5654     1   0.10969 276646.080000
   5645   5646     1   0.10969 276646.080000
   5645   5648     1   0.10969 276646.080000
   5647   5649     1   0.10969 276646.080000
   5647   5650     1   0.10969 276646.080000
   5655   5656     1   0.10969 276646.080000
   5655   5657     1   0.10969 276646.080000
   5660   5662     1   0.10969 276646.080000
   5661   5680     1   0.10969 276646.080000
   5663   5667     1   0.10969 276646.080000
   5664   5666     1   0.10969 276646.080000
   5665   5668     1   0.10961 277566.560000
   5669   5679     1   0.09730 310787.520000
   5670   5672     1   0.09730 310787.520000
   5671   5674     1   0.10969 276646.080000
   5671   5675     1   0.10969 276646.080000
   5673   5683     1   0.10190 328360.320000
   5676   5677     1   0.09730 310787.520000
   5681   5682     1   0.09730 310787.520000
   5684   5686     1   0.10969 276646.080000
   5685   5704     1   0.10969 276646.080000
   5687   5691     1   0.10969 276646.080000
   5688   5690     1   0.10969 276646.080000
   5689   5692     1   0.10961 277566.560000
   5693   5703     1   0.09730 310787.520000
   5694   5696     1   0.09730 310787.520000
   5695   5698     1   0.10969 276646.080000
   5695   5699     1   0.10969 276646.080000
   5697   5707     1   0.10190 328360.320000
   5700   5701     1   0.09730 310787.520000
   5705   5706     1   0.09730 310787.520000
   5709   5710     1   0.10129 337397.760000
   5711   5712     1   0.10969 276646.080000
   5711   5714     1   0.10969 276646.080000
   5713   5715     1   0.10969 276646.080000
   5713   5716     1   0.10969 276646.080000
   5717   5782     1   0.10304 312293.760000
   5718   5727     1   0.10969 276646.080000
   5718   5728     1   0.10969 276646.080000
   5719   5720     1   0.10969 276646.080000
   5719   5722     1   0.10969 276646.080000
   5721   5723     1   0.10969 276646.080000
   5721   5724     1   0.10969 276646.080000
   5729   5730     1   0.10969 276646.080000
   5729   5731     1   0.10969 276646.080000
   5734   5736     1   0.10969 276646.080000
   5735   5754     1   0.10969 276646.080000
   5737   5741     1   0.10969 276646.080000
   5738   5740     1   0.10969 276646.080000
   5739   5742     1   0.10961 277566.560000
   5743   5753     1   0.09730 310787.520000
   5744   5746     1   0.09730 310787.520000
   5745   5748     1   0.10969 276646.080000
   5745   5749     1   0.10969 276646.080000
   5747   5757     1   0.10190 328360.320000
   5750   5751     1   0.09730 310787.520000
   5755   5756     1   0.09730 310787.520000
   5758   5760     1   0.10969 276646.080000
   5759   5778     1   0.10969 276646.080000
   5761   5765     1   0.10969 276646.080000
   5762   5764     1   0.10969 276646.080000
   5763   5766     1   0.10961 277566.560000
   5767   5777     1   0.09730 310787.520000
   5768   5770     1   0.09730 310787.520000
   5769   5772     1   0.10969 276646.080000
   5769   5773     1   0.10969 276646.080000
   5771   5781     1   0.10190 328360.320000
   5774   5775     1   0.09730 310787.520000
   5779   5780     1   0.09730 310787.520000
   5783   5784     1   0.10129 337397.760000
   5785   5786     1   0.10969 276646.080000
   5785   5788     1   0.10969 276646.080000
   5787   5789     1   0.10969 276646.080000
   5787   5790     1   0.10969 276646.080000
   5791   5856     1   0.10304 312293.760000
   5792   5801     1   0.10969 276646.080000
   5792   5802     1   0.10969 276646.080000
   5793   5794     1   0.10969 276646.080000
   5793   5796     1   0.10969 276646.080000
   5795   5797     1   0.10969 276646.080000
   5795   5798     1   0.10969 276646.080000
   5803   5804     1   0.10969 276646.080000
   5803   5805     1   0.10969 276646.080000
   5808   5810     1   0.10969 276646.080000
   5809   5828     1   0.10969 276646.080000
   5811   5815     1   0.10969 276646.080000
   5812   5814     1   0.10969 276646.080000
   5813   5816     1   0.10961 277566.560000
   5817   5827     1   0.09730 310787.520000
   5818   5820     1   0.09730 310787.520000
   5819   5822     1   0.10969 276646.080000
   5819   5823     1   0.10969 276646.080000
   5821   5831     1   0.10190 328360.320000
   5824   5825     1   0.09730 310787.520000
   5829   5830     1   0.09730 310787.520000
   5832   5834     1   0.10969 276646.080000
   5833   5852     1   0.10969 276646.080000
   5835   5839     1   0.10969 276646.080000
   5836   5838     1   0.10969 276646.080000
   5837   5840     1   0.10961 277566.560000
   5841   5851     1   0.09730 310787.520000
   5842   5844     1   0.09730 310787.520000
   5843   5846     1   0.10969 276646.080000
   5843   5847     1   0.10969 276646.080000
   5845   5855     1   0.10190 328360.320000
   5848   5849     1   0.09730 310787.520000
   5853   5854     1   0.09730 310787.520000
   5857   5858     1   0.10129 337397.760000
   5859   5860     1   0.10969 276646.080000
   5859   5862     1   0.10969 276646.080000
   5861   5863     1   0.10969 276646.080000
   5861   5864     1   0.10969 276646.080000
   5865   5930     1   0.10304 312293.760000
   5866   5875     1   0.10969 276646.080000
   5866   5876     1   0.10969 276646.080000
   5867   5868     1   0.10969 276646.080000
   5867   5870     1   0.10969 276646.080000
   5869   5871     1   0.10969 276646.080000
   5869   5872     1   0.10969 276646.080000
   5877   5878     1   0.10969 276646.080000
   5877   5879     1   0.10969 276646.080000
   5882   5884     1   0.10969 276646.080000
   5883   5902     1   0.10969 276646.080000
   5885   5889     1   0.10969 276646.080000
   5886   5888     1   0.10969 276646.080000
   5887   5890     1   0.10961 277566.560000
   5891   5901     1   0.09730 310787.520000
   5892   5894     1   0.09730 310787.520000
   5893   5896     1   0.10969 276646.080000
   5893   5897     1   0.10969 276646.080000
   5895   5905     1   0.10190 328360.320000
   5898   5899     1   0.09730 310787.520000
   5903   5904     1   0.09730 310787.520000
   5906   5908     1   0.10969 276646.080000
   5907   5926     1   0.10969 276646.080000
   5909   5913     1   0.10969 276646.080000
   5910   5912     1   0.10969 276646.080000
   5911   5914     1   0.10961 277566.560000
   5915   5925     1   0.09730 310787.520000
   5916   5918     1   0.09730 310787.520000
   5917   5920     1   0.10969 276646.080000
   5917   5921     1   0.10969 276646.080000
   5919   5929     1   0.10190 328360.320000
   5922   5923     1   0.09730 310787.520000
   5927   5928     1   0.09730 310787.520000
   5931   5932     1   0.10129 337397.760000
   5933   5934     1   0.10969 276646.080000
   5933   5936     1   0.10969 276646.080000
   5935   5937     1   0.10969 276646.080000
   5935   5938     1   0.10969 276646.080000
   5939   6004     1   0.10304 312293.760000
   5940   5949     1   0.10969 276646.080000
   5940   5950     1   0.10969 276646.080000
   5941   5942     1   0.10969 276646.080000
   5941   5944     1   0.10969 276646.080000
   5943   5945     1   0.10969 276646.080000
   5943   5946     1   0.10969 276646.080000
   5951   5952     1   0.10969 276646.080000
   5951   5953     1   0.10969 276646.080000
   5956   5958     1   0.10969 276646.080000
   5957   5976     1   0.10969 276646.080000
   5959   5963     1   0.10969 276646.080000
   5960   5962     1   0.10969 276646.080000
   5961   5964     1   0.10961 277566.560000
   5965   5975     1   0.09730 310787.520000
   5966   5968     1   0.09730 310787.520000
   5967   5970     1   0.10969 276646.080000
   5967   5971     1   0.10969 276646.080000
   5969   5979     1   0.10190 328360.320000
   5972   5973     1   0.09730 310787.520000
   5977   5978     1   0.09730 310787.520000
   5980   5982     1   0.10969 276646.080000
   5981   6000     1   0.10969 276646.080000
   5983   5987     1   0.10969 276646.080000
   5984   5986     1   0.10969 276646.080000
   5985   5988     1   0.10961 277566.560000
   5989   5999     1   0.09730 310787.520000
   5990   5992     1   0.09730 310787.520000
   5991   5994     1   0.10969 276646.080000
   5991   5995     1   0.10969 276646.080000
   5993   6003     1   0.10190 328360.320000
   5996   5997     1   0.09730 310787.520000
   6001   6002     1   0.09730 310787.520000
   6005   6006     1   0.10129 337397.760000
   6007   6008     1   0.10969 276646.080000
   6007   6010     1   0.10969 276646.080000
   6009   6011     1   0.10969 276646.080000
   6009   6012     1   0.10969 276646.080000
   6013   6078     1   0.10304 312293.760000
   6014   6023     1   0.10969 276646.080000
   6014   6024     1   0.10969 276646.080000
   6015   6016     1   0.10969 276646.080000
   6015   6018     1   0.10969 276646.080000
   6017   6019     1   0.10969 276646.080000
   6017   6020     1   0.10969 276646.080000
   6025   6026     1   0.10969 276646.080000
   6025   6027     1   0.10969 276646.080000
   6030   6032     1   0.10969 276646.080000
   6031   6050     1   0.10969 276646.080000
   6033   6037     1   0.10969 276646.080000
   6034   6036     1   0.10969 276646.080000
   6035   6038     1   0.10961 277566.560000
   6039   6049     1   0.09730 310787.520000
   6040   6042     1   0.09730 310787.520000
   6041   6044     1   0.10969 276646.080000
   6041   6045     1   0.10969 276646.080000
   6043   6053     1   0.10190 328360.320000
   6046   6047     1   0.09730 310787.520000
   6051   6052     1   0.09730 310787.520000
   6054   6056     1   0.10969 276646.080000
   6055   6074     1   0.10969 276646.080000
   6057   6061     1   0.10969 276646.080000
   6058   6060     1   0.10969 276646.080000
   6059   6062     1   0.10961 277566.560000
   6063   6073     1   0.09730 310787.520000
   6064   6066     1   0.09730 310787.520000
   6065   6068     1   0.10969 276646.080000
   6065   6069     1   0.10969 276646.080000
   6067   6077     1   0.10190 328360.320000
   6070   6071     1   0.09730 310787.520000
   6075   6076     1   0.09730 310787.520000
   6079   6080     1   0.10129 337397.760000
   6081   6082     1   0.10969 276646.080000
   6081   6084     1   0.10969 276646.080000
   6083   6085     1   0.10969 276646.080000
   6083   6086     1   0.10969 276646.080000
   6087   6152     1   0.10304 312293.760000
   6088   6097     1   0.10969 276646.080000
   6088   6098     1   0.10969 276646.080000
   6089   6090     1   0.10969 276646.080000
   6089   6092     1   0.10969 276646.080000
   6091   6093     1   0.10969 276646.080000
   6091   6094     1   0.10969 276646.080000
   6099   6100     1   0.10969 276646.080000
   6099   6101     1   0.10969 276646.080000
   6104   6106     1   0.10969 276646.080000
   6105   6124     1   0.10969 276646.080000
   6107   6111     1   0.10969 276646.080000
   6108   6110     1   0.10969 276646.080000
   6109   6112     1   0.10961 277566.560000
   6113   6123     1   0.09730 310787.520000
   6114   6116     1   0.09730 310787.520000
   6115   6118     1   0.10969 276646.080000
   6115   6119     1   0.10969 276646.080000
   6117   6127     1   0.10190 328360.320000
   6120   6121     1   0.09730 310787.520000
   6125   6126     1   0.09730 310787.520000
   6128   6130     1   0.10969 276646.080000
   6129   6148     1   0.10969 276646.080000
   6131   6135     1   0.10969 276646.080000
   6132   6134     1   0.10969 276646.080000
   6133   6136     1   0.10961 277566.560000
   6137   6147     1   0.09730 310787.520000
   6138   6140     1   0.09730 310787.520000
   6139   6142     1   0.10969 276646.080000
   6139   6143     1   0.10969 276646.080000
   6141   6151     1   0.10190 328360.320000
   6144   6145     1   0.09730 310787.520000
   6149   6150     1   0.09730 310787.520000
   6153   6154     1   0.10129 337397.760000
   6155   6156     1   0.10969 276646.080000
   6155   6158     1   0.10969 276646.080000
   6157   6159     1   0.10969 276646.080000
   6157   6160     1   0.10969 276646.080000
   6161   6226     1   0.10304 312293.760000
   6162   6171     1   0.10969 276646.080000
   6162   6172     1   0.10969 276646.080000
   6163   6164     1   0.10969 276646.080000
   6163   6166     1   0.10969 276646.080000
   6165   6167     1   0.10969 276646.080000
   6165   6168     1   0.10969 276646.080000
   6173   6174     1   0.10969 276646.080000
   6173   6175     1   0.10969 276646.080000
   6178   6180     1   0.10969 276646.080000
   6179   6198     1   0.10969 276646.080000
   6181   6185     1   0.10969 276646.080000
   6182   6184     1   0.10969 276646.080000
   6183   6186     1   0.10961 277566.560000
   6187   6197     1   0.09730 310787.520000
   6188   6190     1   0.09730 310787.520000
   6189   6192     1   0.10969 276646.080000
   6189   6193     1   0.10969 276646.080000
   6191   6201     1   0.10190 328360.320000
   6194   6195     1   0.09730 310787.520000
   6199   6200     1   0.09730 310787.520000
   6202   6204     1   0.10969 276646.080000
   6203   6222     1   0.10969 276646.080000
   6205   6209     1   0.10969 276646.080000
   6206   6208     1   0.10969 276646.080000
   6207   6210     1   0.10961 277566.560000
   6211   6221     1   0.09730 310787.520000
   6212   6214     1   0.09730 310787.520000
   6213   6216     1   0.10969 276646.080000
   6213   6217     1   0.10969 276646.080000
   6215   6225     1   0.10190 328360.320000
   6218   6219     1   0.09730 310787.520000
   6223   6224     1   0.09730 310787.520000
   6227   6228     1   0.10129 337397.760000
   6229   6230     1   0.10969 276646.080000
   6229   6232     1   0.10969 276646.080000
   6231   6233     1   0.10969 276646.080000
   6231   6234     1   0.10969 276646.080000
   6235   6300     1   0.10304 312293.760000
   6236   6245     1   0.10969 276646.080000
   6236   6246     1   0.10969 276646.080000
   6237   6238     1   0.10969 276646.080000
   6237   6240     1   0.10969 276646.080000
   6239   6241     1   0.10969 276646.080000
   6239   6242     1   0.10969 276646.080000
   6247   6248     1   0.10969 276646.080000
   6247   6249     1   0.10969 276646.080000
   6252   6254     1   0.10969 276646.080000
   6253   6272     1   0.10969 276646.080000
   6255   6259     1   0.10969 276646.080000
   6256   6258     1   0.10969 276646.080000
   6257   6260     1   0.10961 277566.560000
   6261   6271     1   0.09730 310787.520000
   6262   6264     1   0.09730 310787.520000
   6263   6266     1   0.10969 276646.080000
   6263   6267     1   0.10969 276646.080000
   6265   6275     1   0.10190 328360.320000
   6268   6269     1   0.09730 310787.520000
   6273   6274     1   0.09730 310787.520000
   6276   6278     1   0.10969 276646.080000
   6277   6296     1   0.10969 276646.080000
   6279   6283     1   0.10969 276646.080000
   6280   6282     1   0.10969 276646.080000
   6281   6284     1   0.10961 277566.560000
   6285   6295     1   0.09730 310787.520000
   6286   6288     1   0.09730 310787.520000
   6287   6290     1   0.10969 276646.080000
   6287   6291     1   0.10969 276646.080000
   6289   6299     1   0.10190 328360.320000
   6292   6293     1   0.09730 310787.520000
   6297   6298     1   0.09730 310787.520000
   6301   6302     1   0.10129 337397.760000
   6303   6304     1   0.10969 276646.080000
   6303   6306     1   0.10969 276646.080000
   6305   6307     1   0.10969 276646.080000
   6305   6308     1   0.10969 276646.080000
   6309   6374     1   0.10304 312293.760000
   6310   6319     1   0.10969 276646.080000
   6310   6320     1   0.10969 276646.080000
   6311   6312     1   0.10969 276646.080000
   6311   6314     1   0.10969 276646.080000
   6313   6315     1   0.10969 276646.080000
   6313   6316     1   0.10969 276646.080000
   6321   6322     1   0.10969 276646.080000
   6321   6323     1   0.10969 276646.080000
   6326   6328     1   0.10969 276646.080000
   6327   6346     1   0.10969 276646.080000
   6329   6333     1   0.10969 276646.080000
   6330   6332     1   0.10969 276646.080000
   6331   6334     1   0.10961 277566.560000
   6335   6345     1   0.09730 310787.520000
   6336   6338     1   0.09730 310787.520000
   6337   6340     1   0.10969 276646.080000
   6337   6341     1   0.10969 276646.080000
   6339   6349     1   0.10190 328360.320000
   6342   6343     1   0.09730 310787.520000
   6347   6348     1   0.09730 310787.520000
   6350   6352     1   0.10969 276646.080000
   6351   6370     1   0.10969 276646.080000
   6353   6357     1   0.10969 276646.080000
   6354   6356     1   0.10969 276646.080000
   6355   6358     1   0.10961 277566.560000
   6359   6369     1   0.09730 310787.520000
   6360   6362     1   0.09730 310787.520000
   6361   6364     1   0.10969 276646.080000
   6361   6365     1   0.10969 276646.080000
   6363   6373     1   0.10190 328360.320000
   6366   6367     1   0.09730 310787.520000
   6371   6372     1   0.09730 310787.520000
   6375   6376     1   0.10129 337397.760000
   6377   6378     1   0.10969 276646.080000
   6377   6380     1   0.10969 276646.080000
   6379   6381     1   0.10969 276646.080000
   6379   6382     1   0.10969 276646.080000
   6383   6448     1   0.10304 312293.760000
   6384   6393     1   0.10969 276646.080000
   6384   6394     1   0.10969 276646.080000
   6385   6386     1   0.10969 276646.080000
   6385   6388     1   0.10969 276646.080000
   6387   6389     1   0.10969 276646.080000
   6387   6390     1   0.10969 276646.080000
   6395   6396     1   0.10969 276646.080000
   6395   6397     1   0.10969 276646.080000
   6400   6402     1   0.10969 276646.080000
   6401   6420     1   0.10969 276646.080000
   6403   6407     1   0.10969 276646.080000
   6404   6406     1   0.10969 276646.080000
   6405   6408     1   0.10961 277566.560000
   6409   6419     1   0.09730 310787.520000
   6410   6412     1   0.09730 310787.520000
   6411   6414     1   0.10969 276646.080000
   6411   6415     1   0.10969 276646.080000
   6413   6423     1   0.10190 328360.320000
   6416   6417     1   0.09730 310787.520000
   6421   6422     1   0.09730 310787.520000
   6424   6426     1   0.10969 276646.080000
   6425   6444     1   0.10969 276646.080000
   6427   6431     1   0.10969 276646.080000
   6428   6430     1   0.10969 276646.080000
   6429   6432     1   0.10961 277566.560000
   6433   6443     1   0.09730 310787.520000
   6434   6436     1   0.09730 310787.520000
   6435   6438     1   0.10969 276646.080000
   6435   6439     1   0.10969 276646.080000
   6437   6447     1   0.10190 328360.320000
   6440   6441     1   0.09730 310787.520000
   6445   6446     1   0.09730 310787.520000
   6449   6450     1   0.10129 337397.760000
   6451   6452     1   0.10969 276646.080000
   6451   6454     1   0.10969 276646.080000
   6453   6455     1   0.10969 276646.080000
   6453   6456     1   0.10969 276646.080000
   6457   6522     1   0.10304 312293.760000
   6458   6467     1   0.10969 276646.080000
   6458   6468     1   0.10969 276646.080000
   6459   6460     1   0.10969 276646.080000
   6459   6462     1   0.10969 276646.080000
   6461   6463     1   0.10969 276646.080000
   6461   6464     1   0.10969 276646.080000
   6469   6470     1   0.10969 276646.080000
   6469   6471     1   0.10969 276646.080000
   6474   6476     1   0.10969 276646.080000
   6475   6494     1   0.10969 276646.080000
   6477   6481     1   0.10969 276646.080000
   6478   6480     1   0.10969 276646.080000
   6479   6482     1   0.10961 277566.560000
   6483   6493     1   0.09730 310787.520000
   6484   6486     1   0.09730 310787.520000
   6485   6488     1   0.10969 276646.080000
   6485   6489     1   0.10969 276646.080000
   6487   6497     1   0.10190 328360.320000
   6490   6491     1   0.09730 310787.520000
   6495   6496     1   0.09730 310787.520000
   6498   6500     1   0.10969 276646.080000
   6499   6518     1   0.10969 276646.080000
   6501   6505     1   0.10969 276646.080000
   6502   6504     1   0.10969 276646.080000
   6503   6506     1   0.10961 277566.560000
   6507   6517     1   0.09730 310787.520000
   6508   6510     1   0.09730 310787.520000
   6509   6512     1   0.10969 276646.080000
   6509   6513     1   0.10969 276646.080000
   6511   6521     1   0.10190 328360.320000
   6514   6515     1   0.09730 310787.520000
   6519   6520     1   0.09730 310787.520000
   6523   6524     1   0.10129 337397.760000
   6525   6526     1   0.10969 276646.080000
   6525   6528     1   0.10969 276646.080000
   6527   6529     1   0.10969 276646.080000
   6527   6530     1   0.10969 276646.080000
   6531   6596     1   0.10304 312293.760000
   6532   6541     1   0.10969 276646.080000
   6532   6542     1   0.10969 276646.080000
   6533   6534     1   0.10969 276646.080000
   6533   6536     1   0.10969 276646.080000
   6535   6537     1   0.10969 276646.080000
   6535   6538     1   0.10969 276646.080000
   6543   6544     1   0.10969 276646.080000
   6543   6545     1   0.10969 276646.080000
   6548   6550     1   0.10969 276646.080000
   6549   6568     1   0.10969 276646.080000
   6551   6555     1   0.10969 276646.080000
   6552   6554     1   0.10969 276646.080000
   6553   6556     1   0.10961 277566.560000
   6557   6567     1   0.09730 310787.520000
   6558   6560     1   0.09730 310787.520000
   6559   6562     1   0.10969 276646.080000
   6559   6563     1   0.10969 276646.080000
   6561   6571     1   0.10190 328360.320000
   6564   6565     1   0.09730 310787.520000
   6569   6570     1   0.09730 310787.520000
   6572   6574     1   0.10969 276646.080000
   6573   6592     1   0.10969 276646.080000
   6575   6579     1   0.10969 276646.080000
   6576   6578     1   0.10969 276646.080000
   6577   6580     1   0.10961 277566.560000
   6581   6591     1   0.09730 310787.520000
   6582   6584     1   0.09730 310787.520000
   6583   6586     1   0.10969 276646.080000
   6583   6587     1   0.10969 276646.080000
   6585   6595     1   0.10190 328360.320000
   6588   6589     1   0.09730 310787.520000
   6593   6594     1   0.09730 310787.520000
   6597   6598     1   0.10129 337397.760000
   6599   6600     1   0.10969 276646.080000
   6599   6602     1   0.10969 276646.080000
   6601   6603     1   0.10969 276646.080000
   6601   6604     1   0.10969 276646.080000
   6605   6670     1   0.10304 312293.760000
   6606   6615     1   0.10969 276646.080000
   6606   6616     1   0.10969 276646.080000
   6607   6608     1   0.10969 276646.080000
   6607   6610     1   0.10969 276646.080000
   6609   6611     1   0.10969 276646.080000
   6609   6612     1   0.10969 276646.080000
   6617   6618     1   0.10969 276646.080000
   6617   6619     1   0.10969 276646.080000
   6622   6624     1   0.10969 276646.080000
   6623   6642     1   0.10969 276646.080000
   6625   6629     1   0.10969 276646.080000
   6626   6628     1   0.10969 276646.080000
   6627   6630     1   0.10961 277566.560000
   6631   6641     1   0.09730 310787.520000
   6632   6634     1   0.09730 310787.520000
   6633   6636     1   0.10969 276646.080000
   6633   6637     1   0.10969 276646.080000
   6635   6645     1   0.10190 328360.320000
   6638   6639     1   0.09730 310787.520000
   6643   6644     1   0.09730 310787.520000
   6646   6648     1   0.10969 276646.080000
   6647   6666     1   0.10969 276646.080000
   6649   6653     1   0.10969 276646.080000
   6650   6652     1   0.10969 276646.080000
   6651   6654     1   0.10961 277566.560000
   6655   6665     1   0.09730 310787.520000
   6656   6658     1   0.09730 310787.520000
   6657   6660     1   0.10969 276646.080000
   6657   6661     1   0.10969 276646.080000
   6659   6669     1   0.10190 328360.320000
   6662   6663     1   0.09730 310787.520000
   6667   6668     1   0.09730 310787.520000
   6671   6672     1   0.10129 337397.760000
   6673   6674     1   0.10969 276646.080000
   6673   6676     1   0.10969 276646.080000
   6675   6677     1   0.10969 276646.080000
   6675   6678     1   0.10969 276646.080000
   6679   6744     1   0.10304 312293.760000
   6680   6689     1   0.10969 276646.080000
   6680   6690     1   0.10969 276646.080000
   6681   6682     1   0.10969 276646.080000
   6681   6684     1   0.10969 276646.080000
   6683   6685     1   0.10969 276646.080000
   6683   6686     1   0.10969 276646.080000
   6691   6692     1   0.10969 276646.080000
   6691   6693     1   0.10969 276646.080000
   6696   6698     1   0.10969 276646.080000
   6697   6716     1   0.10969 276646.080000
   6699   6703     1   0.10969 276646.080000
   6700   6702     1   0.10969 276646.080000
   6701   6704     1   0.10961 277566.560000
   6705   6715     1   0.09730 310787.520000
   6706   6708     1   0.09730 310787.520000
   6707   6710     1   0.10969 276646.080000
   6707   6711     1   0.10969 276646.080000
   6709   6719     1   0.10190 328360.320000
   6712   6713     1   0.09730 310787.520000
   6717   6718     1   0.09730 310787.520000
   6720   6722     1   0.10969 276646.080000
   6721   6740     1   0.10969 276646.080000
   6723   6727     1   0.10969 276646.080000
   6724   6726     1   0.10969 276646.080000
   6725   6728     1   0.10961 277566.560000
   6729   6739     1   0.09730 310787.520000
   6730   6732     1   0.09730 310787.520000
   6731   6734     1   0.10969 276646.080000
   6731   6735     1   0.10969 276646.080000
   6733   6743     1   0.10190 328360.320000
   6736   6737     1   0.09730 310787.520000
   6741   6742     1   0.09730 310787.520000
   6745   6746     1   0.10129 337397.760000
   6747   6748     1   0.10969 276646.080000
   6747   6750     1   0.10969 276646.080000
   6749   6751     1   0.10969 276646.080000
   6749   6752     1   0.10969 276646.080000
   6753   6818     1   0.10304 312293.760000
   6754   6763     1   0.10969 276646.080000
   6754   6764     1   0.10969 276646.080000
   6755   6756     1   0.10969 276646.080000
   6755   6758     1   0.10969 276646.080000
   6757   6759     1   0.10969 276646.080000
   6757   6760     1   0.10969 276646.080000
   6765   6766     1   0.10969 276646.080000
   6765   6767     1   0.10969 276646.080000
   6770   6772     1   0.10969 276646.080000
   6771   6790     1   0.10969 276646.080000
   6773   6777     1   0.10969 276646.080000
   6774   6776     1   0.10969 276646.080000
   6775   6778     1   0.10961 277566.560000
   6779   6789     1   0.09730 310787.520000
   6780   6782     1   0.09730 310787.520000
   6781   6784     1   0.10969 276646.080000
   6781   6785     1   0.10969 276646.080000
   6783   6793     1   0.10190 328360.320000
   6786   6787     1   0.09730 310787.520000
   6791   6792     1   0.09730 310787.520000
   6794   6796     1   0.10969 276646.080000
   6795   6814     1   0.10969 276646.080000
   6797   6801     1   0.10969 276646.080000
   6798   6800     1   0.10969 276646.080000
   6799   6802     1   0.10961 277566.560000
   6803   6813     1   0.09730 310787.520000
   6804   6806     1   0.09730 310787.520000
   6805   6808     1   0.10969 276646.080000
   6805   6809     1   0.10969 276646.080000
   6807   6817     1   0.10190 328360.320000
   6810   6811     1   0.09730 310787.520000
   6815   6816     1   0.09730 310787.520000
   6819   6820     1   0.10129 337397.760000
   6821   6822     1   0.10969 276646.080000
   6821   6824     1   0.10969 276646.080000
   6823   6825     1   0.10969 276646.080000
   6823   6826     1   0.10969 276646.080000
   6827   6892     1   0.10304 312293.760000
   6828   6837     1   0.10969 276646.080000
   6828   6838     1   0.10969 276646.080000
   6829   6830     1   0.10969 276646.080000
   6829   6832     1   0.10969 276646.080000
   6831   6833     1   0.10969 276646.080000
   6831   6834     1   0.10969 276646.080000
   6839   6840     1   0.10969 276646.080000
   6839   6841     1   0.10969 276646.080000
   6844   6846     1   0.10969 276646.080000
   6845   6864     1   0.10969 276646.080000
   6847   6851     1   0.10969 276646.080000
   6848   6850     1   0.10969 276646.080000
   6849   6852     1   0.10961 277566.560000
   6853   6863     1   0.09730 310787.520000
   6854   6856     1   0.09730 310787.520000
   6855   6858     1   0.10969 276646.080000
   6855   6859     1   0.10969 276646.080000
   6857   6867     1   0.10190 328360.320000
   6860   6861     1   0.09730 310787.520000
   6865   6866     1   0.09730 310787.520000
   6868   6870     1   0.10969 276646.080000
   6869   6888     1   0.10969 276646.080000
   6871   6875     1   0.10969 276646.080000
   6872   6874     1   0.10969 276646.080000
   6873   6876     1   0.10961 277566.560000
   6877   6887     1   0.09730 310787.520000
   6878   6880     1   0.09730 310787.520000
   6879   6882     1   0.10969 276646.080000
   6879   6883     1   0.10969 276646.080000
   6881   6891     1   0.10190 328360.320000
   6884   6885     1   0.09730 310787.520000
   6889   6890     1   0.09730 310787.520000
   6893   6894     1   0.10129 337397.760000
   6895   6896     1   0.10969 276646.080000
   6895   6898     1   0.10969 276646.080000
   6897   6899     1   0.10969 276646.080000
   6897   6900     1   0.10969 276646.080000
   6901   6966     1   0.10304 312293.760000
   6902   6911     1   0.10969 276646.080000
   6902   6912     1   0.10969 276646.080000
   6903   6904     1   0.10969 276646.080000
   6903   6906     1   0.10969 276646.080000
   6905   6907     1   0.10969 276646.080000
   6905   6908     1   0.10969 276646.080000
   6913   6914     1   0.10969 276646.080000
   6913   6915     1   0.10969 276646.080000
   6918   6920     1   0.10969 276646.080000
   6919   6938     1   0.10969 276646.080000
   6921   6925     1   0.10969 276646.080000
   6922   6924     1   0.10969 276646.080000
   6923   6926     1   0.10961 277566.560000
   6927   6937     1   0.09730 310787.520000
   6928   6930     1   0.09730 310787.520000
   6929   6932     1   0.10969 276646.080000
   6929   6933     1   0.10969 276646.080000
   6931   6941     1   0.10190 328360.320000
   6934   6935     1   0.09730 310787.520000
   6939   6940     1   0.09730 310787.520000
   6942   6944     1   0.10969 276646.080000
   6943   6962     1   0.10969 276646.080000
   6945   6949     1   0.10969 276646.080000
   6946   6948     1   0.10969 276646.080000
   6947   6950     1   0.10961 277566.560000
   6951   6961     1   0.09730 310787.520000
   6952   6954     1   0.09730 310787.520000
   6953   6956     1   0.10969 276646.080000
   6953   6957     1   0.10969 276646.080000
   6955   6965     1   0.10190 328360.320000
   6958   6959     1   0.09730 310787.520000
   6963   6964     1   0.09730 310787.520000
   6967   6968     1   0.10129 337397.760000
   6969   6970     1   0.10969 276646.080000
   6969   6972     1   0.10969 276646.080000
   6971   6973     1   0.10969 276646.080000
   6971   6974     1   0.10969 276646.080000
   6975   7040     1   0.10304 312293.760000
   6976   6985     1   0.10969 276646.080000
   6976   6986     1   0.10969 276646.080000
   6977   6978     1   0.10969 276646.080000
   6977   6980     1   0.10969 276646.080000
   6979   6981     1   0.10969 276646.080000
   6979   6982     1   0.10969 276646.080000
   6987   6988     1   0.10969 276646.080000
   6987   6989     1   0.10969 276646.080000
   6992   6994     1   0.10969 276646.080000
   6993   7012     1   0.10969 276646.080000
   6995   6999     1   0.10969 276646.080000
   6996   6998     1   0.10969 276646.080000
   6997   7000     1   0.10961 277566.560000
   7001   7011     1   0.09730 310787.520000
   7002   7004     1   0.09730 310787.520000
   7003   7006     1   0.10969 276646.080000
   7003   7007     1   0.10969 276646.080000
   7005   7015     1   0.10190 328360.320000
   7008   7009     1   0.09730 310787.520000
   7013   7014     1   0.09730 310787.520000
   7016   7018     1   0.10969 276646.080000
   7017   7036     1   0.10969 276646.080000
   7019   7023     1   0.10969 276646.080000
   7020   7022     1   0.10969 276646.080000
   7021   7024     1   0.10961 277566.560000
   7025   7035     1   0.09730 310787.520000
   7026   7028     1   0.09730 310787.520000
   7027   7030     1   0.10969 276646.080000
   7027   7031     1   0.10969 276646.080000
   7029   7039     1   0.10190 328360.320000
   7032   7033     1   0.09730 310787.520000
   7037   7038     1   0.09730 310787.520000
   7041   7042     1   0.10129 337397.760000
   7043   7044     1   0.10969 276646.080000
   7043   7046     1   0.10969 276646.080000
   7045   7047     1   0.10969 276646.080000
   7045   7048     1   0.10969 276646.080000
   7049   7114     1   0.10304 312293.760000
   7050   7059     1   0.10969 276646.080000
   7050   7060     1   0.10969 276646.080000
   7051   7052     1   0.10969 276646.080000
   7051   7054     1   0.10969 276646.080000
   7053   7055     1   0.10969 276646.080000
   7053   7056     1   0.10969 276646.080000
   7061   7062     1   0.10969 276646.080000
   7061   7063     1   0.10969 276646.080000
   7066   7068     1   0.10969 276646.080000
   7067   7086     1   0.10969 276646.080000
   7069   7073     1   0.10969 276646.080000
   7070   7072     1   0.10969 276646.080000
   7071   7074     1   0.10961 277566.560000
   7075   7085     1   0.09730 310787.520000
   7076   7078     1   0.09730 310787.520000
   7077   7080     1   0.10969 276646.080000
   7077   7081     1   0.10969 276646.080000
   7079   7089     1   0.10190 328360.320000
   7082   7083     1   0.09730 310787.520000
   7087   7088     1   0.09730 310787.520000
   7090   7092     1   0.10969 276646.080000
   7091   7110     1   0.10969 276646.080000
   7093   7097     1   0.10969 276646.080000
   7094   7096     1   0.10969 276646.080000
   7095   7098     1   0.10961 277566.560000
   7099   7109     1   0.09730 310787.520000
   7100   7102     1   0.09730 310787.520000
   7101   7104     1   0.10969 276646.080000
   7101   7105     1   0.10969 276646.080000
   7103   7113     1   0.10190 328360.320000
   7106   7107     1   0.09730 310787.520000
   7111   7112     1   0.09730 310787.520000
   7115   7116     1   0.10129 337397.760000
   7117   7118     1   0.10969 276646.080000
   7117   7120     1   0.10969 276646.080000
   7119   7121     1   0.10969 276646.080000
   7119   7122     1   0.10969 276646.080000
   7123   7188     1   0.10304 312293.760000
   7124   7133     1   0.10969 276646.080000
   7124   7134     1   0.10969 276646.080000
   7125   7126     1   0.10969 276646.080000
   7125   7128     1   0.10969 276646.080000
   7127   7129     1   0.10969 276646.080000
   7127   7130     1   0.10969 276646.080000
   7135   7136     1   0.10969 276646.080000
   7135   7137     1   0.10969 276646.080000
   7140   7142     1   0.10969 276646.080000
   7141   7160     1   0.10969 276646.080000
   7143   7147     1   0.10969 276646.080000
   7144   7146     1   0.10969 276646.080000
   7145   7148     1   0.10961 277566.560000
   7149   7159     1   0.09730 310787.520000
   7150   7152     1   0.09730 310787.520000
   7151   7154     1   0.10969 276646.080000
   7151   7155     1   0.10969 276646.080000
   7153   7163     1   0.10190 328360.320000
   7156   7157     1   0.09730 310787.520000
   7161   7162     1   0.09730 310787.520000
   7164   7166     1   0.10969 276646.080000
   7165   7184     1   0.10969 276646.080000
   7167   7171     1   0.10969 276646.080000
   7168   7170     1   0.10969 276646.080000
   7169   7172     1   0.10961 277566.560000
   7173   7183     1   0.09730 310787.520000
   7174   7176     1   0.09730 310787.520000
   7175   7178     1   0.10969 276646.080000
   7175   7179     1   0.10969 276646.080000
   7177   7187     1   0.10190 328360.320000
   7180   7181     1   0.09730 310787.520000
   7185   7186     1   0.09730 310787.520000
   7189   7190     1   0.10129 337397.760000
   7191   7192     1   0.10969 276646.080000
   7191   7194     1   0.10969 276646.080000
   7193   7195     1   0.10969 276646.080000
   7193   7196     1   0.10969 276646.080000
   7197   7262     1   0.10304 312293.760000
   7198   7207     1   0.10969 276646.080000
   7198   7208     1   0.10969 276646.080000
   7199   7200     1   0.10969 276646.080000
   7199   7202     1   0.10969 276646.080000
   7201   7203     1   0.10969 276646.080000
   7201   7204     1   0.10969 276646.080000
   7209   7210     1   0.10969 276646.080000
   7209   7211     1   0.10969 276646.080000
   7214   7216     1   0.10969 276646.080000
   7215   7234     1   0.10969 276646.080000
   7217   7221     1   0.10969 276646.080000
   7218   7220     1   0.10969 276646.080000
   7219   7222     1   0.10961 277566.560000
   7223   7233     1   0.09730 310787.520000
   7224   7226     1   0.09730 310787.520000
   7225   7228     1   0.10969 276646.080000
   7225   7229     1   0.10969 276646.080000
   7227   7237     1   0.10190 328360.320000
   7230   7231     1   0.09730 310787.520000
   7235   7236     1   0.09730 310787.520000
   7238   7240     1   0.10969 276646.080000
   7239   7258     1   0.10969 276646.080000
   7241   7245     1   0.10969 276646.080000
   7242   7244     1   0.10969 276646.080000
   7243   7246     1   0.10961 277566.560000
   7247   7257     1   0.09730 310787.520000
   7248   7250     1   0.09730 310787.520000
   7249   7252     1   0.10969 276646.080000
   7249   7253     1   0.10969 276646.080000
   7251   7261     1   0.10190 328360.320000
   7254   7255     1   0.09730 310787.520000
   7259   7260     1   0.09730 310787.520000
   7263   7264     1   0.10129 337397.760000
   7265   7266     1   0.10969 276646.080000
   7265   7268     1   0.10969 276646.080000
   7267   7269     1   0.10969 276646.080000
   7267   7270     1   0.10969 276646.080000
   7271   7336     1   0.10304 312293.760000
   7272   7281     1   0.10969 276646.080000
   7272   7282     1   0.10969 276646.080000
   7273   7274     1   0.10969 276646.080000
   7273   7276     1   0.10969 276646.080000
   7275   7277     1   0.10969 276646.080000
   7275   7278     1   0.10969 276646.080000
   7283   7284     1   0.10969 276646.080000
   7283   7285     1   0.10969 276646.080000
   7288   7290     1   0.10969 276646.080000
   7289   7308     1   0.10969 276646.080000
   7291   7295     1   0.10969 276646.080000
   7292   7294     1   0.10969 276646.080000
   7293   7296     1   0.10961 277566.560000
   7297   7307     1   0.09730 310787.520000
   7298   7300     1   0.09730 310787.520000
   7299   7302     1   0.10969 276646.080000
   7299   7303     1   0.10969 276646.080000
   7301   7311     1   0.10190 328360.320000
   7304   7305     1   0.09730 310787.520000
   7309   7310     1   0.09730 310787.520000
   7312   7314     1   0.10969 276646.080000
   7313   7332     1   0.10969 276646.080000
   7315   7319     1   0.10969 276646.080000
   7316   7318     1   0.10969 276646.080000
   7317   7320     1   0.10961 277566.560000
   7321   7331     1   0.09730 310787.520000
   7322   7324     1   0.09730 310787.520000
   7323   7326     1   0.10969 276646.080000
   7323   7327     1   0.10969 276646.080000
   7325   7335     1   0.10190 328360.320000
   7328   7329     1   0.09730 310787.520000
   7333   7334     1   0.09730 310787.520000
   7337   7338     1   0.10129 337397.760000
   7339   7340     1   0.10969 276646.080000
   7339   7342     1   0.10969 276646.080000
   7341   7343     1   0.10969 276646.080000
   7341   7344     1   0.10969 276646.080000
   7345   7410     1   0.10304 312293.760000
   7346   7355     1   0.10969 276646.080000
   7346   7356     1   0.10969 276646.080000
   7347   7348     1   0.10969 276646.080000
   7347   7350     1   0.10969 276646.080000
   7349   7351     1   0.10969 276646.080000
   7349   7352     1   0.10969 276646.080000
   7357   7358     1   0.10969 276646.080000
   7357   7359     1   0.10969 276646.080000
   7362   7364     1   0.10969 276646.080000
   7363   7382     1   0.10969 276646.080000
   7365   7369     1   0.10969 276646.080000
   7366   7368     1   0.10969 276646.080000
   7367   7370     1   0.10961 277566.560000
   7371   7381     1   0.09730 310787.520000
   7372   7374     1   0.09730 310787.520000
   7373   7376     1   0.10969 276646.080000
   7373   7377     1   0.10969 276646.080000
   7375   7385     1   0.10190 328360.320000
   7378   7379     1   0.09730 310787.520000
   7383   7384     1   0.09730 310787.520000
   7386   7388     1   0.10969 276646.080000
   7387   7406     1   0.10969 276646.080000
   7389   7393     1   0.10969 276646.080000
   7390   7392     1   0.10969 276646.080000
   7391   7394     1   0.10961 277566.560000
   7395   7405     1   0.09730 310787.520000
   7396   7398     1   0.09730 310787.520000
   7397   7400     1   0.10969 276646.080000
   7397   7401     1   0.10969 276646.080000
   7399   7409     1   0.10190 328360.320000
   7402   7403     1   0.09730 310787.520000
   7407   7408     1   0.09730 310787.520000
   7411   7412     1   0.10129 337397.760000
   7413   7414     1   0.10969 276646.080000
   7413   7416     1   0.10969 276646.080000
   7415   7417     1   0.10969 276646.080000
   7415   7418     1   0.10969 276646.080000
   7419   7484     1   0.10304 312293.760000
   7420   7429     1   0.10969 276646.080000
   7420   7430     1   0.10969 276646.080000
   7421   7422     1   0.10969 276646.080000
   7421   7424     1   0.10969 276646.080000
   7423   7425     1   0.10969 276646.080000
   7423   7426     1   0.10969 276646.080000
   7431   7432     1   0.10969 276646.080000
   7431   7433     1   0.10969 276646.080000
   7436   7438     1   0.10969 276646.080000
   7437   7456     1   0.10969 276646.080000
   7439   7443     1   0.10969 276646.080000
   7440   7442     1   0.10969 276646.080000
   7441   7444     1   0.10961 277566.560000
   7445   7455     1   0.09730 310787.520000
   7446   7448     1   0.09730 310787.520000
   7447   7450     1   0.10969 276646.080000
   7447   7451     1   0.10969 276646.080000
   7449   7459     1   0.10190 328360.320000
   7452   7453     1   0.09730 310787.520000
   7457   7458     1   0.09730 310787.520000
   7460   7462     1   0.10969 276646.080000
   7461   7480     1   0.10969 276646.080000
   7463   7467     1   0.10969 276646.080000
   7464   7466     1   0.10969 276646.080000
   7465   7468     1   0.10961 277566.560000
   7469   7479     1   0.09730 310787.520000
   7470   7472     1   0.09730 310787.520000
   7471   7474     1   0.10969 276646.080000
   7471   7475     1   0.10969 276646.080000
   7473   7483     1   0.10190 328360.320000
   7476   7477     1   0.09730 310787.520000
   7481   7482     1   0.09730 310787.520000
   7485   7486     1   0.10129 337397.760000
   7487   7488     1   0.10969 276646.080000
   7487   7490     1   0.10969 276646.080000
   7489   7491     1   0.10969 276646.080000
   7489   7492     1   0.10969 276646.080000
   7493   7558     1   0.10304 312293.760000
   7494   7503     1   0.10969 276646.080000
   7494   7504     1   0.10969 276646.080000
   7495   7496     1   0.10969 276646.080000
   7495   7498     1   0.10969 276646.080000
   7497   7499     1   0.10969 276646.080000
   7497   7500     1   0.10969 276646.080000
   7505   7506     1   0.10969 276646.080000
   7505   7507     1   0.10969 276646.080000
   7510   7512     1   0.10969 276646.080000
   7511   7530     1   0.10969 276646.080000
   7513   7517     1   0.10969 276646.080000
   7514   7516     1   0.10969 276646.080000
   7515   7518     1   0.10961 277566.560000
   7519   7529     1   0.09730 310787.520000
   7520   7522     1   0.09730 310787.520000
   7521   7524     1   0.10969 276646.080000
   7521   7525     1   0.10969 276646.080000
   7523   7533     1   0.10190 328360.320000
   7526   7527     1   0.09730 310787.520000
   7531   7532     1   0.09730 310787.520000
   7534   7536     1   0.10969 276646.080000
   7535   7554     1   0.10969 276646.080000
   7537   7541     1   0.10969 276646.080000
   7538   7540     1   0.10969 276646.080000
   7539   7542     1   0.10961 277566.560000
   7543   7553     1   0.09730 310787.520000
   7544   7546     1   0.09730 310787.520000
   7545   7548     1   0.10969 276646.080000
   7545   7549     1   0.10969 276646.080000
   7547   7557     1   0.10190 328360.320000
   7550   7551     1   0.09730 310787.520000
   7555   7556     1   0.09730 310787.520000
   7559   7560     1   0.10129 337397.760000
   7561   7562     1   0.10969 276646.080000
   7561   7564     1   0.10969 276646.080000
   7563   7565     1   0.10969 276646.080000
   7563   7566     1   0.10969 276646.080000
   7567   7632     1   0.10304 312293.760000
   7568   7577     1   0.10969 276646.080000
   7568   7578     1   0.10969 276646.080000
   7569   7570     1   0.10969 276646.080000
   7569   7572     1   0.10969 276646.080000
   7571   7573     1   0.10969 276646.080000
   7571   7574     1   0.10969 276646.080000
   7579   7580     1   0.10969 276646.080000
   7579   7581     1   0.10969 276646.080000
   7584   7586     1   0.10969 276646.080000
   7585   7604     1   0.10969 276646.080000
   7587   7591     1   0.10969 276646.080000
   7588   7590     1   0.10969 276646.080000
   7589   7592     1   0.10961 277566.560000
   7593   7603     1   0.09730 310787.520000
   7594   7596     1   0.09730 310787.520000
   7595   7598     1   0.10969 276646.080000
   7595   7599     1   0.10969 276646.080000
   7597   7607     1   0.10190 328360.320000
   7600   7601     1   0.09730 310787.520000
   7605   7606     1   0.09730 310787.520000
   7608   7610     1   0.10969 276646.080000
   7609   7628     1   0.10969 276646.080000
   7611   7615     1   0.10969 276646.080000
   7612   7614     1   0.10969 276646.080000
   7613   7616     1   0.10961 277566.560000
   7617   7627     1   0.09730 310787.520000
   7618   7620     1   0.09730 310787.520000
   7619   7622     1   0.10969 276646.080000
   7619   7623     1   0.10969 276646.080000
   7621   7631     1   0.10190 328360.320000
   7624   7625     1   0.09730 310787.520000
   7629   7630     1   0.09730 310787.520000
   7633   7634     1   0.10129 337397.760000
   7635   7636     1   0.10969 276646.080000
   7635   7638     1   0.10969 276646.080000
   7637   7639     1   0.10969 276646.080000
   7637   7640     1   0.10969 276646.080000
   7641   7706     1   0.10304 312293.760000
   7642   7651     1   0.10969 276646.080000
   7642   7652     1   0.10969 276646.080000
   7643   7644     1   0.10969 276646.080000
   7643   7646     1   0.10969 276646.080000
   7645   7647     1   0.10969 276646.080000
   7645   7648     1   0.10969 276646.080000
   7653   7654     1   0.10969 276646.080000
   7653   7655     1   0.10969 276646.080000
   7658   7660     1   0.10969 276646.080000
   7659   7678     1   0.10969 276646.080000
   7661   7665     1   0.10969 276646.080000
   7662   7664     1   0.10969 276646.080000
   7663   7666     1   0.10961 277566.560000
   7667   7677     1   0.09730 310787.520000
   7668   7670     1   0.09730 310787.520000
   7669   7672     1   0.10969 276646.080000
   7669   7673     1   0.10969 276646.080000
   7671   7681     1   0.10190 328360.320000
   7674   7675     1   0.09730 310787.520000
   7679   7680     1   0.09730 310787.520000
   7682   7684     1   0.10969 276646.080000
   7683   7702     1   0.10969 276646.080000
   7685   7689     1   0.10969 276646.080000
   7686   7688     1   0.10969 276646.080000
   7687   7690     1   0.10961 277566.560000
   7691   7701     1   0.09730 310787.520000
   7692   7694     1   0.09730 310787.520000
   7693   7696     1   0.10969 276646.080000
   7693   7697     1   0.10969 276646.080000
   7695   7705     1   0.10190 328360.320000
   7698   7699     1   0.09730 310787.520000
   7703   7704     1   0.09730 310787.520000
   7707   7708     1   0.10129 337397.760000
   7709   7710     1   0.10969 276646.080000
   7709   7712     1   0.10969 276646.080000
   7711   7713     1   0.10969 276646.080000
   7711   7714     1   0.10969 276646.080000
   7715   7780     1   0.10304 312293.760000
   7716   7725     1   0.10969 276646.080000
   7716   7726     1   0.10969 276646.080000
   7717   7718     1   0.10969 276646.080000
   7717   7720     1   0.10969 276646.080000
   7719   7721     1   0.10969 276646.080000
   7719   7722     1   0.10969 276646.080000
   7727   7728     1   0.10969 276646.080000
   7727   7729     1   0.10969 276646.080000
   7732   7734     1   0.10969 276646.080000
   7733   7752     1   0.10969 276646.080000
   7735   7739     1   0.10969 276646.080000
   7736   7738     1   0.10969 276646.080000
   7737   7740     1   0.10961 277566.560000
   7741   7751     1   0.09730 310787.520000
   7742   7744     1   0.09730 310787.520000
   7743   7746     1   0.10969 276646.080000
   7743   7747     1   0.10969 276646.080000
   7745   7755     1   0.10190 328360.320000
   7748   7749     1   0.09730 310787.520000
   7753   7754     1   0.09730 310787.520000
   7756   7758     1   0.10969 276646.080000
   7757   7776     1   0.10969 276646.080000
   7759   7763     1   0.10969 276646.080000
   7760   7762     1   0.10969 276646.080000
   7761   7764     1   0.10961 277566.560000
   7765   7775     1   0.09730 310787.520000
   7766   7768     1   0.09730 310787.520000
   7767   7770     1   0.10969 276646.080000
   7767   7771     1   0.10969 276646.080000
   7769   7779     1   0.10190 328360.320000
   7772   7773     1   0.09730 310787.520000
   7777   7778     1   0.09730 310787.520000
   7781   7782     1   0.10129 337397.760000
   7783   7784     1   0.10969 276646.080000
   7783   7786     1   0.10969 276646.080000
   7785   7787     1   0.10969 276646.080000
   7785   7788     1   0.10969 276646.080000
   7789   7854     1   0.10304 312293.760000
   7790   7799     1   0.10969 276646.080000
   7790   7800     1   0.10969 276646.080000
   7791   7792     1   0.10969 276646.080000
   7791   7794     1   0.10969 276646.080000
   7793   7795     1   0.10969 276646.080000
   7793   7796     1   0.10969 276646.080000
   7801   7802     1   0.10969 276646.080000
   7801   7803     1   0.10969 276646.080000
   7806   7808     1   0.10969 276646.080000
   7807   7826     1   0.10969 276646.080000
   7809   7813     1   0.10969 276646.080000
   7810   7812     1   0.10969 276646.080000
   7811   7814     1   0.10961 277566.560000
   7815   7825     1   0.09730 310787.520000
   7816   7818     1   0.09730 310787.520000
   7817   7820     1   0.10969 276646.080000
   7817   7821     1   0.10969 276646.080000
   7819   7829     1   0.10190 328360.320000
   7822   7823     1   0.09730 310787.520000
   7827   7828     1   0.09730 310787.520000
   7830   7832     1   0.10969 276646.080000
   7831   7850     1   0.10969 276646.080000
   7833   7837     1   0.10969 276646.080000
   7834   7836     1   0.10969 276646.080000
   7835   7838     1   0.10961 277566.560000
   7839   7849     1   0.09730 310787.520000
   7840   7842     1   0.09730 310787.520000
   7841   7844     1   0.10969 276646.080000
   7841   7845     1   0.10969 276646.080000
   7843   7853     1   0.10190 328360.320000
   7846   7847     1   0.09730 310787.520000
   7851   7852     1   0.09730 310787.520000
   7855   7856     1   0.10129 337397.760000
   7857   7858     1   0.10969 276646.080000
   7857   7860     1   0.10969 276646.080000
   7859   7861     1   0.10969 276646.080000
   7859   7862     1   0.10969 276646.080000
   7863   7928     1   0.10304 312293.760000
   7864   7873     1   0.10969 276646.080000
   7864   7874     1   0.10969 276646.080000
   7865   7866     1   0.10969 276646.080000
   7865   7868     1   0.10969 276646.080000
   7867   7869     1   0.10969 276646.080000
   7867   7870     1   0.10969 276646.080000
   7875   7876     1   0.10969 276646.080000
   7875   7877     1   0.10969 276646.080000
   7880   7882     1   0.10969 276646.080000
   7881   7900     1   0.10969 276646.080000
   7883   7887     1   0.10969 276646.080000
   7884   7886     1   0.10969 276646.080000
   7885   7888     1   0.10961 277566.560000
   7889   7899     1   0.09730 310787.520000
   7890   7892     1   0.09730 310787.520000
   7891   7894     1   0.10969 276646.080000
   7891   7895     1   0.10969 276646.080000
   7893   7903     1   0.10190 328360.320000
   7896   7897     1   0.09730 310787.520000
   7901   7902     1   0.09730 310787.520000
   7904   7906     1   0.10969 276646.080000
   7905   7924     1   0.10969 276646.080000
   7907   7911     1   0.10969 276646.080000
   7908   7910     1   0.10969 276646.080000
   7909   7912     1   0.10961 277566.560000
   7913   7923     1   0.09730 310787.520000
   7914   7916     1   0.09730 310787.520000
   7915   7918     1   0.10969 276646.080000
   7915   7919     1   0.10969 276646.080000
   7917   7927     1   0.10190 328360.320000
   7920   7921     1   0.09730 310787.520000
   7925   7926     1   0.09730 310787.520000
   7929   7930     1   0.10129 337397.760000
   7931   7932     1   0.10969 276646.080000
   7931   7934     1   0.10969 276646.080000
   7933   7935     1   0.10969 276646.080000
   7933   7936     1   0.10969 276646.080000
   7937   8002     1   0.10304 312293.760000
   7938   7947     1   0.10969 276646.080000
   7938   7948     1   0.10969 276646.080000
   7939   7940     1   0.10969 276646.080000
   7939   7942     1   0.10969 276646.080000
   7941   7943     1   0.10969 276646.080000
   7941   7944     1   0.10969 276646.080000
   7949   7950     1   0.10969 276646.080000
   7949   7951     1   0.10969 276646.080000
   7954   7956     1   0.10969 276646.080000
   7955   7974     1   0.10969 276646.080000
   7957   7961     1   0.10969 276646.080000
   7958   7960     1   0.10969 276646.080000
   7959   7962     1   0.10961 277566.560000
   7963   7973     1   0.09730 310787.520000
   7964   7966     1   0.09730 310787.520000
   7965   7968     1   0.10969 276646.080000
   7965   7969     1   0.10969 276646.080000
   7967   7977     1   0.10190 328360.320000
   7970   7971     1   0.09730 310787.520000
   7975   7976     1   0.09730 310787.520000
   7978   7980     1   0.10969 276646.080000
   7979   7998     1   0.10969 276646.080000
   7981   7985     1   0.10969 276646.080000
   7982   7984     1   0.10969 276646.080000
   7983   7986     1   0.10961 277566.560000
   7987   7997     1   0.09730 310787.520000
   7988   7990     1   0.09730 310787.520000
   7989   7992     1   0.10969 276646.080000
   7989   7993     1   0.10969 276646.080000
   7991   8001     1   0.10190 328360.320000
   7994   7995     1   0.09730 310787.520000
   7999   8000     1   0.09730 310787.520000
   8003   8004     1   0.10129 337397.760000
   8005   8006     1   0.10969 276646.080000
   8005   8008     1   0.10969 276646.080000
   8007   8009     1   0.10969 276646.080000
   8007   8010     1   0.10969 276646.080000
   8011   8076     1   0.10304 312293.760000
   8012   8021     1   0.10969 276646.080000
   8012   8022     1   0.10969 276646.080000
   8013   8014     1   0.10969 276646.080000
   8013   8016     1   0.10969 276646.080000
   8015   8017     1   0.10969 276646.080000
   8015   8018     1   0.10969 276646.080000
   8023   8024     1   0.10969 276646.080000
   8023   8025     1   0.10969 276646.080000
   8028   8030     1   0.10969 276646.080000
   8029   8048     1   0.10969 276646.080000
   8031   8035     1   0.10969 276646.080000
   8032   8034     1   0.10969 276646.080000
   8033   8036     1   0.10961 277566.560000
   8037   8047     1   0.09730 310787.520000
   8038   8040     1   0.09730 310787.520000
   8039   8042     1   0.10969 276646.080000
   8039   8043     1   0.10969 276646.080000
   8041   8051     1   0.10190 328360.320000
   8044   8045     1   0.09730 310787.520000
   8049   8050     1   0.09730 310787.520000
   8052   8054     1   0.10969 276646.080000
   8053   8072     1   0.10969 276646.080000
   8055   8059     1   0.10969 276646.080000
   8056   8058     1   0.10969 276646.080000
   8057   8060     1   0.10961 277566.560000
   8061   8071     1   0.09730 310787.520000
   8062   8064     1   0.09730 310787.520000
   8063   8066     1   0.10969 276646.080000
   8063   8067     1   0.10969 276646.080000
   8065   8075     1   0.10190 328360.320000
   8068   8069     1   0.09730 310787.520000
   8073   8074     1   0.09730 310787.520000
   8077   8078     1   0.10129 337397.760000
   8079   8080     1   0.10969 276646.080000
   8079   8082     1   0.10969 276646.080000
   8081   8083     1   0.10969 276646.080000
   8081   8084     1   0.10969 276646.080000
   8085   8150     1   0.10304 312293.760000
   8086   8095     1   0.10969 276646.080000
   8086   8096     1   0.10969 276646.080000
   8087   8088     1   0.10969 276646.080000
   8087   8090     1   0.10969 276646.080000
   8089   8091     1   0.10969 276646.080000
   8089   8092     1   0.10969 276646.080000
   8097   8098     1   0.10969 276646.080000
   8097   8099     1   0.10969 276646.080000
   8102   8104     1   0.10969 276646.080000
   8103   8122     1   0.10969 276646.080000
   8105   8109     1   0.10969 276646.080000
   8106   8108     1   0.10969 276646.080000
   8107   8110     1   0.10961 277566.560000
   8111   8121     1   0.09730 310787.520000
   8112   8114     1   0.09730 310787.520000
   8113   8116     1   0.10969 276646.080000
   8113   8117     1   0.10969 276646.080000
   8115   8125     1   0.10190 328360.320000
   8118   8119     1   0.09730 310787.520000
   8123   8124     1   0.09730 310787.520000
   8126   8128     1   0.10969 276646.080000
   8127   8146     1   0.10969 276646.080000
   8129   8133     1   0.10969 276646.080000
   8130   8132     1   0.10969 276646.080000
   8131   8134     1   0.10961 277566.560000
   8135   8145     1   0.09730 310787.520000
   8136   8138     1   0.09730 310787.520000
   8137   8140     1   0.10969 276646.080000
   8137   8141     1   0.10969 276646.080000
   8139   8149     1   0.10190 328360.320000
   8142   8143     1   0.09730 310787.520000
   8147   8148     1   0.09730 310787.520000
   8151   8152     1   0.10129 337397.760000
   8153   8154     1   0.10969 276646.080000
   8153   8156     1   0.10969 276646.080000
   8155   8157     1   0.10969 276646.080000
   8155   8158     1   0.10969 276646.080000
   8159   8224     1   0.10304 312293.760000
   8160   8169     1   0.10969 276646.080000
   8160   8170     1   0.10969 276646.080000
   8161   8162     1   0.10969 276646.080000
   8161   8164     1   0.10969 276646.080000
   8163   8165     1   0.10969 276646.080000
   8163   8166     1   0.10969 276646.080000
   8171   8172     1   0.10969 276646.080000
   8171   8173     1   0.10969 276646.080000
   8176   8178     1   0.10969 276646.080000
   8177   8196     1   0.10969 276646.080000
   8179   8183     1   0.10969 276646.080000
   8180   8182     1   0.10969 276646.080000
   8181   8184     1   0.10961 277566.560000
   8185   8195     1   0.09730 310787.520000
   8186   8188     1   0.09730 310787.520000
   8187   8190     1   0.10969 276646.080000
   8187   8191     1   0.10969 276646.080000
   8189   8199     1   0.10190 328360.320000
   8192   8193     1   0.09730 310787.520000
   8197   8198     1   0.09730 310787.520000
   8200   8202     1   0.10969 276646.080000
   8201   8220     1   0.10969 276646.080000
   8203   8207     1   0.10969 276646.080000
   8204   8206     1   0.10969 276646.080000
   8205   8208     1   0.10961 277566.560000
   8209   8219     1   0.09730 310787.520000
   8210   8212     1   0.09730 310787.520000
   8211   8214     1   0.10969 276646.080000
   8211   8215     1   0.10969 276646.080000
   8213   8223     1   0.10190 328360.320000
   8216   8217     1   0.09730 310787.520000
   8221   8222     1   0.09730 310787.520000
   8225   8226     1   0.10129 337397.760000
   8227   8228     1   0.10969 276646.080000
   8227   8230     1   0.10969 276646.080000
   8229   8231     1   0.10969 276646.080000
   8229   8232     1   0.10969 276646.080000
   8233   8298     1   0.10304 312293.760000
   8234   8243     1   0.10969 276646.080000
   8234   8244     1   0.10969 276646.080000
   8235   8236     1   0.10969 276646.080000
   8235   8238     1   0.10969 276646.080000
   8237   8239     1   0.10969 276646.080000
   8237   8240     1   0.10969 276646.080000
   8245   8246     1   0.10969 276646.080000
   8245   8247     1   0.10969 276646.080000
   8250   8252     1   0.10969 276646.080000
   8251   8270     1   0.10969 276646.080000
   8253   8257     1   0.10969 276646.080000
   8254   8256     1   0.10969 276646.080000
   8255   8258     1   0.10961 277566.560000
   8259   8269     1   0.09730 310787.520000
   8260   8262     1   0.09730 310787.520000
   8261   8264     1   0.10969 276646.080000
   8261   8265     1   0.10969 276646.080000
   8263   8273     1   0.10190 328360.320000
   8266   8267     1   0.09730 310787.520000
   8271   8272     1   0.09730 310787.520000
   8274   8276     1   0.10969 276646.080000
   8275   8294     1   0.10969 276646.080000
   8277   8281     1   0.10969 276646.080000
   8278   8280     1   0.10969 276646.080000
   8279   8282     1   0.10961 277566.560000
   8283   8293     1   0.09730 310787.520000
   8284   8286     1   0.09730 310787.520000
   8285   8288     1   0.10969 276646.080000
   8285   8289     1   0.10969 276646.080000
   8287   8297     1   0.10190 328360.320000
   8290   8291     1   0.09730 310787.520000
   8295   8296     1   0.09730 310787.520000
   8299   8300     1   0.10129 337397.760000
   8301   8302     1   0.10969 276646.080000
   8301   8304     1   0.10969 276646.080000
   8303   8305     1   0.10969 276646.080000
   8303   8306     1   0.10969 276646.080000
   8307   8372     1   0.10304 312293.760000
   8308   8317     1   0.10969 276646.080000
   8308   8318     1   0.10969 276646.080000
   8309   8310     1   0.10969 276646.080000
   8309   8312     1   0.10969 276646.080000
   8311   8313     1   0.10969 276646.080000
   8311   8314     1   0.10969 276646.080000
   8319   8320     1   0.10969 276646.080000
   8319   8321     1   0.10969 276646.080000
   8324   8326     1   0.10969 276646.080000
   8325   8344     1   0.10969 276646.080000
   8327   8331     1   0.10969 276646.080000
   8328   8330     1   0.10969 276646.080000
   8329   8332     1   0.10961 277566.560000
   8333   8343     1   0.09730 310787.520000
   8334   8336     1   0.09730 310787.520000
   8335   8338     1   0.10969 276646.080000
   8335   8339     1   0.10969 276646.080000
   8337   8347     1   0.10190 328360.320000
   8340   8341     1   0.09730 310787.520000
   8345   8346     1   0.09730 310787.520000
   8348   8350     1   0.10969 276646.080000
   8349   8368     1   0.10969 276646.080000
   8351   8355     1   0.10969 276646.080000
   8352   8354     1   0.10969 276646.080000
   8353   8356     1   0.10961 277566.560000
   8357   8367     1   0.09730 310787.520000
   8358   8360     1   0.09730 310787.520000
   8359   8362     1   0.10969 276646.080000
   8359   8363     1   0.10969 276646.080000
   8361   8371     1   0.10190 328360.320000
   8364   8365     1   0.09730 310787.520000
   8369   8370     1   0.09730 310787.520000
   8373   8374     1   0.10129 337397.760000
   8375   8376     1   0.10969 276646.080000
   8375   8378     1   0.10969 276646.080000
   8377   8379     1   0.10969 276646.080000
   8377   8380     1   0.10969 276646.080000
   8381   8446     1   0.10304 312293.760000
   8382   8391     1   0.10969 276646.080000
   8382   8392     1   0.10969 276646.080000
   8383   8384     1   0.10969 276646.080000
   8383   8386     1   0.10969 276646.080000
   8385   8387     1   0.10969 276646.080000
   8385   8388     1   0.10969 276646.080000
   8393   8394     1   0.10969 276646.080000
   8393   8395     1   0.10969 276646.080000
   8398   8400     1   0.10969 276646.080000
   8399   8418     1   0.10969 276646.080000
   8401   8405     1   0.10969 276646.080000
   8402   8404     1   0.10969 276646.080000
   8403   8406     1   0.10961 277566.560000
   8407   8417     1   0.09730 310787.520000
   8408   8410     1   0.09730 310787.520000
   8409   8412     1   0.10969 276646.080000
   8409   8413     1   0.10969 276646.080000
   8411   8421     1   0.10190 328360.320000
   8414   8415     1   0.09730 310787.520000
   8419   8420     1   0.09730 310787.520000
   8422   8424     1   0.10969 276646.080000
   8423   8442     1   0.10969 276646.080000
   8425   8429     1   0.10969 276646.080000
   8426   8428     1   0.10969 276646.080000
   8427   8430     1   0.10961 277566.560000
   8431   8441     1   0.09730 310787.520000
   8432   8434     1   0.09730 310787.520000
   8433   8436     1   0.10969 276646.080000
   8433   8437     1   0.10969 276646.080000
   8435   8445     1   0.10190 328360.320000
   8438   8439     1   0.09730 310787.520000
   8443   8444     1   0.09730 310787.520000
   8447   8448     1   0.10129 337397.760000
   8449   8450     1   0.10969 276646.080000
   8449   8452     1   0.10969 276646.080000
   8451   8453     1   0.10969 276646.080000
   8451   8454     1   0.10969 276646.080000
   8455   8520     1   0.10304 312293.760000
   8456   8465     1   0.10969 276646.080000
   8456   8466     1   0.10969 276646.080000
   8457   8458     1   0.10969 276646.080000
   8457   8460     1   0.10969 276646.080000
   8459   8461     1   0.10969 276646.080000
   8459   8462     1   0.10969 276646.080000
   8467   8468     1   0.10969 276646.080000
   8467   8469     1   0.10969 276646.080000
   8472   8474     1   0.10969 276646.080000
   8473   8492     1   0.10969 276646.080000
   8475   8479     1   0.10969 276646.080000
   8476   8478     1   0.10969 276646.080000
   8477   8480     1   0.10961 277566.560000
   8481   8491     1   0.09730 310787.520000
   8482   8484     1   0.09730 310787.520000
   8483   8486     1   0.10969 276646.080000
   8483   8487     1   0.10969 276646.080000
   8485   8495     1   0.10190 328360.320000
   8488   8489     1   0.09730 310787.520000
   8493   8494     1   0.09730 310787.520000
   8496   8498     1   0.10969 276646.080000
   8497   8516     1   0.10969 276646.080000
   8499   8503     1   0.10969 276646.080000
   8500   8502     1   0.10969 276646.080000
   8501   8504     1   0.10961 277566.560000
   8505   8515     1   0.09730 310787.520000
   8506   8508     1   0.09730 310787.520000
   8507   8510     1   0.10969 276646.080000
   8507   8511     1   0.10969 276646.080000
   8509   8519     1   0.10190 328360.320000
   8512   8513     1   0.09730 310787.520000
   8517   8518     1   0.09730 310787.520000
   8521   8522     1   0.10129 337397.760000
   8523   8524     1   0.10969 276646.080000
   8523   8526     1   0.10969 276646.080000
   8525   8527     1   0.10969 276646.080000
   8525   8528     1   0.10969 276646.080000
   8529   8594     1   0.10304 312293.760000
   8530   8539     1   0.10969 276646.080000
   8530   8540     1   0.10969 276646.080000
   8531   8532     1   0.10969 276646.080000
   8531   8534     1   0.10969 276646.080000
   8533   8535     1   0.10969 276646.080000
   8533   8536     1   0.10969 276646.080000
   8541   8542     1   0.10969 276646.080000
   8541   8543     1   0.10969 276646.080000
   8546   8548     1   0.10969 276646.080000
   8547   8566     1   0.10969 276646.080000
   8549   8553     1   0.10969 276646.080000
   8550   8552     1   0.10969 276646.080000
   8551   8554     1   0.10961 277566.560000
   8555   8565     1   0.09730 310787.520000
   8556   8558     1   0.09730 310787.520000
   8557   8560     1   0.10969 276646.080000
   8557   8561     1   0.10969 276646.080000
   8559   8569     1   0.10190 328360.320000
   8562   8563     1   0.09730 310787.520000
   8567   8568     1   0.09730 310787.520000
   8570   8572     1   0.10969 276646.080000
   8571   8590     1   0.10969 276646.080000
   8573   8577     1   0.10969 276646.080000
   8574   8576     1   0.10969 276646.080000
   8575   8578     1   0.10961 277566.560000
   8579   8589     1   0.09730 310787.520000
   8580   8582     1   0.09730 310787.520000
   8581   8584     1   0.10969 276646.080000
   8581   8585     1   0.10969 276646.080000
   8583   8593     1   0.10190 328360.320000
   8586   8587     1   0.09730 310787.520000
   8591   8592     1   0.09730 310787.520000
   8595   8596     1   0.10129 337397.760000
   8597   8598     1   0.10969 276646.080000
   8597   8600     1   0.10969 276646.080000
   8599   8601     1   0.10969 276646.080000
   8599   8602     1   0.10969 276646.080000
   8603   8668     1   0.10304 312293.760000
   8604   8613     1   0.10969 276646.080000
   8604   8614     1   0.10969 276646.080000
   8605   8606     1   0.10969 276646.080000
   8605   8608     1   0.10969 276646.080000
   8607   8609     1   0.10969 276646.080000
   8607   8610     1   0.10969 276646.080000
   8615   8616     1   0.10969 276646.080000
   8615   8617     1   0.10969 276646.080000
   8620   8622     1   0.10969 276646.080000
   8621   8640     1   0.10969 276646.080000
   8623   8627     1   0.10969 276646.080000
   8624   8626     1   0.10969 276646.080000
   8625   8628     1   0.10961 277566.560000
   8629   8639     1   0.09730 310787.520000
   8630   8632     1   0.09730 310787.520000
   8631   8634     1   0.10969 276646.080000
   8631   8635     1   0.10969 276646.080000
   8633   8643     1   0.10190 328360.320000
   8636   8637     1   0.09730 310787.520000
   8641   8642     1   0.09730 310787.520000
   8644   8646     1   0.10969 276646.080000
   8645   8664     1   0.10969 276646.080000
   8647   8651     1   0.10969 276646.080000
   8648   8650     1   0.10969 276646.080000
   8649   8652     1   0.10961 277566.560000
   8653   8663     1   0.09730 310787.520000
   8654   8656     1   0.09730 310787.520000
   8655   8658     1   0.10969 276646.080000
   8655   8659     1   0.10969 276646.080000
   8657   8667     1   0.10190 328360.320000
   8660   8661     1   0.09730 310787.520000
   8665   8666     1   0.09730 310787.520000
   8669   8670     1   0.10129 337397.760000
   8671   8672     1   0.10969 276646.080000
   8671   8674     1   0.10969 276646.080000
   8673   8675     1   0.10969 276646.080000
   8673   8676     1   0.10969 276646.080000
   8677   8742     1   0.10304 312293.760000
   8678   8687     1   0.10969 276646.080000
   8678   8688     1   0.10969 276646.080000
   8679   8680     1   0.10969 276646.080000
   8679   8682     1   0.10969 276646.080000
   8681   8683     1   0.10969 276646.080000
   8681   8684     1   0.10969 276646.080000
   8689   8690     1   0.10969 276646.080000
   8689   8691     1   0.10969 276646.080000
   8694   8696     1   0.10969 276646.080000
   8695   8714     1   0.10969 276646.080000
   8697   8701     1   0.10969 276646.080000
   8698   8700     1   0.10969 276646.080000
   8699   8702     1   0.10961 277566.560000
   8703   8713     1   0.09730 310787.520000
   8704   8706     1   0.09730 310787.520000
   8705   8708     1   0.10969 276646.080000
   8705   8709     1   0.10969 276646.080000
   8707   8717     1   0.10190 328360.320000
   8710   8711     1   0.09730 310787.520000
   8715   8716     1   0.09730 310787.520000
   8718   8720     1   0.10969 276646.080000
   8719   8738     1   0.10969 276646.080000
   8721   8725     1   0.10969 276646.080000
   8722   8724     1   0.10969 276646.080000
   8723   8726     1   0.10961 277566.560000
   8727   8737     1   0.09730 310787.520000
   8728   8730     1   0.09730 310787.520000
   8729   8732     1   0.10969 276646.080000
   8729   8733     1   0.10969 276646.080000
   8731   8741     1   0.10190 328360.320000
   8734   8735     1   0.09730 310787.520000
   8739   8740     1   0.09730 310787.520000
   8743   8744     1   0.10129 337397.760000
   8745   8746     1   0.10969 276646.080000
   8745   8748     1   0.10969 276646.080000
   8747   8749     1   0.10969 276646.080000
   8747   8750     1   0.10969 276646.080000
   8751   8816     1   0.10304 312293.760000
   8752   8761     1   0.10969 276646.080000
   8752   8762     1   0.10969 276646.080000
   8753   8754     1   0.10969 276646.080000
   8753   8756     1   0.10969 276646.080000
   8755   8757     1   0.10969 276646.080000
   8755   8758     1   0.10969 276646.080000
   8763   8764     1   0.10969 276646.080000
   8763   8765     1   0.10969 276646.080000
   8768   8770     1   0.10969 276646.080000
   8769   8788     1   0.10969 276646.080000
   8771   8775     1   0.10969 276646.080000
   8772   8774     1   0.10969 276646.080000
   8773   8776     1   0.10961 277566.560000
   8777   8787     1   0.09730 310787.520000
   8778   8780     1   0.09730 310787.520000
   8779   8782     1   0.10969 276646.080000
   8779   8783     1   0.10969 276646.080000
   8781   8791     1   0.10190 328360.320000
   8784   8785     1   0.09730 310787.520000
   8789   8790     1   0.09730 310787.520000
   8792   8794     1   0.10969 276646.080000
   8793   8812     1   0.10969 276646.080000
   8795   8799     1   0.10969 276646.080000
   8796   8798     1   0.10969 276646.080000
   8797   8800     1   0.10961 277566.560000
   8801   8811     1   0.09730 310787.520000
   8802   8804     1   0.09730 310787.520000
   8803   8806     1   0.10969 276646.080000
   8803   8807     1   0.10969 276646.080000
   8805   8815     1   0.10190 328360.320000
   8808   8809     1   0.09730 310787.520000
   8813   8814     1   0.09730 310787.520000
   8817   8818     1   0.10129 337397.760000
   8819   8820     1   0.10969 276646.080000
   8819   8822     1   0.10969 276646.080000
   8821   8823     1   0.10969 276646.080000
   8821   8824     1   0.10969 276646.080000
   8825   8890     1   0.10304 312293.760000
   8826   8835     1   0.10969 276646.080000
   8826   8836     1   0.10969 276646.080000
   8827   8828     1   0.10969 276646.080000
   8827   8830     1   0.10969 276646.080000
   8829   8831     1   0.10969 276646.080000
   8829   8832     1   0.10969 276646.080000
   8837   8838     1   0.10969 276646.080000
   8837   8839     1   0.10969 276646.080000
   8842   8844     1   0.10969 276646.080000
   8843   8862     1   0.10969 276646.080000
   8845   8849     1   0.10969 276646.080000
   8846   8848     1   0.10969 276646.080000
   8847   8850     1   0.10961 277566.560000
   8851   8861     1   0.09730 310787.520000
   8852   8854     1   0.09730 310787.520000
   8853   8856     1   0.10969 276646.080000
   8853   8857     1   0.10969 276646.080000
   8855   8865     1   0.10190 328360.320000
   8858   8859     1   0.09730 310787.520000
   8863   8864     1   0.09730 310787.520000
   8866   8868     1   0.10969 276646.080000
   8867   8886     1   0.10969 276646.080000
   8869   8873     1   0.10969 276646.080000
   8870   8872     1   0.10969 276646.080000
   8871   8874     1   0.10961 277566.560000
   8875   8885     1   0.09730 310787.520000
   8876   8878     1   0.09730 310787.520000
   8877   8880     1   0.10969 276646.080000
   8877   8881     1   0.10969 276646.080000
   8879   8889     1   0.10190 328360.320000
   8882   8883     1   0.09730 310787.520000
   8887   8888     1   0.09730 310787.520000
   8891   8892     1   0.10129 337397.760000
   8893   8894     1   0.10969 276646.080000
   8893   8896     1   0.10969 276646.080000
   8895   8897     1   0.10969 276646.080000
   8895   8898     1   0.10969 276646.080000
   8899   8964     1   0.10304 312293.760000
   8900   8909     1   0.10969 276646.080000
   8900   8910     1   0.10969 276646.080000
   8901   8902     1   0.10969 276646.080000
   8901   8904     1   0.10969 276646.080000
   8903   8905     1   0.10969 276646.080000
   8903   8906     1   0.10969 276646.080000
   8911   8912     1   0.10969 276646.080000
   8911   8913     1   0.10969 276646.080000
   8916   8918     1   0.10969 276646.080000
   8917   8936     1   0.10969 276646.080000
   8919   8923     1   0.10969 276646.080000
   8920   8922     1   0.10969 276646.080000
   8921   8924     1   0.10961 277566.560000
   8925   8935     1   0.09730 310787.520000
   8926   8928     1   0.09730 310787.520000
   8927   8930     1   0.10969 276646.080000
   8927   8931     1   0.10969 276646.080000
   8929   8939     1   0.10190 328360.320000
   8932   8933     1   0.09730 310787.520000
   8937   8938     1   0.09730 310787.520000
   8940   8942     1   0.10969 276646.080000
   8941   8960     1   0.10969 276646.080000
   8943   8947     1   0.10969 276646.080000
   8944   8946     1   0.10969 276646.080000
   8945   8948     1   0.10961 277566.560000
   8949   8959     1   0.09730 310787.520000
   8950   8952     1   0.09730 310787.520000
   8951   8954     1   0.10969 276646.080000
   8951   8955     1   0.10969 276646.080000
   8953   8963     1   0.10190 328360.320000
   8956   8957     1   0.09730 310787.520000
   8961   8962     1   0.09730 310787.520000
   8965   8966     1   0.10129 337397.760000
   8967   8968     1   0.10969 276646.080000
   8967   8970     1   0.10969 276646.080000
   8969   8971     1   0.10969 276646.080000
   8969   8972     1   0.10969 276646.080000
   8973   9038     1   0.10304 312293.760000
   8974   8983     1   0.10969 276646.080000
   8974   8984     1   0.10969 276646.080000
   8975   8976     1   0.10969 276646.080000
   8975   8978     1   0.10969 276646.080000
   8977   8979     1   0.10969 276646.080000
   8977   8980     1   0.10969 276646.080000
   8985   8986     1   0.10969 276646.080000
   8985   8987     1   0.10969 276646.080000
   8990   8992     1   0.10969 276646.080000
   8991   9010     1   0.10969 276646.080000
   8993   8997     1   0.10969 276646.080000
   8994   8996     1   0.10969 276646.080000
   8995   8998     1   0.10961 277566.560000
   8999   9009     1   0.09730 310787.520000
   9000   9002     1   0.09730 310787.520000
   9001   9004     1   0.10969 276646.080000
   9001   9005     1   0.10969 276646.080000
   9003   9013     1   0.10190 328360.320000
   9006   9007     1   0.09730 310787.520000
   9011   9012     1   0.09730 310787.520000
   9014   9016     1   0.10969 276646.080000
   9015   9034     1   0.10969 276646.080000
   9017   9021     1   0.10969 276646.080000
   9018   9020     1   0.10969 276646.080000
   9019   9022     1   0.10961 277566.560000
   9023   9033     1   0.09730 310787.520000
   9024   9026     1   0.09730 310787.520000
   9025   9028     1   0.10969 276646.080000
   9025   9029     1   0.10969 276646.080000
   9027   9037     1   0.10190 328360.320000
   9030   9031     1   0.09730 310787.520000
   9035   9036     1   0.09730 310787.520000
   9039   9040     1   0.10129 337397.760000
   9041   9042     1   0.10969 276646.080000
   9041   9044     1   0.10969 276646.080000
   9043   9045     1   0.10969 276646.080000
   9043   9046     1   0.10969 276646.080000
   9047   9112     1   0.10304 312293.760000
   9048   9057     1   0.10969 276646.080000
   9048   9058     1   0.10969 276646.080000
   9049   9050     1   0.10969 276646.080000
   9049   9052     1   0.10969 276646.080000
   9051   9053     1   0.10969 276646.080000
   9051   9054     1   0.10969 276646.080000
   9059   9060     1   0.10969 276646.080000
   9059   9061     1   0.10969 276646.080000
   9064   9066     1   0.10969 276646.080000
   9065   9084     1   0.10969 276646.080000
   9067   9071     1   0.10969 276646.080000
   9068   9070     1   0.10969 276646.080000
   9069   9072     1   0.10961 277566.560000
   9073   9083     1   0.09730 310787.520000
   9074   9076     1   0.09730 310787.520000
   9075   9078     1   0.10969 276646.080000
   9075   9079     1   0.10969 276646.080000
   9077   9087     1   0.10190 328360.320000
   9080   9081     1   0.09730 310787.520000
   9085   9086     1   0.09730 310787.520000
   9088   9090     1   0.10969 276646.080000
   9089   9108     1   0.10969 276646.080000
   9091   9095     1   0.10969 276646.080000
   9092   9094     1   0.10969 276646.080000
   9093   9096     1   0.10961 277566.560000
   9097   9107     1   0.09730 310787.520000
   9098   9100     1   0.09730 310787.520000
   9099   9102     1   0.10969 276646.080000
   9099   9103     1   0.10969 276646.080000
   9101   9111     1   0.10190 328360.320000
   9104   9105     1   0.09730 310787.520000
   9109   9110     1   0.09730 310787.520000
   9113   9114     1   0.10129 337397.760000
   9115   9116     1   0.10969 276646.080000
   9115   9118     1   0.10969 276646.080000
   9117   9119     1   0.10969 276646.080000
   9117   9120     1   0.10969 276646.080000
   9121   9186     1   0.10304 312293.760000
   9122   9131     1   0.10969 276646.080000
   9122   9132     1   0.10969 276646.080000
   9123   9124     1   0.10969 276646.080000
   9123   9126     1   0.10969 276646.080000
   9125   9127     1   0.10969 276646.080000
   9125   9128     1   0.10969 276646.080000
   9133   9134     1   0.10969 276646.080000
   9133   9135     1   0.10969 276646.080000
   9138   9140     1   0.10969 276646.080000
   9139   9158     1   0.10969 276646.080000
   9141   9145     1   0.10969 276646.080000
   9142   9144     1   0.10969 276646.080000
   9143   9146     1   0.10961 277566.560000
   9147   9157     1   0.09730 310787.520000
   9148   9150     1   0.09730 310787.520000
   9149   9152     1   0.10969 276646.080000
   9149   9153     1   0.10969 276646.080000
   9151   9161     1   0.10190 328360.320000
   9154   9155     1   0.09730 310787.520000
   9159   9160     1   0.09730 310787.520000
   9162   9164     1   0.10969 276646.080000
   9163   9182     1   0.10969 276646.080000
   9165   9169     1   0.10969 276646.080000
   9166   9168     1   0.10969 276646.080000
   9167   9170     1   0.10961 277566.560000
   9171   9181     1   0.09730 310787.520000
   9172   9174     1   0.09730 310787.520000
   9173   9176     1   0.10969 276646.080000
   9173   9177     1   0.10969 276646.080000
   9175   9185     1   0.10190 328360.320000
   9178   9179     1   0.09730 310787.520000
   9183   9184     1   0.09730 310787.520000
   9187   9188     1   0.10129 337397.760000
   9189   9190     1   0.10969 276646.080000
   9189   9192     1   0.10969 276646.080000
   9191   9193     1   0.10969 276646.080000
   9191   9194     1   0.10969 276646.080000
   9195   9260     1   0.10304 312293.760000
   9196   9205     1   0.10969 276646.080000
   9196   9206     1   0.10969 276646.080000
   9197   9198     1   0.10969 276646.080000
   9197   9200     1   0.10969 276646.080000
   9199   9201     1   0.10969 276646.080000
   9199   9202     1   0.10969 276646.080000
   9207   9208     1   0.10969 276646.080000
   9207   9209     1   0.10969 276646.080000
   9212   9214     1   0.10969 276646.080000
   9213   9232     1   0.10969 276646.080000
   9215   9219     1   0.10969 276646.080000
   9216   9218     1   0.10969 276646.080000
   9217   9220     1   0.10961 277566.560000
   9221   9231     1   0.09730 310787.520000
   9222   9224     1   0.09730 310787.520000
   9223   9226     1   0.10969 276646.080000
   9223   9227     1   0.10969 276646.080000
   9225   9235     1   0.10190 328360.320000
   9228   9229     1   0.09730 310787.520000
   9233   9234     1   0.09730 310787.520000
   9236   9238     1   0.10969 276646.080000
   9237   9256     1   0.10969 276646.080000
   9239   9243     1   0.10969 276646.080000
   9240   9242     1   0.10969 276646.080000
   9241   9244     1   0.10961 277566.560000
   9245   9255     1   0.09730 310787.520000
   9246   9248     1   0.09730 310787.520000
   9247   9250     1   0.10969 276646.080000
   9247   9251     1   0.10969 276646.080000
   9249   9259     1   0.10190 328360.320000
   9252   9253     1   0.09730 310787.520000
   9257   9258     1   0.09730 310787.520000
   9261   9262     1   0.10129 337397.760000
   9263   9264     1   0.10969 276646.080000
   9263   9266     1   0.10969 276646.080000
   9265   9267     1   0.10969 276646.080000
   9265   9268     1   0.10969 276646.080000
   9269   9334     1   0.10304 312293.760000
   9270   9279     1   0.10969 276646.080000
   9270   9280     1   0.10969 276646.080000
   9271   9272     1   0.10969 276646.080000
   9271   9274     1   0.10969 276646.080000
   9273   9275     1   0.10969 276646.080000
   9273   9276     1   0.10969 276646.080000
   9281   9282     1   0.10969 276646.080000
   9281   9283     1   0.10969 276646.080000
   9286   9288     1   0.10969 276646.080000
   9287   9306     1   0.10969 276646.080000
   9289   9293     1   0.10969 276646.080000
   9290   9292     1   0.10969 276646.080000
   9291   9294     1   0.10961 277566.560000
   9295   9305     1   0.09730 310787.520000
   9296   9298     1   0.09730 310787.520000
   9297   9300     1   0.10969 276646.080000
   9297   9301     1   0.10969 276646.080000
   9299   9309     1   0.10190 328360.320000
   9302   9303     1   0.09730 310787.520000
   9307   9308     1   0.09730 310787.520000
   9310   9312     1   0.10969 276646.080000
   9311   9330     1   0.10969 276646.080000
   9313   9317     1   0.10969 276646.080000
   9314   9316     1   0.10969 276646.080000
   9315   9318     1   0.10961 277566.560000
   9319   9329     1   0.09730 310787.520000
   9320   9322     1   0.09730 310787.520000
   9321   9324     1   0.10969 276646.080000
   9321   9325     1   0.10969 276646.080000
   9323   9333     1   0.10190 328360.320000
   9326   9327     1   0.09730 310787.520000
   9331   9332     1   0.09730 310787.520000
   9335   9336     1   0.10129 337397.760000
   9337   9338     1   0.10969 276646.080000
   9337   9340     1   0.10969 276646.080000
   9339   9341     1   0.10969 276646.080000
   9339   9342     1   0.10969 276646.080000
   9343   9408     1   0.10304 312293.760000
   9344   9353     1   0.10969 276646.080000
   9344   9354     1   0.10969 276646.080000
   9345   9346     1   0.10969 276646.080000
   9345   9348     1   0.10969 276646.080000
   9347   9349     1   0.10969 276646.080000
   9347   9350     1   0.10969 276646.080000
   9355   9356     1   0.10969 276646.080000
   9355   9357     1   0.10969 276646.080000
   9360   9362     1   0.10969 276646.080000
   9361   9380     1   0.10969 276646.080000
   9363   9367     1   0.10969 276646.080000
   9364   9366     1   0.10969 276646.080000
   9365   9368     1   0.10961 277566.560000
   9369   9379     1   0.09730 310787.520000
   9370   9372     1   0.09730 310787.520000
   9371   9374     1   0.10969 276646.080000
   9371   9375     1   0.10969 276646.080000
   9373   9383     1   0.10190 328360.320000
   9376   9377     1   0.09730 310787.520000
   9381   9382     1   0.09730 310787.520000
   9384   9386     1   0.10969 276646.080000
   9385   9404     1   0.10969 276646.080000
   9387   9391     1   0.10969 276646.080000
   9388   9390     1   0.10969 276646.080000
   9389   9392     1   0.10961 277566.560000
   9393   9403     1   0.09730 310787.520000
   9394   9396     1   0.09730 310787.520000
   9395   9398     1   0.10969 276646.080000
   9395   9399     1   0.10969 276646.080000
   9397   9407     1   0.10190 328360.320000
   9400   9401     1   0.09730 310787.520000
   9405   9406     1   0.09730 310787.520000
   9409   9410     1   0.10129 337397.760000
   9411   9412     1   0.10969 276646.080000
   9411   9414     1   0.10969 276646.080000
   9413   9415     1   0.10969 276646.080000
   9413   9416     1   0.10969 276646.080000
   9417   9482     1   0.10304 312293.760000
   9418   9427     1   0.10969 276646.080000
   9418   9428     1   0.10969 276646.080000
   9419   9420     1   0.10969 276646.080000
   9419   9422     1   0.10969 276646.080000
   9421   9423     1   0.10969 276646.080000
   9421   9424     1   0.10969 276646.080000
   9429   9430     1   0.10969 276646.080000
   9429   9431     1   0.10969 276646.080000
   9434   9436     1   0.10969 276646.080000
   9435   9454     1   0.10969 276646.080000
   9437   9441     1   0.10969 276646.080000
   9438   9440     1   0.10969 276646.080000
   9439   9442     1   0.10961 277566.560000
   9443   9453     1   0.09730 310787.520000
   9444   9446     1   0.09730 310787.520000
   9445   9448     1   0.10969 276646.080000
   9445   9449     1   0.10969 276646.080000
   9447   9457     1   0.10190 328360.320000
   9450   9451     1   0.09730 310787.520000
   9455   9456     1   0.09730 310787.520000
   9458   9460     1   0.10969 276646.080000
   9459   9478     1   0.10969 276646.080000
   9461   9465     1   0.10969 276646.080000
   9462   9464     1   0.10969 276646.080000
   9463   9466     1   0.10961 277566.560000
   9467   9477     1   0.09730 310787.520000
   9468   9470     1   0.09730 310787.520000
   9469   9472     1   0.10969 276646.080000
   9469   9473     1   0.10969 276646.080000
   9471   9481     1   0.10190 328360.320000
   9474   9475     1   0.09730 310787.520000
   9479   9480     1   0.09730 310787.520000
   9483   9484     1   0.10129 337397.760000
   9485   9486     1   0.10969 276646.080000
   9485   9488     1   0.10969 276646.080000
   9487   9489     1   0.10969 276646.080000
   9487   9490     1   0.10969 276646.080000
   9491   9556     1   0.10304 312293.760000
   9492   9501     1   0.10969 276646.080000
   9492   9502     1   0.10969 276646.080000
   9493   9494     1   0.10969 276646.080000
   9493   9496     1   0.10969 276646.080000
   9495   9497     1   0.10969 276646.080000
   9495   9498     1   0.10969 276646.080000
   9503   9504     1   0.10969 276646.080000
   9503   9505     1   0.10969 276646.080000
   9508   9510     1   0.10969 276646.080000
   9509   9528     1   0.10969 276646.080000
   9511   9515     1   0.10969 276646.080000
   9512   9514     1   0.10969 276646.080000
   9513   9516     1   0.10961 277566.560000
   9517   9527     1   0.09730 310787.520000
   9518   9520     1   0.09730 310787.520000
   9519   9522     1   0.10969 276646.080000
   9519   9523     1   0.10969 276646.080000
   9521   9531     1   0.10190 328360.320000
   9524   9525     1   0.09730 310787.520000
   9529   9530     1   0.09730 310787.520000
   9532   9534     1   0.10969 276646.080000
   9533   9552     1   0.10969 276646.080000
   9535   9539     1   0.10969 276646.080000
   9536   9538     1   0.10969 276646.080000
   9537   9540     1   0.10961 277566.560000
   9541   9551     1   0.09730 310787.520000
   9542   9544     1   0.09730 310787.520000
   9543   9546     1   0.10969 276646.080000
   9543   9547     1   0.10969 276646.080000
   9545   9555     1   0.10190 328360.320000
   9548   9549     1   0.09730 310787.520000
   9553   9554     1   0.09730 310787.520000
   9557   9558     1   0.10129 337397.760000
   9559   9560     1   0.10969 276646.080000
   9559   9562     1   0.10969 276646.080000
   9561   9563     1   0.10969 276646.080000
   9561   9564     1   0.10969 276646.080000
   9565   9630     1   0.10304 312293.760000
   9566   9575     1   0.10969 276646.080000
   9566   9576     1   0.10969 276646.080000
   9567   9568     1   0.10969 276646.080000
   9567   9570     1   0.10969 276646.080000
   9569   9571     1   0.10969 276646.080000
   9569   9572     1   0.10969 276646.080000
   9577   9578     1   0.10969 276646.080000
   9577   9579     1   0.10969 276646.080000
   9582   9584     1   0.10969 276646.080000
   9583   9602     1   0.10969 276646.080000
   9585   9589     1   0.10969 276646.080000
   9586   9588     1   0.10969 276646.080000
   9587   9590     1   0.10961 277566.560000
   9591   9601     1   0.09730 310787.520000
   9592   9594     1   0.09730 310787.520000
   9593   9596     1   0.10969 276646.080000
   9593   9597     1   0.10969 276646.080000
   9595   9605     1   0.10190 328360.320000
   9598   9599     1   0.09730 310787.520000
   9603   9604     1   0.09730 310787.520000
   9606   9608     1   0.10969 276646.080000
   9607   9626     1   0.10969 276646.080000
   9609   9613     1   0.10969 276646.080000
   9610   9612     1   0.10969 276646.080000
   9611   9614     1   0.10961 277566.560000
   9615   9625     1   0.09730 310787.520000
   9616   9618     1   0.09730 310787.520000
   9617   9620     1   0.10969 276646.080000
   9617   9621     1   0.10969 276646.080000
   9619   9629     1   0.10190 328360.320000
   9622   9623     1   0.09730 310787.520000
   9627   9628     1   0.09730 310787.520000
   9631   9632     1   0.10129 337397.760000
   9633   9634     1   0.10969 276646.080000
   9633   9636     1   0.10969 276646.080000
   9635   9637     1   0.10969 276646.080000
   9635   9638     1   0.10969 276646.080000
   9639   9704     1   0.10304 312293.760000
   9640   9649     1   0.10969 276646.080000
   9640   9650     1   0.10969 276646.080000
   9641   9642     1   0.10969 276646.080000
   9641   9644     1   0.10969 276646.080000
   9643   9645     1   0.10969 276646.080000
   9643   9646     1   0.10969 276646.080000
   9651   9652     1   0.10969 276646.080000
   9651   9653     1   0.10969 276646.080000
   9656   9658     1   0.10969 276646.080000
   9657   9676     1   0.10969 276646.080000
   9659   9663     1   0.10969 276646.080000
   9660   9662     1   0.10969 276646.080000
   9661   9664     1   0.10961 277566.560000
   9665   9675     1   0.09730 310787.520000
   9666   9668     1   0.09730 310787.520000
   9667   9670     1   0.10969 276646.080000
   9667   9671     1   0.10969 276646.080000
   9669   9679     1   0.10190 328360.320000
   9672   9673     1   0.09730 310787.520000
   9677   9678     1   0.09730 310787.520000
   9680   9682     1   0.10969 276646.080000
   9681   9700     1   0.10969 276646.080000
   9683   9687     1   0.10969 276646.080000
   9684   9686     1   0.10969 276646.080000
   9685   9688     1   0.10961 277566.560000
   9689   9699     1   0.09730 310787.520000
   9690   9692     1   0.09730 310787.520000
   9691   9694     1   0.10969 276646.080000
   9691   9695     1   0.10969 276646.080000
   9693   9703     1   0.10190 328360.320000
   9696   9697     1   0.09730 310787.520000
   9701   9702     1   0.09730 310787.520000
   9705   9706     1   0.10129 337397.760000
   9707   9708     1   0.10969 276646.080000
   9707   9710     1   0.10969 276646.080000
   9709   9711     1   0.10969 276646.080000
   9709   9712     1   0.10969 276646.080000
   9713   9778     1   0.10304 312293.760000
   9714   9723     1   0.10969 276646.080000
   9714   9724     1   0.10969 276646.080000
   9715   9716     1   0.10969 276646.080000
   9715   9718     1   0.10969 276646.080000
   9717   9719     1   0.10969 276646.080000
   9717   9720     1   0.10969 276646.080000
   9725   9726     1   0.10969 276646.080000
   9725   9727     1   0.10969 276646.080000
   9730   9732     1   0.10969 276646.080000
   9731   9750     1   0.10969 276646.080000
   9733   9737     1   0.10969 276646.080000
   9734   9736     1   0.10969 276646.080000
   9735   9738     1   0.10961 277566.560000
   9739   9749     1   0.09730 310787.520000
   9740   9742     1   0.09730 310787.520000
   9741   9744     1   0.10969 276646.080000
   9741   9745     1   0.10969 276646.080000
   9743   9753     1   0.10190 328360.320000
   9746   9747     1   0.09730 310787.520000
   9751   9752     1   0.09730 310787.520000
   9754   9756     1   0.10969 276646.080000
   9755   9774     1   0.10969 276646.080000
   9757   9761     1   0.10969 276646.080000
   9758   9760     1   0.10969 276646.080000
   9759   9762     1   0.10961 277566.560000
   9763   9773     1   0.09730 310787.520000
   9764   9766     1   0.09730 310787.520000
   9765   9768     1   0.10969 276646.080000
   9765   9769     1   0.10969 276646.080000
   9767   9777     1   0.10190 328360.320000
   9770   9771     1   0.09730 310787.520000
   9775   9776     1   0.09730 310787.520000
   9779   9780     1   0.10129 337397.760000
   9781   9782     1   0.10969 276646.080000
   9781   9784     1   0.10969 276646.080000
   9783   9785     1   0.10969 276646.080000
   9783   9786     1   0.10969 276646.080000
   9787   9852     1   0.10304 312293.760000
   9788   9797     1   0.10969 276646.080000
   9788   9798     1   0.10969 276646.080000
   9789   9790     1   0.10969 276646.080000
   9789   9792     1   0.10969 276646.080000
   9791   9793     1   0.10969 276646.080000
   9791   9794     1   0.10969 276646.080000
   9799   9800     1   0.10969 276646.080000
   9799   9801     1   0.10969 276646.080000
   9804   9806     1   0.10969 276646.080000
   9805   9824     1   0.10969 276646.080000
   9807   9811     1   0.10969 276646.080000
   9808   9810     1   0.10969 276646.080000
   9809   9812     1   0.10961 277566.560000
   9813   9823     1   0.09730 310787.520000
   9814   9816     1   0.09730 310787.520000
   9815   9818     1   0.10969 276646.080000
   9815   9819     1   0.10969 276646.080000
   9817   9827     1   0.10190 328360.320000
   9820   9821     1   0.09730 310787.520000
   9825   9826     1   0.09730 310787.520000
   9828   9830     1   0.10969 276646.080000
   9829   9848     1   0.10969 276646.080000
   9831   9835     1   0.10969 276646.080000
   9832   9834     1   0.10969 276646.080000
   9833   9836     1   0.10961 277566.560000
   9837   9847     1   0.09730 310787.520000
   9838   9840     1   0.09730 310787.520000
   9839   9842     1   0.10969 276646.080000
   9839   9843     1   0.10969 276646.080000
   9841   9851     1   0.10190 328360.320000
   9844   9845     1   0.09730 310787.520000
   9849   9850     1   0.09730 310787.520000
   9853   9854     1   0.10129 337397.760000
   9855   9856     1   0.10969 276646.080000
   9855   9858     1   0.10969 276646.080000
   9857   9859     1   0.10969 276646.080000
   9857   9860     1   0.10969 276646.080000
   9861   9926     1   0.10304 312293.760000
   9862   9871     1   0.10969 276646.080000
   9862   9872     1   0.10969 276646.080000
   9863   9864     1   0.10969 276646.080000
   9863   9866     1   0.10969 276646.080000
   9865   9867     1   0.10969 276646.080000
   9865   9868     1   0.10969 276646.080000
   9873   9874     1   0.10969 276646.080000
   9873   9875     1   0.10969 276646.080000
   9878   9880     1   0.10969 276646.080000
   9879   9898     1   0.10969 276646.080000
   9881   9885     1   0.10969 276646.080000
   9882   9884     1   0.10969 276646.080000
   9883   9886     1   0.10961 277566.560000
   9887   9897     1   0.09730 310787.520000
   9888   9890     1   0.09730 310787.520000
   9889   9892     1   0.10969 276646.080000
   9889   9893     1   0.10969 276646.080000
   9891   9901     1   0.10190 328360.320000
   9894   9895     1   0.09730 310787.520000
   9899   9900     1   0.09730 310787.520000
   9902   9904     1   0.10969 276646.080000
   9903   9922     1   0.10969 276646.080000
   9905   9909     1   0.10969 276646.080000
   9906   9908     1   0.10969 276646.080000
   9907   9910     1   0.10961 277566.560000
   9911   9921     1   0.09730 310787.520000
   9912   9914     1   0.09730 310787.520000
   9913   9916     1   0.10969 276646.080000
   9913   9917     1   0.10969 276646.080000
   9915   9925     1   0.10190 328360.320000
   9918   9919     1   0.09730 310787.520000
   9923   9924     1   0.09730 310787.520000
   9927   9928     1   0.10129 337397.760000
   9929   9930     1   0.10969 276646.080000
   9929   9932     1   0.10969 276646.080000
   9931   9933     1   0.10969 276646.080000
   9931   9934     1   0.10969 276646.080000
   9935  10000     1   0.10304 312293.760000
   9936   9945     1   0.10969 276646.080000
   9936   9946     1   0.10969 276646.080000
   9937   9938     1   0.10969 276646.080000
   9937   9940     1   0.10969 276646.080000
   9939   9941     1   0.10969 276646.080000
   9939   9942     1   0.10969 276646.080000
   9947   9948     1   0.10969 276646.080000
   9947   9949     1   0.10969 276646.080000
   9952   9954     1   0.10969 276646.080000
   9953   9972     1   0.10969 276646.080000
   9955   9959     1   0.10969 276646.080000
   9956   9958     1   0.10969 276646.080000
   9957   9960     1   0.10961 277566.560000
   9961   9971     1   0.09730 310787.520000
   9962   9964     1   0.09730 310787.520000
   9963   9966     1   0.10969 276646.080000
   9963   9967     1   0.10969 276646.080000
   9965   9975     1   0.10190 328360.320000
   9968   9969     1   0.09730 310787.520000
   9973   9974     1   0.09730 310787.520000
   9976   9978     1   0.10969 276646.080000
   9977   9996     1   0.10969 276646.080000
   9979   9983     1   0.10969 276646.080000
   9980   9982     1   0.10969 276646.080000
   9981   9984     1   0.10961 277566.560000
   9985   9995     1   0.09730 310787.520000
   9986   9988     1   0.09730 310787.520000
   9987   9990     1   0.10969 276646.080000
   9987   9991     1   0.10969 276646.080000
   9989   9999     1   0.10190 328360.320000
   9992   9993     1   0.09730 310787.520000
   9997   9998     1   0.09730 310787.520000
  10001  10002     1   0.10129 337397.760000
  10003  10004     1   0.10969 276646.080000
  10003  10006     1   0.10969 276646.080000
  10005  10007     1   0.10969 276646.080000
  10005  10008     1   0.10969 276646.080000
  10009  10074     1   0.10304 312293.760000
  10010  10019     1   0.10969 276646.080000
  10010  10020     1   0.10969 276646.080000
  10011  10012     1   0.10969 276646.080000
  10011  10014     1   0.10969 276646.080000
  10013  10015     1   0.10969 276646.080000
  10013  10016     1   0.10969 276646.080000
  10021  10022     1   0.10969 276646.080000
  10021  10023     1   0.10969 276646.080000
  10026  10028     1   0.10969 276646.080000
  10027  10046     1   0.10969 276646.080000
  10029  10033     1   0.10969 276646.080000
  10030  10032     1   0.10969 276646.080000
  10031  10034     1   0.10961 277566.560000
  10035  10045     1   0.09730 310787.520000
  10036  10038     1   0.09730 310787.520000
  10037  10040     1   0.10969 276646.080000
  10037  10041     1   0.10969 276646.080000
  10039  10049     1   0.10190 328360.320000
  10042  10043     1   0.09730 310787.520000
  10047  10048     1   0.09730 310787.520000
  10050  10052     1   0.10969 276646.080000
  10051  10070     1   0.10969 276646.080000
  10053  10057     1   0.10969 276646.080000
  10054  10056     1   0.10969 276646.080000
  10055  10058     1   0.10961 277566.560000
  10059  10069     1   0.09730 310787.520000
  10060  10062     1   0.09730 310787.520000
  10061  10064     1   0.10969 276646.080000
  10061  10065     1   0.10969 276646.080000
  10063  10073     1   0.10190 328360.320000
  10066  10067     1   0.09730 310787.520000
  10071  10072     1   0.09730 310787.520000
  10075  10076     1   0.10129 337397.760000
  10077  10078     1   0.10969 276646.080000
  10077  10080     1   0.10969 276646.080000
  10079  10081     1   0.10969 276646.080000
  10079  10082     1   0.10969 276646.080000
  10083  10148     1   0.10304 312293.760000
  10084  10093     1   0.10969 276646.080000
  10084  10094     1   0.10969 276646.080000
  10085  10086     1   0.10969 276646.080000
  10085  10088     1   0.10969 276646.080000
  10087  10089     1   0.10969 276646.080000
  10087  10090     1   0.10969 276646.080000
  10095  10096     1   0.10969 276646.080000
  10095  10097     1   0.10969 276646.080000
  10100  10102     1   0.10969 276646.080000
  10101  10120     1   0.10969 276646.080000
  10103  10107     1   0.10969 276646.080000
  10104  10106     1   0.10969 276646.080000
  10105  10108     1   0.10961 277566.560000
  10109  10119     1   0.09730 310787.520000
  10110  10112     1   0.09730 310787.520000
  10111  10114     1   0.10969 276646.080000
  10111  10115     1   0.10969 276646.080000
  10113  10123     1   0.10190 328360.320000
  10116  10117     1   0.09730 310787.520000
  10121  10122     1   0.09730 310787.520000
  10124  10126     1   0.10969 276646.080000
  10125  10144     1   0.10969 276646.080000
  10127  10131     1   0.10969 276646.080000
  10128  10130     1   0.10969 276646.080000
  10129  10132     1   0.10961 277566.560000
  10133  10143     1   0.09730 310787.520000
  10134  10136     1   0.09730 310787.520000
  10135  10138     1   0.10969 276646.080000
  10135  10139     1   0.10969 276646.080000
  10137  10147     1   0.10190 328360.320000
  10140  10141     1   0.09730 310787.520000
  10145  10146     1   0.09730 310787.520000
  10149  10150     1   0.10129 337397.760000
  10151  10152     1   0.10969 276646.080000
  10151  10154     1   0.10969 276646.080000
  10153  10155     1   0.10969 276646.080000
  10153  10156     1   0.10969 276646.080000
  10157  10222     1   0.10304 312293.760000
  10158  10167     1   0.10969 276646.080000
  10158  10168     1   0.10969 276646.080000
  10159  10160     1   0.10969 276646.080000
  10159  10162     1   0.10969 276646.080000
  10161  10163     1   0.10969 276646.080000
  10161  10164     1   0.10969 276646.080000
  10169  10170     1   0.10969 276646.080000
  10169  10171     1   0.10969 276646.080000
  10174  10176     1   0.10969 276646.080000
  10175  10194     1   0.10969 276646.080000
  10177  10181     1   0.10969 276646.080000
  10178  10180     1   0.10969 276646.080000
  10179  10182     1   0.10961 277566.560000
  10183  10193     1   0.09730 310787.520000
  10184  10186     1   0.09730 310787.520000
  10185  10188     1   0.10969 276646.080000
  10185  10189     1   0.10969 276646.080000
  10187  10197     1   0.10190 328360.320000
  10190  10191     1   0.09730 310787.520000
  10195  10196     1   0.09730 310787.520000
  10198  10200     1   0.10969 276646.080000
  10199  10218     1   0.10969 276646.080000
  10201  10205     1   0.10969 276646.080000
  10202  10204     1   0.10969 276646.080000
  10203  10206     1   0.10961 277566.560000
  10207  10217     1   0.09730 310787.520000
  10208  10210     1   0.09730 310787.520000
  10209  10212     1   0.10969 276646.080000
  10209  10213     1   0.10969 276646.080000
  10211  10221     1   0.10190 328360.320000
  10214  10215     1   0.09730 310787.520000
  10219  10220     1   0.09730 310787.520000
  10223  10224     1   0.10129 337397.760000
  10225  10226     1   0.10969 276646.080000
  10225  10228     1   0.10969 276646.080000
  10227  10229     1   0.10969 276646.080000
  10227  10230     1   0.10969 276646.080000
  10231  10296     1   0.10304 312293.760000
  10232  10241     1   0.10969 276646.080000
  10232  10242     1   0.10969 276646.080000
  10233  10234     1   0.10969 276646.080000
  10233  10236     1   0.10969 276646.080000
  10235  10237     1   0.10969 276646.080000
  10235  10238     1   0.10969 276646.080000
  10243  10244     1   0.10969 276646.080000
  10243  10245     1   0.10969 276646.080000
  10248  10250     1   0.10969 276646.080000
  10249  10268     1   0.10969 276646.080000
  10251  10255     1   0.10969 276646.080000
  10252  10254     1   0.10969 276646.080000
  10253  10256     1   0.10961 277566.560000
  10257  10267     1   0.09730 310787.520000
  10258  10260     1   0.09730 310787.520000
  10259  10262     1   0.10969 276646.080000
  10259  10263     1   0.10969 276646.080000
  10261  10271     1   0.10190 328360.320000
  10264  10265     1   0.09730 310787.520000
  10269  10270     1   0.09730 310787.520000
  10272  10274     1   0.10969 276646.080000
  10273  10292     1   0.10969 276646.080000
  10275  10279     1   0.10969 276646.080000
  10276  10278     1   0.10969 276646.080000
  10277  10280     1   0.10961 277566.560000
  10281  10291     1   0.09730 310787.520000
  10282  10284     1   0.09730 310787.520000
  10283  10286     1   0.10969 276646.080000
  10283  10287     1   0.10969 276646.080000
  10285  10295     1   0.10190 328360.320000
  10288  10289     1   0.09730 310787.520000
  10293  10294     1   0.09730 310787.520000
  10297  10298     1   0.10129 337397.760000
  10299  10300     1   0.10969 276646.080000
  10299  10302     1   0.10969 276646.080000
  10301  10303     1   0.10969 276646.080000
  10301  10304     1   0.10969 276646.080000
  10305  10370     1   0.10304 312293.760000
  10306  10315     1   0.10969 276646.080000
  10306  10316     1   0.10969 276646.080000
  10307  10308     1   0.10969 276646.080000
  10307  10310     1   0.10969 276646.080000
  10309  10311     1   0.10969 276646.080000
  10309  10312     1   0.10969 276646.080000
  10317  10318     1   0.10969 276646.080000
  10317  10319     1   0.10969 276646.080000
  10322  10324     1   0.10969 276646.080000
  10323  10342     1   0.10969 276646.080000
  10325  10329     1   0.10969 276646.080000
  10326  10328     1   0.10969 276646.080000
  10327  10330     1   0.10961 277566.560000
  10331  10341     1   0.09730 310787.520000
  10332  10334     1   0.09730 310787.520000
  10333  10336     1   0.10969 276646.080000
  10333  10337     1   0.10969 276646.080000
  10335  10345     1   0.10190 328360.320000
  10338  10339     1   0.09730 310787.520000
  10343  10344     1   0.09730 310787.520000
  10346  10348     1   0.10969 276646.080000
  10347  10366     1   0.10969 276646.080000
  10349  10353     1   0.10969 276646.080000
  10350  10352     1   0.10969 276646.080000
  10351  10354     1   0.10961 277566.560000
  10355  10365     1   0.09730 310787.520000
  10356  10358     1   0.09730 310787.520000
  10357  10360     1   0.10969 276646.080000
  10357  10361     1   0.10969 276646.080000
  10359  10369     1   0.10190 328360.320000
  10362  10363     1   0.09730 310787.520000
  10367  10368     1   0.09730 310787.520000
  10371  10372     1   0.10129 337397.760000
  10373  10374     1   0.10969 276646.080000
  10373  10376     1   0.10969 276646.080000
  10375  10377     1   0.10969 276646.080000
  10375  10378     1   0.10969 276646.080000
  10379  10444     1   0.10304 312293.760000
  10380  10389     1   0.10969 276646.080000
  10380  10390     1   0.10969 276646.080000
  10381  10382     1   0.10969 276646.080000
  10381  10384     1   0.10969 276646.080000
  10383  10385     1   0.10969 276646.080000
  10383  10386     1   0.10969 276646.080000
  10391  10392     1   0.10969 276646.080000
  10391  10393     1   0.10969 276646.080000
  10396  10398     1   0.10969 276646.080000
  10397  10416     1   0.10969 276646.080000
  10399  10403     1   0.10969 276646.080000
  10400  10402     1   0.10969 276646.080000
  10401  10404     1   0.10961 277566.560000
  10405  10415     1   0.09730 310787.520000
  10406  10408     1   0.09730 310787.520000
  10407  10410     1   0.10969 276646.080000
  10407  10411     1   0.10969 276646.080000
  10409  10419     1   0.10190 328360.320000
  10412  10413     1   0.09730 310787.520000
  10417  10418     1   0.09730 310787.520000
  10420  10422     1   0.10969 276646.080000
  10421  10440     1   0.10969 276646.080000
  10423  10427     1   0.10969 276646.080000
  10424  10426     1   0.10969 276646.080000
  10425  10428     1   0.10961 277566.560000
  10429  10439     1   0.09730 310787.520000
  10430  10432     1   0.09730 310787.520000
  10431  10434     1   0.10969 276646.080000
  10431  10435     1   0.10969 276646.080000
  10433  10443     1   0.10190 328360.320000
  10436  10437     1   0.09730 310787.520000
  10441  10442     1   0.09730 310787.520000
  10445  10446     1   0.10129 337397.760000
  10447  10448     1   0.10969 276646.080000
  10447  10450     1   0.10969 276646.080000
  10449  10451     1   0.10969 276646.080000
  10449  10452     1   0.10969 276646.080000
  10453  10518     1   0.10304 312293.760000
  10454  10463     1   0.10969 276646.080000
  10454  10464     1   0.10969 276646.080000
  10455  10456     1   0.10969 276646.080000
  10455  10458     1   0.10969 276646.080000
  10457  10459     1   0.10969 276646.080000
  10457  10460     1   0.10969 276646.080000
  10465  10466     1   0.10969 276646.080000
  10465  10467     1   0.10969 276646.080000
  10470  10472     1   0.10969 276646.080000
  10471  10490     1   0.10969 276646.080000
  10473  10477     1   0.10969 276646.080000
  10474  10476     1   0.10969 276646.080000
  10475  10478     1   0.10961 277566.560000
  10479  10489     1   0.09730 310787.520000
  10480  10482     1   0.09730 310787.520000
  10481  10484     1   0.10969 276646.080000
  10481  10485     1   0.10969 276646.080000
  10483  10493     1   0.10190 328360.320000
  10486  10487     1   0.09730 310787.520000
  10491  10492     1   0.09730 310787.520000
  10494  10496     1   0.10969 276646.080000
  10495  10514     1   0.10969 276646.080000
  10497  10501     1   0.10969 276646.080000
  10498  10500     1   0.10969 276646.080000
  10499  10502     1   0.10961 277566.560000
  10503  10513     1   0.09730 310787.520000
  10504  10506     1   0.09730 310787.520000
  10505  10508     1   0.10969 276646.080000
  10505  10509     1   0.10969 276646.080000
  10507  10517     1   0.10190 328360.320000
  10510  10511     1   0.09730 310787.520000
  10515  10516     1   0.09730 310787.520000
  10519  10520     1   0.10129 337397.760000
  10521  10522     1   0.10969 276646.080000
  10521  10524     1   0.10969 276646.080000
  10523  10525     1   0.10969 276646.080000
  10523  10526     1   0.10969 276646.080000
  10527  10592     1   0.10304 312293.760000
  10528  10537     1   0.10969 276646.080000
  10528  10538     1   0.10969 276646.080000
  10529  10530     1   0.10969 276646.080000
  10529  10532     1   0.10969 276646.080000
  10531  10533     1   0.10969 276646.080000
  10531  10534     1   0.10969 276646.080000
  10539  10540     1   0.10969 276646.080000
  10539  10541     1   0.10969 276646.080000
  10544  10546     1   0.10969 276646.080000
  10545  10564     1   0.10969 276646.080000
  10547  10551     1   0.10969 276646.080000
  10548  10550     1   0.10969 276646.080000
  10549  10552     1   0.10961 277566.560000
  10553  10563     1   0.09730 310787.520000
  10554  10556     1   0.09730 310787.520000
  10555  10558     1   0.10969 276646.080000
  10555  10559     1   0.10969 276646.080000
  10557  10567     1   0.10190 328360.320000
  10560  10561     1   0.09730 310787.520000
  10565  10566     1   0.09730 310787.520000
  10568  10570     1   0.10969 276646.080000
  10569  10588     1   0.10969 276646.080000
  10571  10575     1   0.10969 276646.080000
  10572  10574     1   0.10969 276646.080000
  10573  10576     1   0.10961 277566.560000
  10577  10587     1   0.09730 310787.520000
  10578  10580     1   0.09730 310787.520000
  10579  10582     1   0.10969 276646.080000
  10579  10583     1   0.10969 276646.080000
  10581  10591     1   0.10190 328360.320000
  10584  10585     1   0.09730 310787.520000
  10589  10590     1   0.09730 310787.520000
  10593  10594     1   0.10129 337397.760000
  10595  10596     1   0.10969 276646.080000
  10595  10598     1   0.10969 276646.080000
  10597  10599     1   0.10969 276646.080000
  10597  10600     1   0.10969 276646.080000
  10601  10666     1   0.10304 312293.760000
  10602  10611     1   0.10969 276646.080000
  10602  10612     1   0.10969 276646.080000
  10603  10604     1   0.10969 276646.080000
  10603  10606     1   0.10969 276646.080000
  10605  10607     1   0.10969 276646.080000
  10605  10608     1   0.10969 276646.080000
  10613  10614     1   0.10969 276646.080000
  10613  10615     1   0.10969 276646.080000
  10618  10620     1   0.10969 276646.080000
  10619  10638     1   0.10969 276646.080000
  10621  10625     1   0.10969 276646.080000
  10622  10624     1   0.10969 276646.080000
  10623  10626     1   0.10961 277566.560000
  10627  10637     1   0.09730 310787.520000
  10628  10630     1   0.09730 310787.520000
  10629  10632     1   0.10969 276646.080000
  10629  10633     1   0.10969 276646.080000
  10631  10641     1   0.10190 328360.320000
  10634  10635     1   0.09730 310787.520000
  10639  10640     1   0.09730 310787.520000
  10642  10644     1   0.10969 276646.080000
  10643  10662     1   0.10969 276646.080000
  10645  10649     1   0.10969 276646.080000
  10646  10648     1   0.10969 276646.080000
  10647  10650     1   0.10961 277566.560000
  10651  10661     1   0.09730 310787.520000
  10652  10654     1   0.09730 310787.520000
  10653  10656     1   0.10969 276646.080000
  10653  10657     1   0.10969 276646.080000
  10655  10665     1   0.10190 328360.320000
  10658  10659     1   0.09730 310787.520000
  10663  10664     1   0.09730 310787.520000
  10667  10668     1   0.10129 337397.760000
  10669  10670     1   0.10969 276646.080000
  10669  10672     1   0.10969 276646.080000
  10671  10673     1   0.10969 276646.080000
  10671  10674     1   0.10969 276646.080000
  10675  10740     1   0.10304 312293.760000
  10676  10685     1   0.10969 276646.080000
  10676  10686     1   0.10969 276646.080000
  10677  10678     1   0.10969 276646.080000
  10677  10680     1   0.10969 276646.080000
  10679  10681     1   0.10969 276646.080000
  10679  10682     1   0.10969 276646.080000
  10687  10688     1   0.10969 276646.080000
  10687  10689     1   0.10969 276646.080000
  10692  10694     1   0.10969 276646.080000
  10693  10712     1   0.10969 276646.080000
  10695  10699     1   0.10969 276646.080000
  10696  10698     1   0.10969 276646.080000
  10697  10700     1   0.10961 277566.560000
  10701  10711     1   0.09730 310787.520000
  10702  10704     1   0.09730 310787.520000
  10703  10706     1   0.10969 276646.080000
  10703  10707     1   0.10969 276646.080000
  10705  10715     1   0.10190 328360.320000
  10708  10709     1   0.09730 310787.520000
  10713  10714     1   0.09730 310787.520000
  10716  10718     1   0.10969 276646.080000
  10717  10736     1   0.10969 276646.080000
  10719  10723     1   0.10969 276646.080000
  10720  10722     1   0.10969 276646.080000
  10721  10724     1   0.10961 277566.560000
  10725  10735     1   0.09730 310787.520000
  10726  10728     1   0.09730 310787.520000
  10727  10730     1   0.10969 276646.080000
  10727  10731     1   0.10969 276646.080000
  10729  10739     1   0.10190 328360.320000
  10732  10733     1   0.09730 310787.520000
  10737  10738     1   0.09730 310787.520000
  10741  10742     1   0.10129 337397.760000
  10743  10744     1   0.10969 276646.080000
  10743  10746     1   0.10969 276646.080000
  10745  10747     1   0.10969 276646.080000
  10745  10748     1   0.10969 276646.080000
  10749  10814     1   0.10304 312293.760000
  10750  10759     1   0.10969 276646.080000
  10750  10760     1   0.10969 276646.080000
  10751  10752     1   0.10969 276646.080000
  10751  10754     1   0.10969 276646.080000
  10753  10755     1   0.10969 276646.080000
  10753  10756     1   0.10969 276646.080000
  10761  10762     1   0.10969 276646.080000
  10761  10763     1   0.10969 276646.080000
  10766  10768     1   0.10969 276646.080000
  10767  10786     1   0.10969 276646.080000
  10769  10773     1   0.10969 276646.080000
  10770  10772     1   0.10969 276646.080000
  10771  10774     1   0.10961 277566.560000
  10775  10785     1   0.09730 310787.520000
  10776  10778     1   0.09730 310787.520000
  10777  10780     1   0.10969 276646.080000
  10777  10781     1   0.10969 276646.080000
  10779  10789     1   0.10190 328360.320000
  10782  10783     1   0.09730 310787.520000
  10787  10788     1   0.09730 310787.520000
  10790  10792     1   0.10969 276646.080000
  10791  10810     1   0.10969 276646.080000
  10793  10797     1   0.10969 276646.080000
  10794  10796     1   0.10969 276646.080000
  10795  10798     1   0.10961 277566.560000
  10799  10809     1   0.09730 310787.520000
  10800  10802     1   0.09730 310787.520000
  10801  10804     1   0.10969 276646.080000
  10801  10805     1   0.10969 276646.080000
  10803  10813     1   0.10190 328360.320000
  10806  10807     1   0.09730 310787.520000
  10811  10812     1   0.09730 310787.520000
  10815  10816     1   0.10129 337397.760000
  10817  10818     1   0.10969 276646.080000
  10817  10820     1   0.10969 276646.080000
  10819  10821     1   0.10969 276646.080000
  10819  10822     1   0.10969 276646.080000
  10823  10888     1   0.10304 312293.760000
  10824  10833     1   0.10969 276646.080000
  10824  10834     1   0.10969 276646.080000
  10825  10826     1   0.10969 276646.080000
  10825  10828     1   0.10969 276646.080000
  10827  10829     1   0.10969 276646.080000
  10827  10830     1   0.10969 276646.080000
  10835  10836     1   0.10969 276646.080000
  10835  10837     1   0.10969 276646.080000
  10840  10842     1   0.10969 276646.080000
  10841  10860     1   0.10969 276646.080000
  10843  10847     1   0.10969 276646.080000
  10844  10846     1   0.10969 276646.080000
  10845  10848     1   0.10961 277566.560000
  10849  10859     1   0.09730 310787.520000
  10850  10852     1   0.09730 310787.520000
  10851  10854     1   0.10969 276646.080000
  10851  10855     1   0.10969 276646.080000
  10853  10863     1   0.10190 328360.320000
  10856  10857     1   0.09730 310787.520000
  10861  10862     1   0.09730 310787.520000
  10864  10866     1   0.10969 276646.080000
  10865  10884     1   0.10969 276646.080000
  10867  10871     1   0.10969 276646.080000
  10868  10870     1   0.10969 276646.080000
  10869  10872     1   0.10961 277566.560000
  10873  10883     1   0.09730 310787.520000
  10874  10876     1   0.09730 310787.520000
  10875  10878     1   0.10969 276646.080000
  10875  10879     1   0.10969 276646.080000
  10877  10887     1   0.10190 328360.320000
  10880  10881     1   0.09730 310787.520000
  10885  10886     1   0.09730 310787.520000
  10889  10890     1   0.10129 337397.760000
  10891  10892     1   0.10969 276646.080000
  10891  10894     1   0.10969 276646.080000
  10893  10895     1   0.10969 276646.080000
  10893  10896     1   0.10969 276646.080000
  10897  10962     1   0.10304 312293.760000
  10898  10907     1   0.10969 276646.080000
  10898  10908     1   0.10969 276646.080000
  10899  10900     1   0.10969 276646.080000
  10899  10902     1   0.10969 276646.080000
  10901  10903     1   0.10969 276646.080000
  10901  10904     1   0.10969 276646.080000
  10909  10910     1   0.10969 276646.080000
  10909  10911     1   0.10969 276646.080000
  10914  10916     1   0.10969 276646.080000
  10915  10934     1   0.10969 276646.080000
  10917  10921     1   0.10969 276646.080000
  10918  10920     1   0.10969 276646.080000
  10919  10922     1   0.10961 277566.560000
  10923  10933     1   0.09730 310787.520000
  10924  10926     1   0.09730 310787.520000
  10925  10928     1   0.10969 276646.080000
  10925  10929     1   0.10969 276646.080000
  10927  10937     1   0.10190 328360.320000
  10930  10931     1   0.09730 310787.520000
  10935  10936     1   0.09730 310787.520000
  10938  10940     1   0.10969 276646.080000
  10939  10958     1   0.10969 276646.080000
  10941  10945     1   0.10969 276646.080000
  10942  10944     1   0.10969 276646.080000
  10943  10946     1   0.10961 277566.560000
  10947  10957     1   0.09730 310787.520000
  10948  10950     1   0.09730 310787.520000
  10949  10952     1   0.10969 276646.080000
  10949  10953     1   0.10969 276646.080000
  10951  10961     1   0.10190 328360.320000
  10954  10955     1   0.09730 310787.520000
  10959  10960     1   0.09730 310787.520000
  10963  10964     1   0.10129 337397.760000
  10965  10966     1   0.10969 276646.080000
  10965  10968     1   0.10969 276646.080000
  10967  10969     1   0.10969 276646.080000
  10967  10970     1   0.10969 276646.080000
  10971  11036     1   0.10304 312293.760000
  10972  10981     1   0.10969 276646.080000
  10972  10982     1   0.10969 276646.080000
  10973  10974     1   0.10969 276646.080000
  10973  10976     1   0.10969 276646.080000
  10975  10977     1   0.10969 276646.080000
  10975  10978     1   0.10969 276646.080000
  10983  10984     1   0.10969 276646.080000
  10983  10985     1   0.10969 276646.080000
  10988  10990     1   0.10969 276646.080000
  10989  11008     1   0.10969 276646.080000
  10991  10995     1   0.10969 276646.080000
  10992  10994     1   0.10969 276646.080000
  10993  10996     1   0.10961 277566.560000
  10997  11007     1   0.09730 310787.520000
  10998  11000     1   0.09730 310787.520000
  10999  11002     1   0.10969 276646.080000
  10999  11003     1   0.10969 276646.080000
  11001  11011     1   0.10190 328360.320000
  11004  11005     1   0.09730 310787.520000
  11009  11010     1   0.09730 310787.520000
  11012  11014     1   0.10969 276646.080000
  11013  11032     1   0.10969 276646.080000
  11015  11019     1   0.10969 276646.080000
  11016  11018     1   0.10969 276646.080000
  11017  11020     1   0.10961 277566.560000
  11021  11031     1   0.09730 310787.520000
  11022  11024     1   0.09730 310787.520000
  11023  11026     1   0.10969 276646.080000
  11023  11027     1   0.10969 276646.080000
  11025  11035     1   0.10190 328360.320000
  11028  11029     1   0.09730 310787.520000
  11033  11034     1   0.09730 310787.520000
  11037  11038     1   0.10129 337397.760000
  11039  11040     1   0.10969 276646.080000
  11039  11042     1   0.10969 276646.080000
  11041  11043     1   0.10969 276646.080000
  11041  11044     1   0.10969 276646.080000
  11045  11110     1   0.10304 312293.760000
  11046  11055     1   0.10969 276646.080000
  11046  11056     1   0.10969 276646.080000
  11047  11048     1   0.10969 276646.080000
  11047  11050     1   0.10969 276646.080000
  11049  11051     1   0.10969 276646.080000
  11049  11052     1   0.10969 276646.080000
  11057  11058     1   0.10969 276646.080000
  11057  11059     1   0.10969 276646.080000
  11062  11064     1   0.10969 276646.080000
  11063  11082     1   0.10969 276646.080000
  11065  11069     1   0.10969 276646.080000
  11066  11068     1   0.10969 276646.080000
  11067  11070     1   0.10961 277566.560000
  11071  11081     1   0.09730 310787.520000
  11072  11074     1   0.09730 310787.520000
  11073  11076     1   0.10969 276646.080000
  11073  11077     1   0.10969 276646.080000
  11075  11085     1   0.10190 328360.320000
  11078  11079     1   0.09730 310787.520000
  11083  11084     1   0.09730 310787.520000
  11086  11088     1   0.10969 276646.080000
  11087  11106     1   0.10969 276646.080000
  11089  11093     1   0.10969 276646.080000
  11090  11092     1   0.10969 276646.080000
  11091  11094     1   0.10961 277566.560000
  11095  11105     1   0.09730 310787.520000
  11096  11098     1   0.09730 310787.520000
  11097  11100     1   0.10969 276646.080000
  11097  11101     1   0.10969 276646.080000
  11099  11109     1   0.10190 328360.320000
  11102  11103     1   0.09730 310787.520000
  11107  11108     1   0.09730 310787.520000
  11111  11112     1   0.10129 337397.760000
  11113  11114     1   0.10969 276646.080000
  11113  11116     1   0.10969 276646.080000
  11115  11117     1   0.10969 276646.080000
  11115  11118     1   0.10969 276646.080000
  11119  11184     1   0.10304 312293.760000
  11120  11129     1   0.10969 276646.080000
  11120  11130     1   0.10969 276646.080000
  11121  11122     1   0.10969 276646.080000
  11121  11124     1   0.10969 276646.080000
  11123  11125     1   0.10969 276646.080000
  11123  11126     1   0.10969 276646.080000
  11131  11132     1   0.10969 276646.080000
  11131  11133     1   0.10969 276646.080000
  11136  11138     1   0.10969 276646.080000
  11137  11156     1   0.10969 276646.080000
  11139  11143     1   0.10969 276646.080000
  11140  11142     1   0.10969 276646.080000
  11141  11144     1   0.10961 277566.560000
  11145  11155     1   0.09730 310787.520000
  11146  11148     1   0.09730 310787.520000
  11147  11150     1   0.10969 276646.080000
  11147  11151     1   0.10969 276646.080000
  11149  11159     1   0.10190 328360.320000
  11152  11153     1   0.09730 310787.520000
  11157  11158     1   0.09730 310787.520000
  11160  11162     1   0.10969 276646.080000
  11161  11180     1   0.10969 276646.080000
  11163  11167     1   0.10969 276646.080000
  11164  11166     1   0.10969 276646.080000
  11165  11168     1   0.10961 277566.560000
  11169  11179     1   0.09730 310787.520000
  11170  11172     1   0.09730 310787.520000
  11171  11174     1   0.10969 276646.080000
  11171  11175     1   0.10969 276646.080000
  11173  11183     1   0.10190 328360.320000
  11176  11177     1   0.09730 310787.520000
  11181  11182     1   0.09730 310787.520000
  11185  11186     1   0.10129 337397.760000
  11187  11188     1   0.10969 276646.080000
  11187  11190     1   0.10969 276646.080000
  11189  11191     1   0.10969 276646.080000
  11189  11192     1   0.10969 276646.080000
  11193  11258     1   0.10304 312293.760000
  11194  11203     1   0.10969 276646.080000
  11194  11204     1   0.10969 276646.080000
  11195  11196     1   0.10969 276646.080000
  11195  11198     1   0.10969 276646.080000
  11197  11199     1   0.10969 276646.080000
  11197  11200     1   0.10969 276646.080000
  11205  11206     1   0.10969 276646.080000
  11205  11207     1   0.10969 276646.080000
  11210  11212     1   0.10969 276646.080000
  11211  11230     1   0.10969 276646.080000
  11213  11217     1   0.10969 276646.080000
  11214  11216     1   0.10969 276646.080000
  11215  11218     1   0.10961 277566.560000
  11219  11229     1   0.09730 310787.520000
  11220  11222     1   0.09730 310787.520000
  11221  11224     1   0.10969 276646.080000
  11221  11225     1   0.10969 276646.080000
  11223  11233     1   0.10190 328360.320000
  11226  11227     1   0.09730 310787.520000
  11231  11232     1   0.09730 310787.520000
  11234  11236     1   0.10969 276646.080000
  11235  11254     1   0.10969 276646.080000
  11237  11241     1   0.10969 276646.080000
  11238  11240     1   0.10969 276646.080000
  11239  11242     1   0.10961 277566.560000
  11243  11253     1   0.09730 310787.520000
  11244  11246     1   0.09730 310787.520000
  11245  11248     1   0.10969 276646.080000
  11245  11249     1   0.10969 276646.080000
  11247  11257     1   0.10190 328360.320000
  11250  11251     1   0.09730 310787.520000
  11255  11256     1   0.09730 310787.520000
  11259  11260     1   0.10129 337397.760000
  11261  11262     1   0.10969 276646.080000
  11261  11264     1   0.10969 276646.080000
  11263  11265     1   0.10969 276646.080000
  11263  11266     1   0.10969 276646.080000
  11267  11332     1   0.10304 312293.760000
  11268  11277     1   0.10969 276646.080000
  11268  11278     1   0.10969 276646.080000
  11269  11270     1   0.10969 276646.080000
  11269  11272     1   0.10969 276646.080000
  11271  11273     1   0.10969 276646.080000
  11271  11274     1   0.10969 276646.080000
  11279  11280     1   0.10969 276646.080000
  11279  11281     1   0.10969 276646.080000
  11284  11286     1   0.10969 276646.080000
  11285  11304     1   0.10969 276646.080000
  11287  11291     1   0.10969 276646.080000
  11288  11290     1   0.10969 276646.080000
  11289  11292     1   0.10961 277566.560000
  11293  11303     1   0.09730 310787.520000
  11294  11296     1   0.09730 310787.520000
  11295  11298     1   0.10969 276646.080000
  11295  11299     1   0.10969 276646.080000
  11297  11307     1   0.10190 328360.320000
  11300  11301     1   0.09730 310787.520000
  11305  11306     1   0.09730 310787.520000
  11308  11310     1   0.10969 276646.080000
  11309  11328     1   0.10969 276646.080000
  11311  11315     1   0.10969 276646.080000
  11312  11314     1   0.10969 276646.080000
  11313  11316     1   0.10961 277566.560000
  11317  11327     1   0.09730 310787.520000
  11318  11320     1   0.09730 310787.520000
  11319  11322     1   0.10969 276646.080000
  11319  11323     1   0.10969 276646.080000
  11321  11331     1   0.10190 328360.320000
  11324  11325     1   0.09730 310787.520000
  11329  11330     1   0.09730 310787.520000
  11333  11334     1   0.10129 337397.760000
  11335  11336     1   0.10969 276646.080000
  11335  11338     1   0.10969 276646.080000
  11337  11339     1   0.10969 276646.080000
  11337  11340     1   0.10969 276646.080000
  11341  11406     1   0.10304 312293.760000
  11342  11351     1   0.10969 276646.080000
  11342  11352     1   0.10969 276646.080000
  11343  11344     1   0.10969 276646.080000
  11343  11346     1   0.10969 276646.080000
  11345  11347     1   0.10969 276646.080000
  11345  11348     1   0.10969 276646.080000
  11353  11354     1   0.10969 276646.080000
  11353  11355     1   0.10969 276646.080000
  11358  11360     1   0.10969 276646.080000
  11359  11378     1   0.10969 276646.080000
  11361  11365     1   0.10969 276646.080000
  11362  11364     1   0.10969 276646.080000
  11363  11366     1   0.10961 277566.560000
  11367  11377     1   0.09730 310787.520000
  11368  11370     1   0.09730 310787.520000
  11369  11372     1   0.10969 276646.080000
  11369  11373     1   0.10969 276646.080000
  11371  11381     1   0.10190 328360.320000
  11374  11375     1   0.09730 310787.520000
  11379  11380     1   0.09730 310787.520000
  11382  11384     1   0.10969 276646.080000
  11383  11402     1   0.10969 276646.080000
  11385  11389     1   0.10969 276646.080000
  11386  11388     1   0.10969 276646.080000
  11387  11390     1   0.10961 277566.560000
  11391  11401     1   0.09730 310787.520000
  11392  11394     1   0.09730 310787.520000
  11393  11396     1   0.10969 276646.080000
  11393  11397     1   0.10969 276646.080000
  11395  11405     1   0.10190 328360.320000
  11398  11399     1   0.09730 310787.520000
  11403  11404     1   0.09730 310787.520000
  11407  11408     1   0.10129 337397.760000
  11409  11410     1   0.10969 276646.080000
  11409  11412     1   0.10969 276646.080000
  11411  11413     1   0.10969 276646.080000
  11411  11414     1   0.10969 276646.080000
  11415  11480     1   0.10304 312293.760000
  11416  11425     1   0.10969 276646.080000
  11416  11426     1   0.10969 276646.080000
  11417  11418     1   0.10969 276646.080000
  11417  11420     1   0.10969 276646.080000
  11419  11421     1   0.10969 276646.080000
  11419  11422     1   0.10969 276646.080000
  11427  11428     1   0.10969 276646.080000
  11427  11429     1   0.10969 276646.080000
  11432  11434     1   0.10969 276646.080000
  11433  11452     1   0.10969 276646.080000
  11435  11439     1   0.10969 276646.080000
  11436  11438     1   0.10969 276646.080000
  11437  11440     1   0.10961 277566.560000
  11441  11451     1   0.09730 310787.520000
  11442  11444     1   0.09730 310787.520000
  11443  11446     1   0.10969 276646.080000
  11443  11447     1   0.10969 276646.080000
  11445  11455     1   0.10190 328360.320000
  11448  11449     1   0.09730 310787.520000
  11453  11454     1   0.09730 310787.520000
  11456  11458     1   0.10969 276646.080000
  11457  11476     1   0.10969 276646.080000
  11459  11463     1   0.10969 276646.080000
  11460  11462     1   0.10969 276646.080000
  11461  11464     1   0.10961 277566.560000
  11465  11475     1   0.09730 310787.520000
  11466  11468     1   0.09730 310787.520000
  11467  11470     1   0.10969 276646.080000
  11467  11471     1   0.10969 276646.080000
  11469  11479     1   0.10190 328360.320000
  11472  11473     1   0.09730 310787.520000
  11477  11478     1   0.09730 310787.520000
  11481  11482     1   0.10129 337397.760000
  11483  11484     1   0.10969 276646.080000
  11483  11486     1   0.10969 276646.080000
  11485  11487     1   0.10969 276646.080000
  11485  11488     1   0.10969 276646.080000
  11489  11554     1   0.10304 312293.760000
  11490  11499     1   0.10969 276646.080000
  11490  11500     1   0.10969 276646.080000
  11491  11492     1   0.10969 276646.080000
  11491  11494     1   0.10969 276646.080000
  11493  11495     1   0.10969 276646.080000
  11493  11496     1   0.10969 276646.080000
  11501  11502     1   0.10969 276646.080000
  11501  11503     1   0.10969 276646.080000
  11506  11508     1   0.10969 276646.080000
  11507  11526     1   0.10969 276646.080000
  11509  11513     1   0.10969 276646.080000
  11510  11512     1   0.10969 276646.080000
  11511  11514     1   0.10961 277566.560000
  11515  11525     1   0.09730 310787.520000
  11516  11518     1   0.09730 310787.520000
  11517  11520     1   0.10969 276646.080000
  11517  11521     1   0.10969 276646.080000
  11519  11529     1   0.10190 328360.320000
  11522  11523     1   0.09730 310787.520000
  11527  11528     1   0.09730 310787.520000
  11530  11532     1   0.10969 276646.080000
  11531  11550     1   0.10969 276646.080000
  11533  11537     1   0.10969 276646.080000
  11534  11536     1   0.10969 276646.080000
  11535  11538     1   0.10961 277566.560000
  11539  11549     1   0.09730 310787.520000
  11540  11542     1   0.09730 310787.520000
  11541  11544     1   0.10969 276646.080000
  11541  11545     1   0.10969 276646.080000
  11543  11553     1   0.10190 328360.320000
  11546  11547     1   0.09730 310787.520000
  11551  11552     1   0.09730 310787.520000
  11555  11556     1   0.10129 337397.760000
  11557  11558     1   0.10969 276646.080000
  11557  11560     1   0.10969 276646.080000
  11559  11561     1   0.10969 276646.080000
  11559  11562     1   0.10969 276646.080000
  11563  11628     1   0.10304 312293.760000
  11564  11573     1   0.10969 276646.080000
  11564  11574     1   0.10969 276646.080000
  11565  11566     1   0.10969 276646.080000
  11565  11568     1   0.10969 276646.080000
  11567  11569     1   0.10969 276646.080000
  11567  11570     1   0.10969 276646.080000
  11575  11576     1   0.10969 276646.080000
  11575  11577     1   0.10969 276646.080000
  11580  11582     1   0.10969 276646.080000
  11581  11600     1   0.10969 276646.080000
  11583  11587     1   0.10969 276646.080000
  11584  11586     1   0.10969 276646.080000
  11585  11588     1   0.10961 277566.560000
  11589  11599     1   0.09730 310787.520000
  11590  11592     1   0.09730 310787.520000
  11591  11594     1   0.10969 276646.080000
  11591  11595     1   0.10969 276646.080000
  11593  11603     1   0.10190 328360.320000
  11596  11597     1   0.09730 310787.520000
  11601  11602     1   0.09730 310787.520000
  11604  11606     1   0.10969 276646.080000
  11605  11624     1   0.10969 276646.080000
  11607  11611     1   0.10969 276646.080000
  11608  11610     1   0.10969 276646.080000
  11609  11612     1   0.10961 277566.560000
  11613  11623     1   0.09730 310787.520000
  11614  11616     1   0.09730 310787.520000
  11615  11618     1   0.10969 276646.080000
  11615  11619     1   0.10969 276646.080000
  11617  11627     1   0.10190 328360.320000
  11620  11621     1   0.09730 310787.520000
  11625  11626     1   0.09730 310787.520000
  11629  11630     1   0.10129 337397.760000
  11631  11632     1   0.10969 276646.080000
  11631  11634     1   0.10969 276646.080000
  11633  11635     1   0.10969 276646.080000
  11633  11636     1   0.10969 276646.080000
  11637  11702     1   0.10304 312293.760000
  11638  11647     1   0.10969 276646.080000
  11638  11648     1   0.10969 276646.080000
  11639  11640     1   0.10969 276646.080000
  11639  11642     1   0.10969 276646.080000
  11641  11643     1   0.10969 276646.080000
  11641  11644     1   0.10969 276646.080000
  11649  11650     1   0.10969 276646.080000
  11649  11651     1   0.10969 276646.080000
  11654  11656     1   0.10969 276646.080000
  11655  11674     1   0.10969 276646.080000
  11657  11661     1   0.10969 276646.080000
  11658  11660     1   0.10969 276646.080000
  11659  11662     1   0.10961 277566.560000
  11663  11673     1   0.09730 310787.520000
  11664  11666     1   0.09730 310787.520000
  11665  11668     1   0.10969 276646.080000
  11665  11669     1   0.10969 276646.080000
  11667  11677     1   0.10190 328360.320000
  11670  11671     1   0.09730 310787.520000
  11675  11676     1   0.09730 310787.520000
  11678  11680     1   0.10969 276646.080000
  11679  11698     1   0.10969 276646.080000
  11681  11685     1   0.10969 276646.080000
  11682  11684     1   0.10969 276646.080000
  11683  11686     1   0.10961 277566.560000
  11687  11697     1   0.09730 310787.520000
  11688  11690     1   0.09730 310787.520000
  11689  11692     1   0.10969 276646.080000
  11689  11693     1   0.10969 276646.080000
  11691  11701     1   0.10190 328360.320000
  11694  11695     1   0.09730 310787.520000
  11699  11700     1   0.09730 310787.520000
  11703  11704     1   0.10129 337397.760000
  11705  11706     1   0.10969 276646.080000
  11705  11708     1   0.10969 276646.080000
  11707  11709     1   0.10969 276646.080000
  11707  11710     1   0.10969 276646.080000
  11711  11776     1   0.10304 312293.760000
  11712  11721     1   0.10969 276646.080000
  11712  11722     1   0.10969 276646.080000
  11713  11714     1   0.10969 276646.080000
  11713  11716     1   0.10969 276646.080000
  11715  11717     1   0.10969 276646.080000
  11715  11718     1   0.10969 276646.080000
  11723  11724     1   0.10969 276646.080000
  11723  11725     1   0.10969 276646.080000
  11728  11730     1   0.10969 276646.080000
  11729  11748     1   0.10969 276646.080000
  11731  11735     1   0.10969 276646.080000
  11732  11734     1   0.10969 276646.080000
  11733  11736     1   0.10961 277566.560000
  11737  11747     1   0.09730 310787.520000
  11738  11740     1   0.09730 310787.520000
  11739  11742     1   0.10969 276646.080000
  11739  11743     1   0.10969 276646.080000
  11741  11751     1   0.10190 328360.320000
  11744  11745     1   0.09730 310787.520000
  11749  11750     1   0.09730 310787.520000
  11752  11754     1   0.10969 276646.080000
  11753  11772     1   0.10969 276646.080000
  11755  11759     1   0.10969 276646.080000
  11756  11758     1   0.10969 276646.080000
  11757  11760     1   0.10961 277566.560000
  11761  11771     1   0.09730 310787.520000
  11762  11764     1   0.09730 310787.520000
  11763  11766     1   0.10969 276646.080000
  11763  11767     1   0.10969 276646.080000
  11765  11775     1   0.10190 328360.320000
  11768  11769     1   0.09730 310787.520000
  11773  11774     1   0.09730 310787.520000
  11777  11778     1   0.10129 337397.760000
  11779  11780     1   0.10969 276646.080000
  11779  11782     1   0.10969 276646.080000
  11781  11783     1   0.10969 276646.080000
  11781  11784     1   0.10969 276646.080000
  11785  11850     1   0.10304 312293.760000
  11786  11795     1   0.10969 276646.080000
  11786  11796     1   0.10969 276646.080000
  11787  11788     1   0.10969 276646.080000
  11787  11790     1   0.10969 276646.080000
  11789  11791     1   0.10969 276646.080000
  11789  11792     1   0.10969 276646.080000
  11797  11798     1   0.10969 276646.080000
  11797  11799     1   0.10969 276646.080000
  11802  11804     1   0.10969 276646.080000
  11803  11822     1   0.10969 276646.080000
  11805  11809     1   0.10969 276646.080000
  11806  11808     1   0.10969 276646.080000
  11807  11810     1   0.10961 277566.560000
  11811  11821     1   0.09730 310787.520000
  11812  11814     1   0.09730 310787.520000
  11813  11816     1   0.10969 276646.080000
  11813  11817     1   0.10969 276646.080000
  11815  11825     1   0.10190 328360.320000
  11818  11819     1   0.09730 310787.520000
  11823  11824     1   0.09730 310787.520000
  11826  11828     1   0.10969 276646.080000
  11827  11846     1   0.10969 276646.080000
  11829  11833     1   0.10969 276646.080000
  11830  11832     1   0.10969 276646.080000
  11831  11834     1   0.10961 277566.560000
  11835  11845     1   0.09730 310787.520000
  11836  11838     1   0.09730 310787.520000
  11837  11840     1   0.10969 276646.080000
  11837  11841     1   0.10969 276646.080000
  11839  11849     1   0.10190 328360.320000
  11842  11843     1   0.09730 310787.520000
  11847  11848     1   0.09730 310787.520000
  11851  11852     1   0.10129 337397.760000
  11853  11854     1   0.10969 276646.080000
  11853  11856     1   0.10969 276646.080000
  11855  11857     1   0.10969 276646.080000
  11855  11858     1   0.10969 276646.080000
  11859  11924     1   0.10304 312293.760000
  11860  11869     1   0.10969 276646.080000
  11860  11870     1   0.10969 276646.080000
  11861  11862     1   0.10969 276646.080000
  11861  11864     1   0.10969 276646.080000
  11863  11865     1   0.10969 276646.080000
  11863  11866     1   0.10969 276646.080000
  11871  11872     1   0.10969 276646.080000
  11871  11873     1   0.10969 276646.080000
  11876  11878     1   0.10969 276646.080000
  11877  11896     1   0.10969 276646.080000
  11879  11883     1   0.10969 276646.080000
  11880  11882     1   0.10969 276646.080000
  11881  11884     1   0.10961 277566.560000
  11885  11895     1   0.09730 310787.520000
  11886  11888     1   0.09730 310787.520000
  11887  11890     1   0.10969 276646.080000
  11887  11891     1   0.10969 276646.080000
  11889  11899     1   0.10190 328360.320000
  11892  11893     1   0.09730 310787.520000
  11897  11898     1   0.09730 310787.520000
  11900  11902     1   0.10969 276646.080000
  11901  11920     1   0.10969 276646.080000
  11903  11907     1   0.10969 276646.080000
  11904  11906     1   0.10969 276646.080000
  11905  11908     1   0.10961 277566.560000
  11909  11919     1   0.09730 310787.520000
  11910  11912     1   0.09730 310787.520000
  11911  11914     1   0.10969 276646.080000
  11911  11915     1   0.10969 276646.080000
  11913  11923     1   0.10190 328360.320000
  11916  11917     1   0.09730 310787.520000
  11921  11922     1   0.09730 310787.520000
  11925  11926     1   0.10129 337397.760000
  11927  11928     1   0.10969 276646.080000
  11927  11930     1   0.10969 276646.080000
  11929  11931     1   0.10969 276646.080000
  11929  11932     1   0.10969 276646.080000
  11933  11998     1   0.10304 312293.760000
  11934  11943     1   0.10969 276646.080000
  11934  11944     1   0.10969 276646.080000
  11935  11936     1   0.10969 276646.080000
  11935  11938     1   0.10969 276646.080000
  11937  11939     1   0.10969 276646.080000
  11937  11940     1   0.10969 276646.080000
  11945  11946     1   0.10969 276646.080000
  11945  11947     1   0.10969 276646.080000
  11950  11952     1   0.10969 276646.080000
  11951  11970     1   0.10969 276646.080000
  11953  11957     1   0.10969 276646.080000
  11954  11956     1   0.10969 276646.080000
  11955  11958     1   0.10961 277566.560000
  11959  11969     1   0.09730 310787.520000
  11960  11962     1   0.09730 310787.520000
  11961  11964     1   0.10969 276646.080000
  11961  11965     1   0.10969 276646.080000
  11963  11973     1   0.10190 328360.320000
  11966  11967     1   0.09730 310787.520000
  11971  11972     1   0.09730 310787.520000
  11974  11976     1   0.10969 276646.080000
  11975  11994     1   0.10969 276646.080000
  11977  11981     1   0.10969 276646.080000
  11978  11980     1   0.10969 276646.080000
  11979  11982     1   0.10961 277566.560000
  11983  11993     1   0.09730 310787.520000
  11984  11986     1   0.09730 310787.520000
  11985  11988     1   0.10969 276646.080000
  11985  11989     1   0.10969 276646.080000
  11987  11997     1   0.10190 328360.320000
  11990  11991     1   0.09730 310787.520000
  11995  11996     1   0.09730 310787.520000
  11999  12000     1   0.10129 337397.760000
  12001  12002     1   0.10969 276646.080000
  12001  12004     1   0.10969 276646.080000
  12003  12005     1   0.10969 276646.080000
  12003  12006     1   0.10969 276646.080000
  12007  12072     1   0.10304 312293.760000
  12008  12017     1   0.10969 276646.080000
  12008  12018     1   0.10969 276646.080000
  12009  12010     1   0.10969 276646.080000
  12009  12012     1   0.10969 276646.080000
  12011  12013     1   0.10969 276646.080000
  12011  12014     1   0.10969 276646.080000
  12019  12020     1   0.10969 276646.080000
  12019  12021     1   0.10969 276646.080000
  12024  12026     1   0.10969 276646.080000
  12025  12044     1   0.10969 276646.080000
  12027  12031     1   0.10969 276646.080000
  12028  12030     1   0.10969 276646.080000
  12029  12032     1   0.10961 277566.560000
  12033  12043     1   0.09730 310787.520000
  12034  12036     1   0.09730 310787.520000
  12035  12038     1   0.10969 276646.080000
  12035  12039     1   0.10969 276646.080000
  12037  12047     1   0.10190 328360.320000
  12040  12041     1   0.09730 310787.520000
  12045  12046     1   0.09730 310787.520000
  12048  12050     1   0.10969 276646.080000
  12049  12068     1   0.10969 276646.080000
  12051  12055     1   0.10969 276646.080000
  12052  12054     1   0.10969 276646.080000
  12053  12056     1   0.10961 277566.560000
  12057  12067     1   0.09730 310787.520000
  12058  12060     1   0.09730 310787.520000
  12059  12062     1   0.10969 276646.080000
  12059  12063     1   0.10969 276646.080000
  12061  12071     1   0.10190 328360.320000
  12064  12065     1   0.09730 310787.520000
  12069  12070     1   0.09730 310787.520000
  12073  12074     1   0.10129 337397.760000
  12075  12076     1   0.10969 276646.080000
  12075  12078     1   0.10969 276646.080000
  12077  12079     1   0.10969 276646.080000
  12077  12080     1   0.10969 276646.080000
  12081  12146     1   0.10304 312293.760000
  12082  12091     1   0.10969 276646.080000
  12082  12092     1   0.10969 276646.080000
  12083  12084     1   0.10969 276646.080000
  12083  12086     1   0.10969 276646.080000
  12085  12087     1   0.10969 276646.080000
  12085  12088     1   0.10969 276646.080000
  12093  12094     1   0.10969 276646.080000
  12093  12095     1   0.10969 276646.080000
  12098  12100     1   0.10969 276646.080000
  12099  12118     1   0.10969 276646.080000
  12101  12105     1   0.10969 276646.080000
  12102  12104     1   0.10969 276646.080000
  12103  12106     1   0.10961 277566.560000
  12107  12117     1   0.09730 310787.520000
  12108  12110     1   0.09730 310787.520000
  12109  12112     1   0.10969 276646.080000
  12109  12113     1   0.10969 276646.080000
  12111  12121     1   0.10190 328360.320000
  12114  12115     1   0.09730 310787.520000
  12119  12120     1   0.09730 310787.520000
  12122  12124     1   0.10969 276646.080000
  12123  12142     1   0.10969 276646.080000
  12125  12129     1   0.10969 276646.080000
  12126  12128     1   0.10969 276646.080000
  12127  12130     1   0.10961 277566.560000
  12131  12141     1   0.09730 310787.520000
  12132  12134     1   0.09730 310787.520000
  12133  12136     1   0.10969 276646.080000
  12133  12137     1   0.10969 276646.080000
  12135  12145     1   0.10190 328360.320000
  12138  12139     1   0.09730 310787.520000
  12143  12144     1   0.09730 310787.520000
  12147  12148     1   0.10129 337397.760000
  12149  12150     1   0.10969 276646.080000
  12149  12152     1   0.10969 276646.080000
  12151  12153     1   0.10969 276646.080000
  12151  12154     1   0.10969 276646.080000
  12155  12220     1   0.10304 312293.760000
  12156  12165     1   0.10969 276646.080000
  12156  12166     1   0.10969 276646.080000
  12157  12158     1   0.10969 276646.080000
  12157  12160     1   0.10969 276646.080000
  12159  12161     1   0.10969 276646.080000
  12159  12162     1   0.10969 276646.080000
  12167  12168     1   0.10969 276646.080000
  12167  12169     1   0.10969 276646.080000
  12172  12174     1   0.10969 276646.080000
  12173  12192     1   0.10969 276646.080000
  12175  12179     1   0.10969 276646.080000
  12176  12178     1   0.10969 276646.080000
  12177  12180     1   0.10961 277566.560000
  12181  12191     1   0.09730 310787.520000
  12182  12184     1   0.09730 310787.520000
  12183  12186     1   0.10969 276646.080000
  12183  12187     1   0.10969 276646.080000
  12185  12195     1   0.10190 328360.320000
  12188  12189     1   0.09730 310787.520000
  12193  12194     1   0.09730 310787.520000
  12196  12198     1   0.10969 276646.080000
  12197  12216     1   0.10969 276646.080000
  12199  12203     1   0.10969 276646.080000
  12200  12202     1   0.10969 276646.080000
  12201  12204     1   0.10961 277566.560000
  12205  12215     1   0.09730 310787.520000
  12206  12208     1   0.09730 310787.520000
  12207  12210     1   0.10969 276646.080000
  12207  12211     1   0.10969 276646.080000
  12209  12219     1   0.10190 328360.320000
  12212  12213     1   0.09730 310787.520000
  12217  12218     1   0.09730 310787.520000
  12221  12222     1   0.10129 337397.760000
  12223  12224     1   0.10969 276646.080000
  12223  12226     1   0.10969 276646.080000
  12225  12227     1   0.10969 276646.080000
  12225  12228     1   0.10969 276646.080000
  12229  12294     1   0.10304 312293.760000
  12230  12239     1   0.10969 276646.080000
  12230  12240     1   0.10969 276646.080000
  12231  12232     1   0.10969 276646.080000
  12231  12234     1   0.10969 276646.080000
  12233  12235     1   0.10969 276646.080000
  12233  12236     1   0.10969 276646.080000
  12241  12242     1   0.10969 276646.080000
  12241  12243     1   0.10969 276646.080000
  12246  12248     1   0.10969 276646.080000
  12247  12266     1   0.10969 276646.080000
  12249  12253     1   0.10969 276646.080000
  12250  12252     1   0.10969 276646.080000
  12251  12254     1   0.10961 277566.560000
  12255  12265     1   0.09730 310787.520000
  12256  12258     1   0.09730 310787.520000
  12257  12260     1   0.10969 276646.080000
  12257  12261     1   0.10969 276646.080000
  12259  12269     1   0.10190 328360.320000
  12262  12263     1   0.09730 310787.520000
  12267  12268     1   0.09730 310787.520000
  12270  12272     1   0.10969 276646.080000
  12271  12290     1   0.10969 276646.080000
  12273  12277     1   0.10969 276646.080000
  12274  12276     1   0.10969 276646.080000
  12275  12278     1   0.10961 277566.560000
  12279  12289     1   0.09730 310787.520000
  12280  12282     1   0.09730 310787.520000
  12281  12284     1   0.10969 276646.080000
  12281  12285     1   0.10969 276646.080000
  12283  12293     1   0.10190 328360.320000
  12286  12287     1   0.09730 310787.520000
  12291  12292     1   0.09730 310787.520000
  12295  12296     1   0.10129 337397.760000
  12297  12298     1   0.10969 276646.080000
  12297  12300     1   0.10969 276646.080000
  12299  12301     1   0.10969 276646.080000
  12299  12302     1   0.10969 276646.080000
  12303  12368     1   0.10304 312293.760000
  12304  12313     1   0.10969 276646.080000
  12304  12314     1   0.10969 276646.080000
  12305  12306     1   0.10969 276646.080000
  12305  12308     1   0.10969 276646.080000
  12307  12309     1   0.10969 276646.080000
  12307  12310     1   0.10969 276646.080000
  12315  12316     1   0.10969 276646.080000
  12315  12317     1   0.10969 276646.080000
  12320  12322     1   0.10969 276646.080000
  12321  12340     1   0.10969 276646.080000
  12323  12327     1   0.10969 276646.080000
  12324  12326     1   0.10969 276646.080000
  12325  12328     1   0.10961 277566.560000
  12329  12339     1   0.09730 310787.520000
  12330  12332     1   0.09730 310787.520000
  12331  12334     1   0.10969 276646.080000
  12331  12335     1   0.10969 276646.080000
  12333  12343     1   0.10190 328360.320000
  12336  12337     1   0.09730 310787.520000
  12341  12342     1   0.09730 310787.520000
  12344  12346     1   0.10969 276646.080000
  12345  12364     1   0.10969 276646.080000
  12347  12351     1   0.10969 276646.080000
  12348  12350     1   0.10969 276646.080000
  12349  12352     1   0.10961 277566.560000
  12353  12363     1   0.09730 310787.520000
  12354  12356     1   0.09730 310787.520000
  12355  12358     1   0.10969 276646.080000
  12355  12359     1   0.10969 276646.080000
  12357  12367     1   0.10190 328360.320000
  12360  12361     1   0.09730 310787.520000
  12365  12366     1   0.09730 310787.520000
  12369  12370     1   0.10129 337397.760000
  12371  12372     1   0.10969 276646.080000
  12371  12374     1   0.10969 276646.080000
  12373  12375     1   0.10969 276646.080000
  12373  12376     1   0.10969 276646.080000
  12377  12442     1   0.10304 312293.760000
  12378  12387     1   0.10969 276646.080000
  12378  12388     1   0.10969 276646.080000
  12379  12380     1   0.10969 276646.080000
  12379  12382     1   0.10969 276646.080000
  12381  12383     1   0.10969 276646.080000
  12381  12384     1   0.10969 276646.080000
  12389  12390     1   0.10969 276646.080000
  12389  12391     1   0.10969 276646.080000
  12394  12396     1   0.10969 276646.080000
  12395  12414     1   0.10969 276646.080000
  12397  12401     1   0.10969 276646.080000
  12398  12400     1   0.10969 276646.080000
  12399  12402     1   0.10961 277566.560000
  12403  12413     1   0.09730 310787.520000
  12404  12406     1   0.09730 310787.520000
  12405  12408     1   0.10969 276646.080000
  12405  12409     1   0.10969 276646.080000
  12407  12417     1   0.10190 328360.320000
  12410  12411     1   0.09730 310787.520000
  12415  12416     1   0.09730 310787.520000
  12418  12420     1   0.10969 276646.080000
  12419  12438     1   0.10969 276646.080000
  12421  12425     1   0.10969 276646.080000
  12422  12424     1   0.10969 276646.080000
  12423  12426     1   0.10961 277566.560000
  12427  12437     1   0.09730 310787.520000
  12428  12430     1   0.09730 310787.520000
  12429  12432     1   0.10969 276646.080000
  12429  12433     1   0.10969 276646.080000
  12431  12441     1   0.10190 328360.320000
  12434  12435     1   0.09730 310787.520000
  12439  12440     1   0.09730 310787.520000
  12443  12444     1   0.10129 337397.760000
  12445  12446     1   0.10969 276646.080000
  12445  12448     1   0.10969 276646.080000
  12447  12449     1   0.10969 276646.080000
  12447  12450     1   0.10969 276646.080000
  12451  12516     1   0.10304 312293.760000
  12452  12461     1   0.10969 276646.080000
  12452  12462     1   0.10969 276646.080000
  12453  12454     1   0.10969 276646.080000
  12453  12456     1   0.10969 276646.080000
  12455  12457     1   0.10969 276646.080000
  12455  12458     1   0.10969 276646.080000
  12463  12464     1   0.10969 276646.080000
  12463  12465     1   0.10969 276646.080000
  12468  12470     1   0.10969 276646.080000
  12469  12488     1   0.10969 276646.080000
  12471  12475     1   0.10969 276646.080000
  12472  12474     1   0.10969 276646.080000
  12473  12476     1   0.10961 277566.560000
  12477  12487     1   0.09730 310787.520000
  12478  12480     1   0.09730 310787.520000
  12479  12482     1   0.10969 276646.080000
  12479  12483     1   0.10969 276646.080000
  12481  12491     1   0.10190 328360.320000
  12484  12485     1   0.09730 310787.520000
  12489  12490     1   0.09730 310787.520000
  12492  12494     1   0.10969 276646.080000
  12493  12512     1   0.10969 276646.080000
  12495  12499     1   0.10969 276646.080000
  12496  12498     1   0.10969 276646.080000
  12497  12500     1   0.10961 277566.560000
  12501  12511     1   0.09730 310787.520000
  12502  12504     1   0.09730 310787.520000
  12503  12506     1   0.10969 276646.080000
  12503  12507     1   0.10969 276646.080000
  12505  12515     1   0.10190 328360.320000
  12508  12509     1   0.09730 310787.520000
  12513  12514     1   0.09730 310787.520000
  12517  12518     1   0.10129 337397.760000
  12519  12520     1   0.10969 276646.080000
  12519  12522     1   0.10969 276646.080000
  12521  12523     1   0.10969 276646.080000
  12521  12524     1   0.10969 276646.080000
  12525  12590     1   0.10304 312293.760000
  12526  12535     1   0.10969 276646.080000
  12526  12536     1   0.10969 276646.080000
  12527  12528     1   0.10969 276646.080000
  12527  12530     1   0.10969 276646.080000
  12529  12531     1   0.10969 276646.080000
  12529  12532     1   0.10969 276646.080000
  12537  12538     1   0.10969 276646.080000
  12537  12539     1   0.10969 276646.080000
  12542  12544     1   0.10969 276646.080000
  12543  12562     1   0.10969 276646.080000
  12545  12549     1   0.10969 276646.080000
  12546  12548     1   0.10969 276646.080000
  12547  12550     1   0.10961 277566.560000
  12551  12561     1   0.09730 310787.520000
  12552  12554     1   0.09730 310787.520000
  12553  12556     1   0.10969 276646.080000
  12553  12557     1   0.10969 276646.080000
  12555  12565     1   0.10190 328360.320000
  12558  12559     1   0.09730 310787.520000
  12563  12564     1   0.09730 310787.520000
  12566  12568     1   0.10969 276646.080000
  12567  12586     1   0.10969 276646.080000
  12569  12573     1   0.10969 276646.080000
  12570  12572     1   0.10969 276646.080000
  12571  12574     1   0.10961 277566.560000
  12575  12585     1   0.09730 310787.520000
  12576  12578     1   0.09730 310787.520000
  12577  12580     1   0.10969 276646.080000
  12577  12581     1   0.10969 276646.080000
  12579  12589     1   0.10190 328360.320000
  12582  12583     1   0.09730 310787.520000
  12587  12588     1   0.09730 310787.520000
  12591  12592     1   0.10129 337397.760000
  12593  12594     1   0.10969 276646.080000
  12593  12596     1   0.10969 276646.080000
  12595  12597     1   0.10969 276646.080000
  12595  12598     1   0.10969 276646.080000
  12599  12664     1   0.10304 312293.760000
  12600  12609     1   0.10969 276646.080000
  12600  12610     1   0.10969 276646.080000
  12601  12602     1   0.10969 276646.080000
  12601  12604     1   0.10969 276646.080000
  12603  12605     1   0.10969 276646.080000
  12603  12606     1   0.10969 276646.080000
  12611  12612     1   0.10969 276646.080000
  12611  12613     1   0.10969 276646.080000
  12616  12618     1   0.10969 276646.080000
  12617  12636     1   0.10969 276646.080000
  12619  12623     1   0.10969 276646.080000
  12620  12622     1   0.10969 276646.080000
  12621  12624     1   0.10961 277566.560000
  12625  12635     1   0.09730 310787.520000
  12626  12628     1   0.09730 310787.520000
  12627  12630     1   0.10969 276646.080000
  12627  12631     1   0.10969 276646.080000
  12629  12639     1   0.10190 328360.320000
  12632  12633     1   0.09730 310787.520000
  12637  12638     1   0.09730 310787.520000
  12640  12642     1   0.10969 276646.080000
  12641  12660     1   0.10969 276646.080000
  12643  12647     1   0.10969 276646.080000
  12644  12646     1   0.10969 276646.080000
  12645  12648     1   0.10961 277566.560000
  12649  12659     1   0.09730 310787.520000
  12650  12652     1   0.09730 310787.520000
  12651  12654     1   0.10969 276646.080000
  12651  12655     1   0.10969 276646.080000
  12653  12663     1   0.10190 328360.320000
  12656  12657     1   0.09730 310787.520000
  12661  12662     1   0.09730 310787.520000
  12665  12666     1   0.10129 337397.760000
  12667  12668     1   0.10969 276646.080000
  12667  12670     1   0.10969 276646.080000
  12669  12671     1   0.10969 276646.080000
  12669  12672     1   0.10969 276646.080000
  12673  12738     1   0.10304 312293.760000
  12674  12683     1   0.10969 276646.080000
  12674  12684     1   0.10969 276646.080000
  12675  12676     1   0.10969 276646.080000
  12675  12678     1   0.10969 276646.080000
  12677  12679     1   0.10969 276646.080000
  12677  12680     1   0.10969 276646.080000
  12685  12686     1   0.10969 276646.080000
  12685  12687     1   0.10969 276646.080000
  12690  12692     1   0.10969 276646.080000
  12691  12710     1   0.10969 276646.080000
  12693  12697     1   0.10969 276646.080000
  12694  12696     1   0.10969 276646.080000
  12695  12698     1   0.10961 277566.560000
  12699  12709     1   0.09730 310787.520000
  12700  12702     1   0.09730 310787.520000
  12701  12704     1   0.10969 276646.080000
  12701  12705     1   0.10969 276646.080000
  12703  12713     1   0.10190 328360.320000
  12706  12707     1   0.09730 310787.520000
  12711  12712     1   0.09730 310787.520000
  12714  12716     1   0.10969 276646.080000
  12715  12734     1   0.10969 276646.080000
  12717  12721     1   0.10969 276646.080000
  12718  12720     1   0.10969 276646.080000
  12719  12722     1   0.10961 277566.560000
  12723  12733     1   0.09730 310787.520000
  12724  12726     1   0.09730 310787.520000
  12725  12728     1   0.10969 276646.080000
  12725  12729     1   0.10969 276646.080000
  12727  12737     1   0.10190 328360.320000
  12730  12731     1   0.09730 310787.520000
  12735  12736     1   0.09730 310787.520000

[ pairs ]
;    ai     aj funct         c0         c1         c2         c3
      1      4     1
      1     14     1
      1     16     1
      2     13     1
      2     15     1
      2      5     1
      2      6     1
      7      3     1
      8      3     1
      3     11     1
      3      9     1
      4     12     1
      4     10     1
      5      9     1
      5     17     1
      5     78     1
      6     11     1
      6     18     1
      6     52     1
      7     15     1
      7     20     1
      7    104     1
      8     13     1
      8     19     1
      8    130     1
      9     51     1
     10     50     1
     11     77     1
     12     76     1
     13    103     1
     14    102     1
     15    129     1
     16    128     1
     17     77     1
     18     51     1
     19    129     1
     20    103     1
     43     47     1
     43     49     1
     43     52     1
     44     48     1
     44     51     1
     44     53     1
     44    156     1
     45     46     1
     45     51     1
     45     54     1
     45    182     1
     46     50     1
     46    155     1
     47    154     1
     48     50     1
     48    181     1
     49    180     1
     53    155     1
     54    181     1
     69     73     1
     69     75     1
     69     78     1
     70     74     1
     70     77     1
     70     79     1
     70    208     1
     71     72     1
     71     77     1
     71     80     1
     71    234     1
     72     76     1
     72    207     1
     73    206     1
     74     76     1
     74    233     1
     75    232     1
     79    207     1
     80    233     1
     95     99     1
     95    101     1
     95    104     1
     96    100     1
     96    103     1
     96    105     1
     96    260     1
     97     98     1
     97    103     1
     97    106     1
     97    286     1
     98    102     1
     98    259     1
     99    258     1
    100    102     1
    100    285     1
    101    284     1
    105    259     1
    106    285     1
    121    125     1
    121    127     1
    121    130     1
    122    126     1
    122    129     1
    122    131     1
    122    312     1
    123    124     1
    123    129     1
    123    132     1
    123    338     1
    124    128     1
    124    311     1
    125    310     1
    126    128     1
    126    337     1
    127    336     1
    131    311     1
    132    337     1
    147    151     1
    147    153     1
    147    156     1
    148    152     1
    148    155     1
    148    157     1
    148    364     1
    149    150     1
    149    155     1
    149    158     1
    149    390     1
    150    154     1
    150    363     1
    151    362     1
    152    154     1
    152    389     1
    153    388     1
    157    363     1
    158    389     1
    173    177     1
    173    179     1
    173    182     1
    174    178     1
    174    181     1
    174    183     1
    174    416     1
    175    176     1
    175    181     1
    175    184     1
    175    442     1
    176    180     1
    176    415     1
    177    414     1
    178    180     1
    178    441     1
    179    440     1
    183    415     1
    184    441     1
    199    203     1
    199    205     1
    199    208     1
    200    204     1
    200    207     1
    200    209     1
    200    468     1
    201    202     1
    201    207     1
    201    210     1
    201    494     1
    202    206     1
    202    467     1
    203    466     1
    204    206     1
    204    493     1
    205    492     1
    209    467     1
    210    493     1
    225    229     1
    225    231     1
    225    234     1
    226    230     1
    226    233     1
    226    235     1
    226    520     1
    227    228     1
    227    233     1
    227    236     1
    227    546     1
    228    232     1
    228    519     1
    229    518     1
    230    232     1
    230    545     1
    231    544     1
    235    519     1
    236    545     1
    251    255     1
    251    257     1
    251    260     1
    252    256     1
    252    259     1
    252    261     1
    252    572     1
    253    254     1
    253    259     1
    253    262     1
    253    598     1
    254    258     1
    254    571     1
    255    570     1
    256    258     1
    256    597     1
    257    596     1
    261    571     1
    262    597     1
    277    281     1
    277    283     1
    277    286     1
    278    282     1
    278    285     1
    278    287     1
    278    624     1
    279    280     1
    279    285     1
    279    288     1
    279    650     1
    280    284     1
    280    623     1
    281    622     1
    282    284     1
    282    649     1
    283    648     1
    287    623     1
    288    649     1
    303    307     1
    303    309     1
    303    312     1
    304    308     1
    304    311     1
    304    313     1
    304    676     1
    305    306     1
    305    311     1
    305    314     1
    305    702     1
    306    310     1
    306    675     1
    307    674     1
    308    310     1
    308    701     1
    309    700     1
    313    675     1
    314    701     1
    329    333     1
    329    335     1
    329    338     1
    330    334     1
    330    337     1
    330    339     1
    330    728     1
    331    332     1
    331    337     1
    331    340     1
    331    754     1
    332    336     1
    332    727     1
    333    726     1
    334    336     1
    334    753     1
    335    752     1
    339    727     1
    340    753     1
    355    359     1
    355    361     1
    355    364     1
    356    360     1
    356    363     1
    356    365     1
    356    780     1
    357    358     1
    357    363     1
    357    366     1
    357    806     1
    358    362     1
    358    779     1
    359    778     1
    360    362     1
    360    805     1
    361    804     1
    365    779     1
    366    805     1
    381    385     1
    381    387     1
    381    390     1
    382    386     1
    382    389     1
    382    391     1
    382    832     1
    383    384     1
    383    389     1
    383    392     1
    383    858     1
    384    388     1
    384    831     1
    385    830     1
    386    388     1
    386    857     1
    387    856     1
    391    831     1
    392    857     1
    407    411     1
    407    413     1
    407    416     1
    408    412     1
    408    415     1
    408    417     1
    408    884     1
    409    410     1
    409    415     1
    409    418     1
    409    910     1
    410    414     1
    410    883     1
    411    882     1
    412    414     1
    412    909     1
    413    908     1
    417    883     1
    418    909     1
    433    437     1
    433    439     1
    433    442     1
    434    438     1
    434    441     1
    434    443     1
    434    936     1
    435    436     1
    435    441     1
    435    444     1
    435    962     1
    436    440     1
    436    935     1
    437    934     1
    438    440     1
    438    961     1
    439    960     1
    443    935     1
    444    961     1
    459    463     1
    459    465     1
    459    468     1
    460    464     1
    460    467     1
    460    469     1
    460    988     1
    461    462     1
    461    467     1
    461    470     1
    461   1014     1
    462    466     1
    462    987     1
    463    986     1
    464    466     1
    464   1013     1
    465   1012     1
    469    987     1
    470   1013     1
    485    489     1
    485    491     1
    485    494     1
    486    490     1
    486    493     1
    486    495     1
    486   1040     1
    487    488     1
    487    493     1
    487    496     1
    487   1066     1
    488    492     1
    488   1039     1
    489   1038     1
    490    492     1
    490   1065     1
    491   1064     1
    495   1039     1
    496   1065     1
    511    515     1
    511    517     1
    511    520     1
    512    516     1
    512    519     1
    512    521     1
    512   1092     1
    513    514     1
    513    519     1
    513    522     1
    513   1118     1
    514    518     1
    514   1091     1
    515   1090     1
    516    518     1
    516   1117     1
    517   1116     1
    521   1091     1
    522   1117     1
    537    541     1
    537    543     1
    537    546     1
    538    542     1
    538    545     1
    538    547     1
    538   1144     1
    539    540     1
    539    545     1
    539    548     1
    539   1170     1
    540    544     1
    540   1143     1
    541   1142     1
    542    544     1
    542   1169     1
    543   1168     1
    547   1143     1
    548   1169     1
    563    567     1
    563    569     1
    563    572     1
    564    568     1
    564    571     1
    564    573     1
    564   1196     1
    565    566     1
    565    571     1
    565    574     1
    565   1222     1
    566    570     1
    566   1195     1
    567   1194     1
    568    570     1
    568   1221     1
    569   1220     1
    573   1195     1
    574   1221     1
    589    593     1
    589    595     1
    589    598     1
    590    594     1
    590    597     1
    590    599     1
    590   1248     1
    591    592     1
    591    597     1
    591    600     1
    591   1274     1
    592    596     1
    592   1247     1
    593   1246     1
    594    596     1
    594   1273     1
    595   1272     1
    599   1247     1
    600   1273     1
    615    619     1
    615    621     1
    615    624     1
    616    620     1
    616    623     1
    616    625     1
    616   1300     1
    617    618     1
    617    623     1
    617    626     1
    617   1326     1
    618    622     1
    618   1299     1
    619   1298     1
    620    622     1
    620   1325     1
    621   1324     1
    625   1299     1
    626   1325     1
    641    645     1
    641    647     1
    641    650     1
    642    646     1
    642    649     1
    642    651     1
    642   1352     1
    643    644     1
    643    649     1
    643    652     1
    643   1378     1
    644    648     1
    644   1351     1
    645   1350     1
    646    648     1
    646   1377     1
    647   1376     1
    651   1351     1
    652   1377     1
    667    671     1
    667    673     1
    667    676     1
    668    672     1
    668    675     1
    668    677     1
    668   1404     1
    669    670     1
    669    675     1
    669    678     1
    669   1430     1
    670    674     1
    670   1403     1
    671   1402     1
    672    674     1
    672   1429     1
    673   1428     1
    677   1403     1
    678   1429     1
    693    697     1
    693    699     1
    693    702     1
    694    698     1
    694    701     1
    694    703     1
    694   1456     1
    695    696     1
    695    701     1
    695    704     1
    695   1482     1
    696    700     1
    696   1455     1
    697   1454     1
    698    700     1
    698   1481     1
    699   1480     1
    703   1455     1
    704   1481     1
    719    723     1
    719    725     1
    719    728     1
    720    724     1
    720    727     1
    720    729     1
    720   1508     1
    721    722     1
    721    727     1
    721    730     1
    721   1534     1
    722    726     1
    722   1507     1
    723   1506     1
    724    726     1
    724   1533     1
    725   1532     1
    729   1507     1
    730   1533     1
    745    749     1
    745    751     1
    745    754     1
    746    750     1
    746    753     1
    746    755     1
    746   1560     1
    747    748     1
    747    753     1
    747    756     1
    747   1586     1
    748    752     1
    748   1559     1
    749   1558     1
    750    752     1
    750   1585     1
    751   1584     1
    755   1559     1
    756   1585     1
    771    775     1
    771    777     1
    771    780     1
    772    776     1
    772    779     1
    772    781     1
    772   1612     1
    773    774     1
    773    779     1
    773    782     1
    773   1638     1
    774    778     1
    774   1611     1
    775   1610     1
    776    778     1
    776   1637     1
    777   1636     1
    781   1611     1
    782   1637     1
    797    801     1
    797    803     1
    797    806     1
    798    802     1
    798    805     1
    798    807     1
    798   1664     1
    799    800     1
    799    805     1
    799    808     1
    799   1690     1
    800    804     1
    800   1663     1
    801   1662     1
    802    804     1
    802   1689     1
    803   1688     1
    807   1663     1
    808   1689     1
    823    827     1
    823    829     1
    823    832     1
    824    828     1
    824    831     1
    824    833     1
    824   1716     1
    825    826     1
    825    831     1
    825    834     1
    825   1742     1
    826    830     1
    826   1715     1
    827   1714     1
    828    830     1
    828   1741     1
    829   1740     1
    833   1715     1
    834   1741     1
    849    853     1
    849    855     1
    849    858     1
    850    854     1
    850    857     1
    850    859     1
    850   1768     1
    851    852     1
    851    857     1
    851    860     1
    851   1794     1
    852    856     1
    852   1767     1
    853   1766     1
    854    856     1
    854   1793     1
    855   1792     1
    859   1767     1
    860   1793     1
    875    879     1
    875    881     1
    875    884     1
    876    880     1
    876    883     1
    876    885     1
    876   1820     1
    877    878     1
    877    883     1
    877    886     1
    877   1846     1
    878    882     1
    878   1819     1
    879   1818     1
    880    882     1
    880   1845     1
    881   1844     1
    885   1819     1
    886   1845     1
    901    905     1
    901    907     1
    901    910     1
    902    906     1
    902    909     1
    902    911     1
    902   1872     1
    903    904     1
    903    909     1
    903    912     1
    903   1898     1
    904    908     1
    904   1871     1
    905   1870     1
    906    908     1
    906   1897     1
    907   1896     1
    911   1871     1
    912   1897     1
    927    931     1
    927    933     1
    927    936     1
    928    932     1
    928    935     1
    928    937     1
    928   1924     1
    929    930     1
    929    935     1
    929    938     1
    929   1950     1
    930    934     1
    930   1923     1
    931   1922     1
    932    934     1
    932   1949     1
    933   1948     1
    937   1923     1
    938   1949     1
    953    957     1
    953    959     1
    953    962     1
    954    958     1
    954    961     1
    954    963     1
    954   1976     1
    955    956     1
    955    961     1
    955    964     1
    955   2002     1
    956    960     1
    956   1975     1
    957   1974     1
    958    960     1
    958   2001     1
    959   2000     1
    963   1975     1
    964   2001     1
    979    983     1
    979    985     1
    979    988     1
    980    984     1
    980    987     1
    980    989     1
    980   2028     1
    981    982     1
    981    987     1
    981    990     1
    981   2054     1
    982    986     1
    982   2027     1
    983   2026     1
    984    986     1
    984   2053     1
    985   2052     1
    989   2027     1
    990   2053     1
   1005   1009     1
   1005   1011     1
   1005   1014     1
   1006   1010     1
   1006   1013     1
   1006   1015     1
   1006   2080     1
   1007   1008     1
   1007   1013     1
   1007   1016     1
   1007   2106     1
   1008   1012     1
   1008   2079     1
   1009   2078     1
   1010   1012     1
   1010   2105     1
   1011   2104     1
   1015   2079     1
   1016   2105     1
   1031   1035     1
   1031   1037     1
   1031   1040     1
   1032   1036     1
   1032   1039     1
   1032   1041     1
   1032   2132     1
   1033   1034     1
   1033   1039     1
   1033   1042     1
   1033   2158     1
   1034   1038     1
   1034   2131     1
   1035   2130     1
   1036   1038     1
   1036   2157     1
   1037   2156     1
   1041   2131     1
   1042   2157     1
   1057   1061     1
   1057   1063     1
   1057   1066     1
   1058   1062     1
   1058   1065     1
   1058   1067     1
   1058   2184     1
   1059   1060     1
   1059   1065     1
   1059   1068     1
   1059   2210     1
   1060   1064     1
   1060   2183     1
   1061   2182     1
   1062   1064     1
   1062   2209     1
   1063   2208     1
   1067   2183     1
   1068   2209     1
   1083   1087     1
   1083   1089     1
   1083   1092     1
   1084   1088     1
   1084   1091     1
   1084   1093     1
   1084   2236     1
   1085   1086     1
   1085   1091     1
   1085   1094     1
   1085   2262     1
   1086   1090     1
   1086   2235     1
   1087   2234     1
   1088   1090     1
   1088   2261     1
   1089   2260     1
   1093   2235     1
   1094   2261     1
   1109   1113     1
   1109   1115     1
   1109   1118     1
   1110   1114     1
   1110   1117     1
   1110   1119     1
   1110   2288     1
   1111   1112     1
   1111   1117     1
   1111   1120     1
   1111   2314     1
   1112   1116     1
   1112   2287     1
   1113   2286     1
   1114   1116     1
   1114   2313     1
   1115   2312     1
   1119   2287     1
   1120   2313     1
   1135   1139     1
   1135   1141     1
   1135   1144     1
   1136   1140     1
   1136   1143     1
   1136   1145     1
   1136   2340     1
   1137   1138     1
   1137   1143     1
   1137   1146     1
   1137   2366     1
   1138   1142     1
   1138   2339     1
   1139   2338     1
   1140   1142     1
   1140   2365     1
   1141   2364     1
   1145   2339     1
   1146   2365     1
   1161   1165     1
   1161   1167     1
   1161   1170     1
   1162   1166     1
   1162   1169     1
   1162   1171     1
   1162   2392     1
   1163   1164     1
   1163   1169     1
   1163   1172     1
   1163   2418     1
   1164   1168     1
   1164   2391     1
   1165   2390     1
   1166   1168     1
   1166   2417     1
   1167   2416     1
   1171   2391     1
   1172   2417     1
   1187   1191     1
   1187   1193     1
   1187   1196     1
   1188   1192     1
   1188   1195     1
   1188   1197     1
   1188   2444     1
   1189   1190     1
   1189   1195     1
   1189   1198     1
   1189   2470     1
   1190   1194     1
   1190   2443     1
   1191   2442     1
   1192   1194     1
   1192   2469     1
   1193   2468     1
   1197   2443     1
   1198   2469     1
   1213   1217     1
   1213   1219     1
   1213   1222     1
   1214   1218     1
   1214   1221     1
   1214   1223     1
   1214   2496     1
   1215   1216     1
   1215   1221     1
   1215   1224     1
   1215   2522     1
   1216   1220     1
   1216   2495     1
   1217   2494     1
   1218   1220     1
   1218   2521     1
   1219   2520     1
   1223   2495     1
   1224   2521     1
   1239   1243     1
   1239   1245     1
   1239   1248     1
   1240   1244     1
   1240   1247     1
   1240   1249     1
   1240   2548     1
   1241   1242     1
   1241   1247     1
   1241   1250     1
   1241   2574     1
   1242   1246     1
   1242   2547     1
   1243   2546     1
   1244   1246     1
   1244   2573     1
   1245   2572     1
   1249   2547     1
   1250   2573     1
   1265   1269     1
   1265   1271     1
   1265   1274     1
   1266   1270     1
   1266   1273     1
   1266   1275     1
   1266   2600     1
   1267   1268     1
   1267   1273     1
   1267   1276     1
   1267   2626     1
   1268   1272     1
   1268   2599     1
   1269   2598     1
   1270   1272     1
   1270   2625     1
   1271   2624     1
   1275   2599     1
   1276   2625     1
   1291   1295     1
   1291   1297     1
   1291   1300     1
   1292   1296     1
   1292   1299     1
   1292   1301     1
   1292   2652     1
   1293   1294     1
   1293   1299     1
   1293   1302     1
   1293   2678     1
   1294   1298     1
   1294   2651     1
   1295   2650     1
   1296   1298     1
   1296   2677     1
   1297   2676     1
   1301   2651     1
   1302   2677     1
   1317   1321     1
   1317   1323     1
   1317   1326     1
   1318   1322     1
   1318   1325     1
   1318   1327     1
   1318   2704     1
   1319   1320     1
   1319   1325     1
   1319   1328     1
   1319   2730     1
   1320   1324     1
   1320   2703     1
   1321   2702     1
   1322   1324     1
   1322   2729     1
   1323   2728     1
   1327   2703     1
   1328   2729     1
   1343   1347     1
   1343   1349     1
   1343   1352     1
   1344   1348     1
   1344   1351     1
   1344   1353     1
   1344   2756     1
   1345   1346     1
   1345   1351     1
   1345   1354     1
   1345   2782     1
   1346   1350     1
   1346   2755     1
   1347   2754     1
   1348   1350     1
   1348   2781     1
   1349   2780     1
   1353   2755     1
   1354   2781     1
   1369   1373     1
   1369   1375     1
   1369   1378     1
   1370   1374     1
   1370   1377     1
   1370   1379     1
   1370   2808     1
   1371   1372     1
   1371   1377     1
   1371   1380     1
   1371   2834     1
   1372   1376     1
   1372   2807     1
   1373   2806     1
   1374   1376     1
   1374   2833     1
   1375   2832     1
   1379   2807     1
   1380   2833     1
   1395   1399     1
   1395   1401     1
   1395   1404     1
   1396   1400     1
   1396   1403     1
   1396   1405     1
   1396   2860     1
   1397   1398     1
   1397   1403     1
   1397   1406     1
   1397   2886     1
   1398   1402     1
   1398   2859     1
   1399   2858     1
   1400   1402     1
   1400   2885     1
   1401   2884     1
   1405   2859     1
   1406   2885     1
   1421   1425     1
   1421   1427     1
   1421   1430     1
   1422   1426     1
   1422   1429     1
   1422   1431     1
   1422   2912     1
   1423   1424     1
   1423   1429     1
   1423   1432     1
   1423   2938     1
   1424   1428     1
   1424   2911     1
   1425   2910     1
   1426   1428     1
   1426   2937     1
   1427   2936     1
   1431   2911     1
   1432   2937     1
   1447   1451     1
   1447   1453     1
   1447   1456     1
   1448   1452     1
   1448   1455     1
   1448   1457     1
   1448   2964     1
   1449   1450     1
   1449   1455     1
   1449   1458     1
   1449   2990     1
   1450   1454     1
   1450   2963     1
   1451   2962     1
   1452   1454     1
   1452   2989     1
   1453   2988     1
   1457   2963     1
   1458   2989     1
   1473   1477     1
   1473   1479     1
   1473   1482     1
   1474   1478     1
   1474   1481     1
   1474   1483     1
   1474   3016     1
   1475   1476     1
   1475   1481     1
   1475   1484     1
   1475   3042     1
   1476   1480     1
   1476   3015     1
   1477   3014     1
   1478   1480     1
   1478   3041     1
   1479   3040     1
   1483   3015     1
   1484   3041     1
   1499   1503     1
   1499   1505     1
   1499   1508     1
   1500   1504     1
   1500   1507     1
   1500   1509     1
   1500   3068     1
   1501   1502     1
   1501   1507     1
   1501   1510     1
   1501   3094     1
   1502   1506     1
   1502   3067     1
   1503   3066     1
   1504   1506     1
   1504   3093     1
   1505   3092     1
   1509   3067     1
   1510   3093     1
   1525   1529     1
   1525   1531     1
   1525   1534     1
   1526   1530     1
   1526   1533     1
   1526   1535     1
   1526   3120     1
   1527   1528     1
   1527   1533     1
   1527   1536     1
   1527   3146     1
   1528   1532     1
   1528   3119     1
   1529   3118     1
   1530   1532     1
   1530   3145     1
   1531   3144     1
   1535   3119     1
   1536   3145     1
   1551   1555     1
   1551   1557     1
   1551   1560     1
   1552   1556     1
   1552   1559     1
   1552   1561     1
   1552   3172     1
   1553   1554     1
   1553   1559     1
   1553   1562     1
   1553   3198     1
   1554   1558     1
   1554   3171     1
   1555   3170     1
   1556   1558     1
   1556   3197     1
   1557   3196     1
   1561   3171     1
   1562   3197     1
   1577   1581     1
   1577   1583     1
   1577   1586     1
   1578   1582     1
   1578   1585     1
   1578   1587     1
   1578   3224     1
   1579   1580     1
   1579   1585     1
   1579   1588     1
   1579   3250     1
   1580   1584     1
   1580   3223     1
   1581   3222     1
   1582   1584     1
   1582   3249     1
   1583   3248     1
   1587   3223     1
   1588   3249     1
   1603   1607     1
   1603   1609     1
   1603   1612     1
   1604   1608     1
   1604   1611     1
   1604   3267     1
   1604   1613     1
   1605   1606     1
   1605   1611     1
   1605   1614     1
   1605   3341     1
   1606   1610     1
   1606   3269     1
   1607   3271     1
   1608   1610     1
   1608   3343     1
   1609   3345     1
   1613   3269     1
   1614   3343     1
   1629   1633     1
   1629   1635     1
   1629   1638     1
   1630   1634     1
   1630   1637     1
   1630   3415     1
   1630   1639     1
   1631   1632     1
   1631   1637     1
   1631   1640     1
   1631   3489     1
   1632   1636     1
   1632   3417     1
   1633   3419     1
   1634   1636     1
   1634   3491     1
   1635   3493     1
   1639   3417     1
   1640   3491     1
   1655   1659     1
   1655   1661     1
   1655   1664     1
   1656   1660     1
   1656   1663     1
   1656   3563     1
   1656   1665     1
   1657   1658     1
   1657   1663     1
   1657   1666     1
   1657   3637     1
   1658   1662     1
   1658   3565     1
   1659   3567     1
   1660   1662     1
   1660   3639     1
   1661   3641     1
   1665   3565     1
   1666   3639     1
   1681   1685     1
   1681   1687     1
   1681   1690     1
   1682   1686     1
   1682   1689     1
   1682   3711     1
   1682   1691     1
   1683   1684     1
   1683   1689     1
   1683   1692     1
   1683   3785     1
   1684   1688     1
   1684   3713     1
   1685   3715     1
   1686   1688     1
   1686   3787     1
   1687   3789     1
   1691   3713     1
   1692   3787     1
   1707   1711     1
   1707   1713     1
   1707   1716     1
   1708   1712     1
   1708   1715     1
   1708   3859     1
   1708   1717     1
   1709   1710     1
   1709   1715     1
   1709   1718     1
   1709   3933     1
   1710   1714     1
   1710   3861     1
   1711   3863     1
   1712   1714     1
   1712   3935     1
   1713   3937     1
   1717   3861     1
   1718   3935     1
   1733   1737     1
   1733   1739     1
   1733   1742     1
   1734   1738     1
   1734   1741     1
   1734   4007     1
   1734   1743     1
   1735   1736     1
   1735   1741     1
   1735   1744     1
   1735   4081     1
   1736   1740     1
   1736   4009     1
   1737   4011     1
   1738   1740     1
   1738   4083     1
   1739   4085     1
   1743   4009     1
   1744   4083     1
   1759   1763     1
   1759   1765     1
   1759   1768     1
   1760   1764     1
   1760   1767     1
   1760   4155     1
   1760   1769     1
   1761   1762     1
   1761   1767     1
   1761   1770     1
   1761   4229     1
   1762   1766     1
   1762   4157     1
   1763   4159     1
   1764   1766     1
   1764   4231     1
   1765   4233     1
   1769   4157     1
   1770   4231     1
   1785   1789     1
   1785   1791     1
   1785   1794     1
   1786   1790     1
   1786   1793     1
   1786   4303     1
   1786   1795     1
   1787   1788     1
   1787   1793     1
   1787   1796     1
   1787   4377     1
   1788   1792     1
   1788   4305     1
   1789   4307     1
   1790   1792     1
   1790   4379     1
   1791   4381     1
   1795   4305     1
   1796   4379     1
   1811   1815     1
   1811   1817     1
   1811   1820     1
   1812   1816     1
   1812   1819     1
   1812   4451     1
   1812   1821     1
   1813   1814     1
   1813   1819     1
   1813   1822     1
   1813   4525     1
   1814   1818     1
   1814   4453     1
   1815   4455     1
   1816   1818     1
   1816   4527     1
   1817   4529     1
   1821   4453     1
   1822   4527     1
   1837   1841     1
   1837   1843     1
   1837   1846     1
   1838   1842     1
   1838   1845     1
   1838   4599     1
   1838   1847     1
   1839   1840     1
   1839   1845     1
   1839   1848     1
   1839   4673     1
   1840   1844     1
   1840   4601     1
   1841   4603     1
   1842   1844     1
   1842   4675     1
   1843   4677     1
   1847   4601     1
   1848   4675     1
   1863   1867     1
   1863   1869     1
   1863   1872     1
   1864   1868     1
   1864   1871     1
   1864   4747     1
   1864   1873     1
   1865   1866     1
   1865   1871     1
   1865   1874     1
   1865   4821     1
   1866   1870     1
   1866   4749     1
   1867   4751     1
   1868   1870     1
   1868   4823     1
   1869   4825     1
   1873   4749     1
   1874   4823     1
   1889   1893     1
   1889   1895     1
   1889   1898     1
   1890   1894     1
   1890   1897     1
   1890   4895     1
   1890   1899     1
   1891   1892     1
   1891   1897     1
   1891   1900     1
   1891   4969     1
   1892   1896     1
   1892   4897     1
   1893   4899     1
   1894   1896     1
   1894   4971     1
   1895   4973     1
   1899   4897     1
   1900   4971     1
   1915   1919     1
   1915   1921     1
   1915   1924     1
   1916   1920     1
   1916   1923     1
   1916   5043     1
   1916   1925     1
   1917   1918     1
   1917   1923     1
   1917   1926     1
   1917   5117     1
   1918   1922     1
   1918   5045     1
   1919   5047     1
   1920   1922     1
   1920   5119     1
   1921   5121     1
   1925   5045     1
   1926   5119     1
   1941   1945     1
   1941   1947     1
   1941   1950     1
   1942   1946     1
   1942   1949     1
   1942   5191     1
   1942   1951     1
   1943   1944     1
   1943   1949     1
   1943   1952     1
   1943   5265     1
   1944   1948     1
   1944   5193     1
   1945   5195     1
   1946   1948     1
   1946   5267     1
   1947   5269     1
   1951   5193     1
   1952   5267     1
   1967   1971     1
   1967   1973     1
   1967   1976     1
   1968   1972     1
   1968   1975     1
   1968   5339     1
   1968   1977     1
   1969   1970     1
   1969   1975     1
   1969   1978     1
   1969   5413     1
   1970   1974     1
   1970   5341     1
   1971   5343     1
   1972   1974     1
   1972   5415     1
   1973   5417     1
   1977   5341     1
   1978   5415     1
   1993   1997     1
   1993   1999     1
   1993   2002     1
   1994   1998     1
   1994   2001     1
   1994   5487     1
   1994   2003     1
   1995   1996     1
   1995   2001     1
   1995   2004     1
   1995   5561     1
   1996   2000     1
   1996   5489     1
   1997   5491     1
   1998   2000     1
   1998   5563     1
   1999   5565     1
   2003   5489     1
   2004   5563     1
   2019   2023     1
   2019   2025     1
   2019   2028     1
   2020   2024     1
   2020   2027     1
   2020   5635     1
   2020   2029     1
   2021   2022     1
   2021   2027     1
   2021   2030     1
   2021   5709     1
   2022   2026     1
   2022   5637     1
   2023   5639     1
   2024   2026     1
   2024   5711     1
   2025   5713     1
   2029   5637     1
   2030   5711     1
   2045   2049     1
   2045   2051     1
   2045   2054     1
   2046   2050     1
   2046   2053     1
   2046   5783     1
   2046   2055     1
   2047   2048     1
   2047   2053     1
   2047   2056     1
   2047   5857     1
   2048   2052     1
   2048   5785     1
   2049   5787     1
   2050   2052     1
   2050   5859     1
   2051   5861     1
   2055   5785     1
   2056   5859     1
   2071   2075     1
   2071   2077     1
   2071   2080     1
   2072   2076     1
   2072   2079     1
   2072   5931     1
   2072   2081     1
   2073   2074     1
   2073   2079     1
   2073   2082     1
   2073   6005     1
   2074   2078     1
   2074   5933     1
   2075   5935     1
   2076   2078     1
   2076   6007     1
   2077   6009     1
   2081   5933     1
   2082   6007     1
   2097   2101     1
   2097   2103     1
   2097   2106     1
   2098   2102     1
   2098   2105     1
   2098   6079     1
   2098   2107     1
   2099   2100     1
   2099   2105     1
   2099   2108     1
   2099   6153     1
   2100   2104     1
   2100   6081     1
   2101   6083     1
   2102   2104     1
   2102   6155     1
   2103   6157     1
   2107   6081     1
   2108   6155     1
   2123   2127     1
   2123   2129     1
   2123   2132     1
   2124   2128     1
   2124   2131     1
   2124   6227     1
   2124   2133     1
   2125   2126     1
   2125   2131     1
   2125   2134     1
   2125   6301     1
   2126   2130     1
   2126   6229     1
   2127   6231     1
   2128   2130     1
   2128   6303     1
   2129   6305     1
   2133   6229     1
   2134   6303     1
   2149   2153     1
   2149   2155     1
   2149   2158     1
   2150   2154     1
   2150   2157     1
   2150   6375     1
   2150   2159     1
   2151   2152     1
   2151   2157     1
   2151   2160     1
   2151   6449     1
   2152   2156     1
   2152   6377     1
   2153   6379     1
   2154   2156     1
   2154   6451     1
   2155   6453     1
   2159   6377     1
   2160   6451     1
   2175   2179     1
   2175   2181     1
   2175   2184     1
   2176   2180     1
   2176   2183     1
   2176   6523     1
   2176   2185     1
   2177   2178     1
   2177   2183     1
   2177   2186     1
   2177   6597     1
   2178   2182     1
   2178   6525     1
   2179   6527     1
   2180   2182     1
   2180   6599     1
   2181   6601     1
   2185   6525     1
   2186   6599     1
   2201   2205     1
   2201   2207     1
   2201   2210     1
   2202   2206     1
   2202   2209     1
   2202   6671     1
   2202   2211     1
   2203   2204     1
   2203   2209     1
   2203   2212     1
   2203   6745     1
   2204   2208     1
   2204   6673     1
   2205   6675     1
   2206   2208     1
   2206   6747     1
   2207   6749     1
   2211   6673     1
   2212   6747     1
   2227   2231     1
   2227   2233     1
   2227   2236     1
   2228   2232     1
   2228   2235     1
   2228   6819     1
   2228   2237     1
   2229   2230     1
   2229   2235     1
   2229   2238     1
   2229   6893     1
   2230   2234     1
   2230   6821     1
   2231   6823     1
   2232   2234     1
   2232   6895     1
   2233   6897     1
   2237   6821     1
   2238   6895     1
   2253   2257     1
   2253   2259     1
   2253   2262     1
   2254   2258     1
   2254   2261     1
   2254   6967     1
   2254   2263     1
   2255   2256     1
   2255   2261     1
   2255   2264     1
   2255   7041     1
   2256   2260     1
   2256   6969     1
   2257   6971     1
   2258   2260     1
   2258   7043     1
   2259   7045     1
   2263   6969     1
   2264   7043     1
   2279   2283     1
   2279   2285     1
   2279   2288     1
   2280   2284     1
   2280   2287     1
   2280   7115     1
   2280   2289     1
   2281   2282     1
   2281   2287     1
   2281   2290     1
   2281   7189     1
   2282   2286     1
   2282   7117     1
   2283   7119     1
   2284   2286     1
   2284   7191     1
   2285   7193     1
   2289   7117     1
   2290   7191     1
   2305   2309     1
   2305   2311     1
   2305   2314     1
   2306   2310     1
   2306   2313     1
   2306   7263     1
   2306   2315     1
   2307   2308     1
   2307   2313     1
   2307   2316     1
   2307   7337     1
   2308   2312     1
   2308   7265     1
   2309   7267     1
   2310   2312     1
   2310   7339     1
   2311   7341     1
   2315   7265     1
   2316   7339     1
   2331   2335     1
   2331   2337     1
   2331   2340     1
   2332   2336     1
   2332   2339     1
   2332   7411     1
   2332   2341     1
   2333   2334     1
   2333   2339     1
   2333   2342     1
   2333   7485     1
   2334   2338     1
   2334   7413     1
   2335   7415     1
   2336   2338     1
   2336   7487     1
   2337   7489     1
   2341   7413     1
   2342   7487     1
   2357   2361     1
   2357   2363     1
   2357   2366     1
   2358   2362     1
   2358   2365     1
   2358   7559     1
   2358   2367     1
   2359   2360     1
   2359   2365     1
   2359   2368     1
   2359   7633     1
   2360   2364     1
   2360   7561     1
   2361   7563     1
   2362   2364     1
   2362   7635     1
   2363   7637     1
   2367   7561     1
   2368   7635     1
   2383   2387     1
   2383   2389     1
   2383   2392     1
   2384   2388     1
   2384   2391     1
   2384   7707     1
   2384   2393     1
   2385   2386     1
   2385   2391     1
   2385   2394     1
   2385   7781     1
   2386   2390     1
   2386   7709     1
   2387   7711     1
   2388   2390     1
   2388   7783     1
   2389   7785     1
   2393   7709     1
   2394   7783     1
   2409   2413     1
   2409   2415     1
   2409   2418     1
   2410   2414     1
   2410   2417     1
   2410   7855     1
   2410   2419     1
   2411   2412     1
   2411   2417     1
   2411   2420     1
   2411   7929     1
   2412   2416     1
   2412   7857     1
   2413   7859     1
   2414   2416     1
   2414   7931     1
   2415   7933     1
   2419   7857     1
   2420   7931     1
   2435   2439     1
   2435   2441     1
   2435   2444     1
   2436   2440     1
   2436   2443     1
   2436   8003     1
   2436   2445     1
   2437   2438     1
   2437   2443     1
   2437   2446     1
   2437   8077     1
   2438   2442     1
   2438   8005     1
   2439   8007     1
   2440   2442     1
   2440   8079     1
   2441   8081     1
   2445   8005     1
   2446   8079     1
   2461   2465     1
   2461   2467     1
   2461   2470     1
   2462   2466     1
   2462   2469     1
   2462   8151     1
   2462   2471     1
   2463   2464     1
   2463   2469     1
   2463   2472     1
   2463   8225     1
   2464   2468     1
   2464   8153     1
   2465   8155     1
   2466   2468     1
   2466   8227     1
   2467   8229     1
   2471   8153     1
   2472   8227     1
   2487   2491     1
   2487   2493     1
   2487   2496     1
   2488   2492     1
   2488   2495     1
   2488   8299     1
   2488   2497     1
   2489   2490     1
   2489   2495     1
   2489   2498     1
   2489   8373     1
   2490   2494     1
   2490   8301     1
   2491   8303     1
   2492   2494     1
   2492   8375     1
   2493   8377     1
   2497   8301     1
   2498   8375     1
   2513   2517     1
   2513   2519     1
   2513   2522     1
   2514   2518     1
   2514   2521     1
   2514   8447     1
   2514   2523     1
   2515   2516     1
   2515   2521     1
   2515   2524     1
   2515   8521     1
   2516   2520     1
   2516   8449     1
   2517   8451     1
   2518   2520     1
   2518   8523     1
   2519   8525     1
   2523   8449     1
   2524   8523     1
   2539   2543     1
   2539   2545     1
   2539   2548     1
   2540   2544     1
   2540   2547     1
   2540   8595     1
   2540   2549     1
   2541   2542     1
   2541   2547     1
   2541   2550     1
   2541   8669     1
   2542   2546     1
   2542   8597     1
   2543   8599     1
   2544   2546     1
   2544   8671     1
   2545   8673     1
   2549   8597     1
   2550   8671     1
   2565   2569     1
   2565   2571     1
   2565   2574     1
   2566   2570     1
   2566   2573     1
   2566   8743     1
   2566   2575     1
   2567   2568     1
   2567   2573     1
   2567   2576     1
   2567   8817     1
   2568   2572     1
   2568   8745     1
   2569   8747     1
   2570   2572     1
   2570   8819     1
   2571   8821     1
   2575   8745     1
   2576   8819     1
   2591   2595     1
   2591   2597     1
   2591   2600     1
   2592   2596     1
   2592   2599     1
   2592   8891     1
   2592   2601     1
   2593   2594     1
   2593   2599     1
   2593   2602     1
   2593   8965     1
   2594   2598     1
   2594   8893     1
   2595   8895     1
   2596   2598     1
   2596   8967     1
   2597   8969     1
   2601   8893     1
   2602   8967     1
   2617   2621     1
   2617   2623     1
   2617   2626     1
   2618   2622     1
   2618   2625     1
   2618   9039     1
   2618   2627     1
   2619   2620     1
   2619   2625     1
   2619   2628     1
   2619   9113     1
   2620   2624     1
   2620   9041     1
   2621   9043     1
   2622   2624     1
   2622   9115     1
   2623   9117     1
   2627   9041     1
   2628   9115     1
   2643   2647     1
   2643   2649     1
   2643   2652     1
   2644   2648     1
   2644   2651     1
   2644   9187     1
   2644   2653     1
   2645   2646     1
   2645   2651     1
   2645   2654     1
   2645   9261     1
   2646   2650     1
   2646   9189     1
   2647   9191     1
   2648   2650     1
   2648   9263     1
   2649   9265     1
   2653   9189     1
   2654   9263     1
   2669   2673     1
   2669   2675     1
   2669   2678     1
   2670   2674     1
   2670   2677     1
   2670   9335     1
   2670   2679     1
   2671   2672     1
   2671   2677     1
   2671   2680     1
   2671   9409     1
   2672   2676     1
   2672   9337     1
   2673   9339     1
   2674   2676     1
   2674   9411     1
   2675   9413     1
   2679   9337     1
   2680   9411     1
   2695   2699     1
   2695   2701     1
   2695   2704     1
   2696   2700     1
   2696   2703     1
   2696   9483     1
   2696   2705     1
   2697   2698     1
   2697   2703     1
   2697   2706     1
   2697   9557     1
   2698   2702     1
   2698   9485     1
   2699   9487     1
   2700   2702     1
   2700   9559     1
   2701   9561     1
   2705   9485     1
   2706   9559     1
   2721   2725     1
   2721   2727     1
   2721   2730     1
   2722   2726     1
   2722   2729     1
   2722   9631     1
   2722   2731     1
   2723   2724     1
   2723   2729     1
   2723   2732     1
   2723   9705     1
   2724   2728     1
   2724   9633     1
   2725   9635     1
   2726   2728     1
   2726   9707     1
   2727   9709     1
   2731   9633     1
   2732   9707     1
   2747   2751     1
   2747   2753     1
   2747   2756     1
   2748   2752     1
   2748   2755     1
   2748   9779     1
   2748   2757     1
   2749   2750     1
   2749   2755     1
   2749   2758     1
   2749   9853     1
   2750   2754     1
   2750   9781     1
   2751   9783     1
   2752   2754     1
   2752   9855     1
   2753   9857     1
   2757   9781     1
   2758   9855     1
   2773   2777     1
   2773   2779     1
   2773   2782     1
   2774   2778     1
   2774   2781     1
   2774   9927     1
   2774   2783     1
   2775   2776     1
   2775   2781     1
   2775   2784     1
   2775  10001     1
   2776   2780     1
   2776   9929     1
   2777   9931     1
   2778   2780     1
   2778  10003     1
   2779  10005     1
   2783   9929     1
   2784  10003     1
   2799   2803     1
   2799   2805     1
   2799   2808     1
   2800   2804     1
   2800   2807     1
   2800  10075     1
   2800   2809     1
   2801   2802     1
   2801   2807     1
   2801   2810     1
   2801  10149     1
   2802   2806     1
   2802  10077     1
   2803  10079     1
   2804   2806     1
   2804  10151     1
   2805  10153     1
   2809  10077     1
   2810  10151     1
   2825   2829     1
   2825   2831     1
   2825   2834     1
   2826   2830     1
   2826   2833     1
   2826  10223     1
   2826   2835     1
   2827   2828     1
   2827   2833     1
   2827   2836     1
   2827  10297     1
   2828   2832     1
   2828  10225     1
   2829  10227     1
   2830   2832     1
   2830  10299     1
   2831  10301     1
   2835  10225     1
   2836  10299     1
   2851   2855     1
   2851   2857     1
   2851   2860     1
   2852   2856     1
   2852   2859     1
   2852  10371     1
   2852   2861     1
   2853   2854     1
   2853   2859     1
   2853   2862     1
   2853  10445     1
   2854   2858     1
   2854  10373     1
   2855  10375     1
   2856   2858     1
   2856  10447     1
   2857  10449     1
   2861  10373     1
   2862  10447     1
   2877   2881     1
   2877   2883     1
   2877   2886     1
   2878   2882     1
   2878   2885     1
   2878  10519     1
   2878   2887     1
   2879   2880     1
   2879   2885     1
   2879   2888     1
   2879  10593     1
   2880   2884     1
   2880  10521     1
   2881  10523     1
   2882   2884     1
   2882  10595     1
   2883  10597     1
   2887  10521     1
   2888  10595     1
   2903   2907     1
   2903   2909     1
   2903   2912     1
   2904   2908     1
   2904   2911     1
   2904  10667     1
   2904   2913     1
   2905   2906     1
   2905   2911     1
   2905   2914     1
   2905  10741     1
   2906   2910     1
   2906  10669     1
   2907  10671     1
   2908   2910     1
   2908  10743     1
   2909  10745     1
   2913  10669     1
   2914  10743     1
   2929   2933     1
   2929   2935     1
   2929   2938     1
   2930   2934     1
   2930   2937     1
   2930  10815     1
   2930   2939     1
   2931   2932     1
   2931   2937     1
   2931   2940     1
   2931  10889     1
   2932   2936     1
   2932  10817     1
   2933  10819     1
   2934   2936     1
   2934  10891     1
   2935  10893     1
   2939  10817     1
   2940  10891     1
   2955   2959     1
   2955   2961     1
   2955   2964     1
   2956   2960     1
   2956   2963     1
   2956  10963     1
   2956   2965     1
   2957   2958     1
   2957   2963     1
   2957   2966     1
   2957  11037     1
   2958   2962     1
   2958  10965     1
   2959  10967     1
   2960   2962     1
   2960  11039     1
   2961  11041     1
   2965  10965     1
   2966  11039     1
   2981   2985     1
   2981   2987     1
   2981   2990     1
   2982   2986     1
   2982   2989     1
   2982  11111     1
   2982   2991     1
   2983   2984     1
   2983   2989     1
   2983   2992     1
   2983  11185     1
   2984   2988     1
   2984  11113     1
   2985  11115     1
   2986   2988     1
   2986  11187     1
   2987  11189     1
   2991  11113     1
   2992  11187     1
   3007   3011     1
   3007   3013     1
   3007   3016     1
   3008   3012     1
   3008   3015     1
   3008  11259     1
   3008   3017     1
   3009   3010     1
   3009   3015     1
   3009   3018     1
   3009  11333     1
   3010   3014     1
   3010  11261     1
   3011  11263     1
   3012   3014     1
   3012  11335     1
   3013  11337     1
   3017  11261     1
   3018  11335     1
   3033   3037     1
   3033   3039     1
   3033   3042     1
   3034   3038     1
   3034   3041     1
   3034  11407     1
   3034   3043     1
   3035   3036     1
   3035   3041     1
   3035   3044     1
   3035  11481     1
   3036   3040     1
   3036  11409     1
   3037  11411     1
   3038   3040     1
   3038  11483     1
   3039  11485     1
   3043  11409     1
   3044  11483     1
   3059   3063     1
   3059   3065     1
   3059   3068     1
   3060   3064     1
   3060   3067     1
   3060  11555     1
   3060   3069     1
   3061   3062     1
   3061   3067     1
   3061   3070     1
   3061  11629     1
   3062   3066     1
   3062  11557     1
   3063  11559     1
   3064   3066     1
   3064  11631     1
   3065  11633     1
   3069  11557     1
   3070  11631     1
   3085   3089     1
   3085   3091     1
   3085   3094     1
   3086   3090     1
   3086   3093     1
   3086  11703     1
   3086   3095     1
   3087   3088     1
   3087   3093     1
   3087   3096     1
   3087  11777     1
   3088   3092     1
   3088  11705     1
   3089  11707     1
   3090   3092     1
   3090  11779     1
   3091  11781     1
   3095  11705     1
   3096  11779     1
   3111   3115     1
   3111   3117     1
   3111   3120     1
   3112   3116     1
   3112   3119     1
   3112  11851     1
   3112   3121     1
   3113   3114     1
   3113   3119     1
   3113   3122     1
   3113  11925     1
   3114   3118     1
   3114  11853     1
   3115  11855     1
   3116   3118     1
   3116  11927     1
   3117  11929     1
   3121  11853     1
   3122  11927     1
   3137   3141     1
   3137   3143     1
   3137   3146     1
   3138   3142     1
   3138   3145     1
   3138  11999     1
   3138   3147     1
   3139   3140     1
   3139   3145     1
   3139   3148     1
   3139  12073     1
   3140   3144     1
   3140  12001     1
   3141  12003     1
   3142   3144     1
   3142  12075     1
   3143  12077     1
   3147  12001     1
   3148  12075     1
   3163   3167     1
   3163   3169     1
   3163   3172     1
   3164   3168     1
   3164   3171     1
   3164  12147     1
   3164   3173     1
   3165   3166     1
   3165   3171     1
   3165   3174     1
   3165  12221     1
   3166   3170     1
   3166  12149     1
   3167  12151     1
   3168   3170     1
   3168  12223     1
   3169  12225     1
   3173  12149     1
   3174  12223     1
   3189   3193     1
   3189   3195     1
   3189   3198     1
   3190   3194     1
   3190   3197     1
   3190  12295     1
   3190   3199     1
   3191   3192     1
   3191   3197     1
   3191   3200     1
   3191  12369     1
   3192   3196     1
   3192  12297     1
   3193  12299     1
   3194   3196     1
   3194  12371     1
   3195  12373     1
   3199  12297     1
   3200  12371     1
   3215   3219     1
   3215   3221     1
   3215   3224     1
   3216   3220     1
   3216   3223     1
   3216  12443     1
   3216   3225     1
   3217   3218     1
   3217   3223     1
   3217   3226     1
   3217  12517     1
   3218   3222     1
   3218  12445     1
   3219  12447     1
   3220   3222     1
   3220  12519     1
   3221  12521     1
   3225  12445     1
   3226  12519     1
   3241   3245     1
   3241   3247     1
   3241   3250     1
   3242   3246     1
   3242   3249     1
   3242  12591     1
   3242   3251     1
   3243   3244     1
   3243   3249     1
   3243  12665     1
   3243   3252     1
   3244   3248     1
   3244  12593     1
   3245  12595     1
   3246   3248     1
   3246  12667     1
   3247  12669     1
   3251  12593     1
   3252  12667     1
   3267   3275     1
   3269   3276     1
   3269   3277     1
   3271   3287     1
   3271   3279     1
   3275   3290     1
   3275   3283     1
   3276   3279     1
   3276   3291     1
   3276   3339     1
   3277   3287     1
   3277   3284     1
   3277   3315     1
   3279   3296     1
   3283   3295     1
   3283   3297     1
   3284   3296     1
   3287   3320     1
   3290   3319     1
   3290   3321     1
   3291   3320     1
   3292   3296     1
   3292   3302     1
   3292   3301     1
   3293   3308     1
   3293   3297     1
   3293   3315     1
   3295   3303     1
   3295   3310     1
   3295   3301     1
   3296   3313     1
   3297   3302     1
   3297   3303     1
   3301   3315     1
   3302   3313     1
   3302   3315     1
   3303   3313     1
   3308   3310     1
   3310   3313     1
   3310   3315     1
   3316   3320     1
   3316   3326     1
   3316   3325     1
   3317   3332     1
   3317   3321     1
   3317   3339     1
   3319   3327     1
   3319   3334     1
   3319   3325     1
   3320   3337     1
   3321   3326     1
   3321   3327     1
   3325   3339     1
   3326   3337     1
   3326   3339     1
   3327   3337     1
   3332   3334     1
   3334   3337     1
   3334   3339     1
   3341   3349     1
   3343   3350     1
   3343   3351     1
   3345   3361     1
   3345   3353     1
   3349   3364     1
   3349   3357     1
   3350   3365     1
   3350   3413     1
   3350   3353     1
   3351   3358     1
   3351   3389     1
   3351   3361     1
   3353   3370     1
   3357   3371     1
   3357   3369     1
   3358   3370     1
   3361   3394     1
   3364   3395     1
   3364   3393     1
   3365   3394     1
   3366   3370     1
   3366   3376     1
   3366   3375     1
   3367   3371     1
   3367   3389     1
   3367   3382     1
   3369   3375     1
   3369   3384     1
   3369   3377     1
   3370   3387     1
   3371   3377     1
   3371   3376     1
   3375   3389     1
   3376   3389     1
   3376   3387     1
   3377   3387     1
   3382   3384     1
   3384   3389     1
   3384   3387     1
   3390   3394     1
   3390   3400     1
   3390   3399     1
   3391   3395     1
   3391   3413     1
   3391   3406     1
   3393   3399     1
   3393   3408     1
   3393   3401     1
   3394   3411     1
   3395   3401     1
   3395   3400     1
   3399   3413     1
   3400   3413     1
   3400   3411     1
   3401   3411     1
   3406   3408     1
   3408   3413     1
   3408   3411     1
   3415   3423     1
   3417   3424     1
   3417   3425     1
   3419   3435     1
   3419   3427     1
   3423   3438     1
   3423   3431     1
   3424   3427     1
   3424   3439     1
   3424   3487     1
   3425   3435     1
   3425   3432     1
   3425   3463     1
   3427   3444     1
   3431   3443     1
   3431   3445     1
   3432   3444     1
   3435   3468     1
   3438   3467     1
   3438   3469     1
   3439   3468     1
   3440   3444     1
   3440   3450     1
   3440   3449     1
   3441   3456     1
   3441   3445     1
   3441   3463     1
   3443   3451     1
   3443   3458     1
   3443   3449     1
   3444   3461     1
   3445   3450     1
   3445   3451     1
   3449   3463     1
   3450   3461     1
   3450   3463     1
   3451   3461     1
   3456   3458     1
   3458   3461     1
   3458   3463     1
   3464   3468     1
   3464   3474     1
   3464   3473     1
   3465   3480     1
   3465   3469     1
   3465   3487     1
   3467   3475     1
   3467   3482     1
   3467   3473     1
   3468   3485     1
   3469   3474     1
   3469   3475     1
   3473   3487     1
   3474   3485     1
   3474   3487     1
   3475   3485     1
   3480   3482     1
   3482   3485     1
   3482   3487     1
   3489   3497     1
   3491   3498     1
   3491   3499     1
   3493   3509     1
   3493   3501     1
   3497   3512     1
   3497   3505     1
   3498   3513     1
   3498   3561     1
   3498   3501     1
   3499   3506     1
   3499   3537     1
   3499   3509     1
   3501   3518     1
   3505   3519     1
   3505   3517     1
   3506   3518     1
   3509   3542     1
   3512   3543     1
   3512   3541     1
   3513   3542     1
   3514   3518     1
   3514   3524     1
   3514   3523     1
   3515   3519     1
   3515   3537     1
   3515   3530     1
   3517   3523     1
   3517   3532     1
   3517   3525     1
   3518   3535     1
   3519   3525     1
   3519   3524     1
   3523   3537     1
   3524   3537     1
   3524   3535     1
   3525   3535     1
   3530   3532     1
   3532   3537     1
   3532   3535     1
   3538   3542     1
   3538   3548     1
   3538   3547     1
   3539   3543     1
   3539   3561     1
   3539   3554     1
   3541   3547     1
   3541   3556     1
   3541   3549     1
   3542   3559     1
   3543   3549     1
   3543   3548     1
   3547   3561     1
   3548   3561     1
   3548   3559     1
   3549   3559     1
   3554   3556     1
   3556   3561     1
   3556   3559     1
   3563   3571     1
   3565   3572     1
   3565   3573     1
   3567   3583     1
   3567   3575     1
   3571   3586     1
   3571   3579     1
   3572   3575     1
   3572   3587     1
   3572   3635     1
   3573   3583     1
   3573   3580     1
   3573   3611     1
   3575   3592     1
   3579   3591     1
   3579   3593     1
   3580   3592     1
   3583   3616     1
   3586   3615     1
   3586   3617     1
   3587   3616     1
   3588   3592     1
   3588   3598     1
   3588   3597     1
   3589   3604     1
   3589   3593     1
   3589   3611     1
   3591   3599     1
   3591   3606     1
   3591   3597     1
   3592   3609     1
   3593   3598     1
   3593   3599     1
   3597   3611     1
   3598   3609     1
   3598   3611     1
   3599   3609     1
   3604   3606     1
   3606   3609     1
   3606   3611     1
   3612   3616     1
   3612   3622     1
   3612   3621     1
   3613   3628     1
   3613   3617     1
   3613   3635     1
   3615   3623     1
   3615   3630     1
   3615   3621     1
   3616   3633     1
   3617   3622     1
   3617   3623     1
   3621   3635     1
   3622   3633     1
   3622   3635     1
   3623   3633     1
   3628   3630     1
   3630   3633     1
   3630   3635     1
   3637   3645     1
   3639   3646     1
   3639   3647     1
   3641   3657     1
   3641   3649     1
   3645   3660     1
   3645   3653     1
   3646   3661     1
   3646   3709     1
   3646   3649     1
   3647   3654     1
   3647   3685     1
   3647   3657     1
   3649   3666     1
   3653   3667     1
   3653   3665     1
   3654   3666     1
   3657   3690     1
   3660   3691     1
   3660   3689     1
   3661   3690     1
   3662   3666     1
   3662   3672     1
   3662   3671     1
   3663   3667     1
   3663   3685     1
   3663   3678     1
   3665   3671     1
   3665   3680     1
   3665   3673     1
   3666   3683     1
   3667   3673     1
   3667   3672     1
   3671   3685     1
   3672   3685     1
   3672   3683     1
   3673   3683     1
   3678   3680     1
   3680   3685     1
   3680   3683     1
   3686   3690     1
   3686   3696     1
   3686   3695     1
   3687   3691     1
   3687   3709     1
   3687   3702     1
   3689   3695     1
   3689   3704     1
   3689   3697     1
   3690   3707     1
   3691   3697     1
   3691   3696     1
   3695   3709     1
   3696   3709     1
   3696   3707     1
   3697   3707     1
   3702   3704     1
   3704   3709     1
   3704   3707     1
   3711   3719     1
   3713   3720     1
   3713   3721     1
   3715   3731     1
   3715   3723     1
   3719   3734     1
   3719   3727     1
   3720   3723     1
   3720   3735     1
   3720   3783     1
   3721   3731     1
   3721   3728     1
   3721   3759     1
   3723   3740     1
   3727   3739     1
   3727   3741     1
   3728   3740     1
   3731   3764     1
   3734   3763     1
   3734   3765     1
   3735   3764     1
   3736   3740     1
   3736   3746     1
   3736   3745     1
   3737   3752     1
   3737   3741     1
   3737   3759     1
   3739   3747     1
   3739   3754     1
   3739   3745     1
   3740   3757     1
   3741   3746     1
   3741   3747     1
   3745   3759     1
   3746   3757     1
   3746   3759     1
   3747   3757     1
   3752   3754     1
   3754   3757     1
   3754   3759     1
   3760   3764     1
   3760   3770     1
   3760   3769     1
   3761   3776     1
   3761   3765     1
   3761   3783     1
   3763   3771     1
   3763   3778     1
   3763   3769     1
   3764   3781     1
   3765   3770     1
   3765   3771     1
   3769   3783     1
   3770   3781     1
   3770   3783     1
   3771   3781     1
   3776   3778     1
   3778   3781     1
   3778   3783     1
   3785   3793     1
   3787   3794     1
   3787   3795     1
   3789   3805     1
   3789   3797     1
   3793   3808     1
   3793   3801     1
   3794   3809     1
   3794   3857     1
   3794   3797     1
   3795   3802     1
   3795   3833     1
   3795   3805     1
   3797   3814     1
   3801   3815     1
   3801   3813     1
   3802   3814     1
   3805   3838     1
   3808   3839     1
   3808   3837     1
   3809   3838     1
   3810   3814     1
   3810   3820     1
   3810   3819     1
   3811   3815     1
   3811   3833     1
   3811   3826     1
   3813   3819     1
   3813   3828     1
   3813   3821     1
   3814   3831     1
   3815   3821     1
   3815   3820     1
   3819   3833     1
   3820   3833     1
   3820   3831     1
   3821   3831     1
   3826   3828     1
   3828   3833     1
   3828   3831     1
   3834   3838     1
   3834   3844     1
   3834   3843     1
   3835   3839     1
   3835   3857     1
   3835   3850     1
   3837   3843     1
   3837   3852     1
   3837   3845     1
   3838   3855     1
   3839   3845     1
   3839   3844     1
   3843   3857     1
   3844   3857     1
   3844   3855     1
   3845   3855     1
   3850   3852     1
   3852   3857     1
   3852   3855     1
   3859   3867     1
   3861   3868     1
   3861   3869     1
   3863   3879     1
   3863   3871     1
   3867   3882     1
   3867   3875     1
   3868   3871     1
   3868   3883     1
   3868   3931     1
   3869   3879     1
   3869   3876     1
   3869   3907     1
   3871   3888     1
   3875   3887     1
   3875   3889     1
   3876   3888     1
   3879   3912     1
   3882   3911     1
   3882   3913     1
   3883   3912     1
   3884   3888     1
   3884   3894     1
   3884   3893     1
   3885   3900     1
   3885   3889     1
   3885   3907     1
   3887   3895     1
   3887   3902     1
   3887   3893     1
   3888   3905     1
   3889   3894     1
   3889   3895     1
   3893   3907     1
   3894   3905     1
   3894   3907     1
   3895   3905     1
   3900   3902     1
   3902   3905     1
   3902   3907     1
   3908   3912     1
   3908   3918     1
   3908   3917     1
   3909   3924     1
   3909   3913     1
   3909   3931     1
   3911   3919     1
   3911   3926     1
   3911   3917     1
   3912   3929     1
   3913   3918     1
   3913   3919     1
   3917   3931     1
   3918   3929     1
   3918   3931     1
   3919   3929     1
   3924   3926     1
   3926   3929     1
   3926   3931     1
   3933   3941     1
   3935   3942     1
   3935   3943     1
   3937   3953     1
   3937   3945     1
   3941   3956     1
   3941   3949     1
   3942   3957     1
   3942   4005     1
   3942   3945     1
   3943   3950     1
   3943   3981     1
   3943   3953     1
   3945   3962     1
   3949   3963     1
   3949   3961     1
   3950   3962     1
   3953   3986     1
   3956   3987     1
   3956   3985     1
   3957   3986     1
   3958   3962     1
   3958   3968     1
   3958   3967     1
   3959   3963     1
   3959   3981     1
   3959   3974     1
   3961   3967     1
   3961   3976     1
   3961   3969     1
   3962   3979     1
   3963   3969     1
   3963   3968     1
   3967   3981     1
   3968   3981     1
   3968   3979     1
   3969   3979     1
   3974   3976     1
   3976   3981     1
   3976   3979     1
   3982   3986     1
   3982   3992     1
   3982   3991     1
   3983   3987     1
   3983   4005     1
   3983   3998     1
   3985   3991     1
   3985   4000     1
   3985   3993     1
   3986   4003     1
   3987   3993     1
   3987   3992     1
   3991   4005     1
   3992   4005     1
   3992   4003     1
   3993   4003     1
   3998   4000     1
   4000   4005     1
   4000   4003     1
   4007   4015     1
   4009   4016     1
   4009   4017     1
   4011   4027     1
   4011   4019     1
   4015   4030     1
   4015   4023     1
   4016   4019     1
   4016   4031     1
   4016   4079     1
   4017   4027     1
   4017   4024     1
   4017   4055     1
   4019   4036     1
   4023   4035     1
   4023   4037     1
   4024   4036     1
   4027   4060     1
   4030   4059     1
   4030   4061     1
   4031   4060     1
   4032   4036     1
   4032   4042     1
   4032   4041     1
   4033   4048     1
   4033   4037     1
   4033   4055     1
   4035   4043     1
   4035   4050     1
   4035   4041     1
   4036   4053     1
   4037   4042     1
   4037   4043     1
   4041   4055     1
   4042   4053     1
   4042   4055     1
   4043   4053     1
   4048   4050     1
   4050   4053     1
   4050   4055     1
   4056   4060     1
   4056   4066     1
   4056   4065     1
   4057   4072     1
   4057   4061     1
   4057   4079     1
   4059   4067     1
   4059   4074     1
   4059   4065     1
   4060   4077     1
   4061   4066     1
   4061   4067     1
   4065   4079     1
   4066   4077     1
   4066   4079     1
   4067   4077     1
   4072   4074     1
   4074   4077     1
   4074   4079     1
   4081   4089     1
   4083   4090     1
   4083   4091     1
   4085   4101     1
   4085   4093     1
   4089   4104     1
   4089   4097     1
   4090   4105     1
   4090   4153     1
   4090   4093     1
   4091   4098     1
   4091   4129     1
   4091   4101     1
   4093   4110     1
   4097   4111     1
   4097   4109     1
   4098   4110     1
   4101   4134     1
   4104   4135     1
   4104   4133     1
   4105   4134     1
   4106   4110     1
   4106   4116     1
   4106   4115     1
   4107   4111     1
   4107   4129     1
   4107   4122     1
   4109   4115     1
   4109   4124     1
   4109   4117     1
   4110   4127     1
   4111   4117     1
   4111   4116     1
   4115   4129     1
   4116   4129     1
   4116   4127     1
   4117   4127     1
   4122   4124     1
   4124   4129     1
   4124   4127     1
   4130   4134     1
   4130   4140     1
   4130   4139     1
   4131   4135     1
   4131   4153     1
   4131   4146     1
   4133   4139     1
   4133   4148     1
   4133   4141     1
   4134   4151     1
   4135   4141     1
   4135   4140     1
   4139   4153     1
   4140   4153     1
   4140   4151     1
   4141   4151     1
   4146   4148     1
   4148   4153     1
   4148   4151     1
   4155   4163     1
   4157   4164     1
   4157   4165     1
   4159   4175     1
   4159   4167     1
   4163   4178     1
   4163   4171     1
   4164   4167     1
   4164   4179     1
   4164   4227     1
   4165   4175     1
   4165   4172     1
   4165   4203     1
   4167   4184     1
   4171   4183     1
   4171   4185     1
   4172   4184     1
   4175   4208     1
   4178   4207     1
   4178   4209     1
   4179   4208     1
   4180   4184     1
   4180   4190     1
   4180   4189     1
   4181   4196     1
   4181   4185     1
   4181   4203     1
   4183   4191     1
   4183   4198     1
   4183   4189     1
   4184   4201     1
   4185   4190     1
   4185   4191     1
   4189   4203     1
   4190   4201     1
   4190   4203     1
   4191   4201     1
   4196   4198     1
   4198   4201     1
   4198   4203     1
   4204   4208     1
   4204   4214     1
   4204   4213     1
   4205   4220     1
   4205   4209     1
   4205   4227     1
   4207   4215     1
   4207   4222     1
   4207   4213     1
   4208   4225     1
   4209   4214     1
   4209   4215     1
   4213   4227     1
   4214   4225     1
   4214   4227     1
   4215   4225     1
   4220   4222     1
   4222   4225     1
   4222   4227     1
   4229   4237     1
   4231   4238     1
   4231   4239     1
   4233   4249     1
   4233   4241     1
   4237   4252     1
   4237   4245     1
   4238   4253     1
   4238   4301     1
   4238   4241     1
   4239   4246     1
   4239   4277     1
   4239   4249     1
   4241   4258     1
   4245   4259     1
   4245   4257     1
   4246   4258     1
   4249   4282     1
   4252   4283     1
   4252   4281     1
   4253   4282     1
   4254   4258     1
   4254   4264     1
   4254   4263     1
   4255   4259     1
   4255   4277     1
   4255   4270     1
   4257   4263     1
   4257   4272     1
   4257   4265     1
   4258   4275     1
   4259   4265     1
   4259   4264     1
   4263   4277     1
   4264   4277     1
   4264   4275     1
   4265   4275     1
   4270   4272     1
   4272   4277     1
   4272   4275     1
   4278   4282     1
   4278   4288     1
   4278   4287     1
   4279   4283     1
   4279   4301     1
   4279   4294     1
   4281   4287     1
   4281   4296     1
   4281   4289     1
   4282   4299     1
   4283   4289     1
   4283   4288     1
   4287   4301     1
   4288   4301     1
   4288   4299     1
   4289   4299     1
   4294   4296     1
   4296   4301     1
   4296   4299     1
   4303   4311     1
   4305   4312     1
   4305   4313     1
   4307   4323     1
   4307   4315     1
   4311   4326     1
   4311   4319     1
   4312   4315     1
   4312   4327     1
   4312   4375     1
   4313   4323     1
   4313   4320     1
   4313   4351     1
   4315   4332     1
   4319   4331     1
   4319   4333     1
   4320   4332     1
   4323   4356     1
   4326   4355     1
   4326   4357     1
   4327   4356     1
   4328   4332     1
   4328   4338     1
   4328   4337     1
   4329   4344     1
   4329   4333     1
   4329   4351     1
   4331   4339     1
   4331   4346     1
   4331   4337     1
   4332   4349     1
   4333   4338     1
   4333   4339     1
   4337   4351     1
   4338   4349     1
   4338   4351     1
   4339   4349     1
   4344   4346     1
   4346   4349     1
   4346   4351     1
   4352   4356     1
   4352   4362     1
   4352   4361     1
   4353   4368     1
   4353   4357     1
   4353   4375     1
   4355   4363     1
   4355   4370     1
   4355   4361     1
   4356   4373     1
   4357   4362     1
   4357   4363     1
   4361   4375     1
   4362   4373     1
   4362   4375     1
   4363   4373     1
   4368   4370     1
   4370   4373     1
   4370   4375     1
   4377   4385     1
   4379   4386     1
   4379   4387     1
   4381   4397     1
   4381   4389     1
   4385   4400     1
   4385   4393     1
   4386   4401     1
   4386   4449     1
   4386   4389     1
   4387   4394     1
   4387   4425     1
   4387   4397     1
   4389   4406     1
   4393   4407     1
   4393   4405     1
   4394   4406     1
   4397   4430     1
   4400   4431     1
   4400   4429     1
   4401   4430     1
   4402   4406     1
   4402   4412     1
   4402   4411     1
   4403   4407     1
   4403   4425     1
   4403   4418     1
   4405   4411     1
   4405   4420     1
   4405   4413     1
   4406   4423     1
   4407   4413     1
   4407   4412     1
   4411   4425     1
   4412   4425     1
   4412   4423     1
   4413   4423     1
   4418   4420     1
   4420   4425     1
   4420   4423     1
   4426   4430     1
   4426   4436     1
   4426   4435     1
   4427   4431     1
   4427   4449     1
   4427   4442     1
   4429   4435     1
   4429   4444     1
   4429   4437     1
   4430   4447     1
   4431   4437     1
   4431   4436     1
   4435   4449     1
   4436   4449     1
   4436   4447     1
   4437   4447     1
   4442   4444     1
   4444   4449     1
   4444   4447     1
   4451   4459     1
   4453   4460     1
   4453   4461     1
   4455   4471     1
   4455   4463     1
   4459   4474     1
   4459   4467     1
   4460   4463     1
   4460   4475     1
   4460   4523     1
   4461   4471     1
   4461   4468     1
   4461   4499     1
   4463   4480     1
   4467   4479     1
   4467   4481     1
   4468   4480     1
   4471   4504     1
   4474   4503     1
   4474   4505     1
   4475   4504     1
   4476   4480     1
   4476   4486     1
   4476   4485     1
   4477   4492     1
   4477   4481     1
   4477   4499     1
   4479   4487     1
   4479   4494     1
   4479   4485     1
   4480   4497     1
   4481   4486     1
   4481   4487     1
   4485   4499     1
   4486   4497     1
   4486   4499     1
   4487   4497     1
   4492   4494     1
   4494   4497     1
   4494   4499     1
   4500   4504     1
   4500   4510     1
   4500   4509     1
   4501   4516     1
   4501   4505     1
   4501   4523     1
   4503   4511     1
   4503   4518     1
   4503   4509     1
   4504   4521     1
   4505   4510     1
   4505   4511     1
   4509   4523     1
   4510   4521     1
   4510   4523     1
   4511   4521     1
   4516   4518     1
   4518   4521     1
   4518   4523     1
   4525   4533     1
   4527   4534     1
   4527   4535     1
   4529   4545     1
   4529   4537     1
   4533   4548     1
   4533   4541     1
   4534   4549     1
   4534   4597     1
   4534   4537     1
   4535   4542     1
   4535   4573     1
   4535   4545     1
   4537   4554     1
   4541   4555     1
   4541   4553     1
   4542   4554     1
   4545   4578     1
   4548   4579     1
   4548   4577     1
   4549   4578     1
   4550   4554     1
   4550   4560     1
   4550   4559     1
   4551   4555     1
   4551   4573     1
   4551   4566     1
   4553   4559     1
   4553   4568     1
   4553   4561     1
   4554   4571     1
   4555   4561     1
   4555   4560     1
   4559   4573     1
   4560   4573     1
   4560   4571     1
   4561   4571     1
   4566   4568     1
   4568   4573     1
   4568   4571     1
   4574   4578     1
   4574   4584     1
   4574   4583     1
   4575   4579     1
   4575   4597     1
   4575   4590     1
   4577   4583     1
   4577   4592     1
   4577   4585     1
   4578   4595     1
   4579   4585     1
   4579   4584     1
   4583   4597     1
   4584   4597     1
   4584   4595     1
   4585   4595     1
   4590   4592     1
   4592   4597     1
   4592   4595     1
   4599   4607     1
   4601   4608     1
   4601   4609     1
   4603   4619     1
   4603   4611     1
   4607   4622     1
   4607   4615     1
   4608   4611     1
   4608   4623     1
   4608   4671     1
   4609   4619     1
   4609   4616     1
   4609   4647     1
   4611   4628     1
   4615   4627     1
   4615   4629     1
   4616   4628     1
   4619   4652     1
   4622   4651     1
   4622   4653     1
   4623   4652     1
   4624   4628     1
   4624   4634     1
   4624   4633     1
   4625   4640     1
   4625   4629     1
   4625   4647     1
   4627   4635     1
   4627   4642     1
   4627   4633     1
   4628   4645     1
   4629   4634     1
   4629   4635     1
   4633   4647     1
   4634   4645     1
   4634   4647     1
   4635   4645     1
   4640   4642     1
   4642   4645     1
   4642   4647     1
   4648   4652     1
   4648   4658     1
   4648   4657     1
   4649   4664     1
   4649   4653     1
   4649   4671     1
   4651   4659     1
   4651   4666     1
   4651   4657     1
   4652   4669     1
   4653   4658     1
   4653   4659     1
   4657   4671     1
   4658   4669     1
   4658   4671     1
   4659   4669     1
   4664   4666     1
   4666   4669     1
   4666   4671     1
   4673   4681     1
   4675   4682     1
   4675   4683     1
   4677   4693     1
   4677   4685     1
   4681   4696     1
   4681   4689     1
   4682   4697     1
   4682   4745     1
   4682   4685     1
   4683   4690     1
   4683   4721     1
   4683   4693     1
   4685   4702     1
   4689   4703     1
   4689   4701     1
   4690   4702     1
   4693   4726     1
   4696   4727     1
   4696   4725     1
   4697   4726     1
   4698   4702     1
   4698   4708     1
   4698   4707     1
   4699   4703     1
   4699   4721     1
   4699   4714     1
   4701   4707     1
   4701   4716     1
   4701   4709     1
   4702   4719     1
   4703   4709     1
   4703   4708     1
   4707   4721     1
   4708   4721     1
   4708   4719     1
   4709   4719     1
   4714   4716     1
   4716   4721     1
   4716   4719     1
   4722   4726     1
   4722   4732     1
   4722   4731     1
   4723   4727     1
   4723   4745     1
   4723   4738     1
   4725   4731     1
   4725   4740     1
   4725   4733     1
   4726   4743     1
   4727   4733     1
   4727   4732     1
   4731   4745     1
   4732   4745     1
   4732   4743     1
   4733   4743     1
   4738   4740     1
   4740   4745     1
   4740   4743     1
   4747   4755     1
   4749   4756     1
   4749   4757     1
   4751   4767     1
   4751   4759     1
   4755   4770     1
   4755   4763     1
   4756   4759     1
   4756   4771     1
   4756   4819     1
   4757   4767     1
   4757   4764     1
   4757   4795     1
   4759   4776     1
   4763   4775     1
   4763   4777     1
   4764   4776     1
   4767   4800     1
   4770   4799     1
   4770   4801     1
   4771   4800     1
   4772   4776     1
   4772   4782     1
   4772   4781     1
   4773   4788     1
   4773   4777     1
   4773   4795     1
   4775   4783     1
   4775   4790     1
   4775   4781     1
   4776   4793     1
   4777   4782     1
   4777   4783     1
   4781   4795     1
   4782   4793     1
   4782   4795     1
   4783   4793     1
   4788   4790     1
   4790   4793     1
   4790   4795     1
   4796   4800     1
   4796   4806     1
   4796   4805     1
   4797   4812     1
   4797   4801     1
   4797   4819     1
   4799   4807     1
   4799   4814     1
   4799   4805     1
   4800   4817     1
   4801   4806     1
   4801   4807     1
   4805   4819     1
   4806   4817     1
   4806   4819     1
   4807   4817     1
   4812   4814     1
   4814   4817     1
   4814   4819     1
   4821   4829     1
   4823   4830     1
   4823   4831     1
   4825   4841     1
   4825   4833     1
   4829   4844     1
   4829   4837     1
   4830   4845     1
   4830   4893     1
   4830   4833     1
   4831   4838     1
   4831   4869     1
   4831   4841     1
   4833   4850     1
   4837   4851     1
   4837   4849     1
   4838   4850     1
   4841   4874     1
   4844   4875     1
   4844   4873     1
   4845   4874     1
   4846   4850     1
   4846   4856     1
   4846   4855     1
   4847   4851     1
   4847   4869     1
   4847   4862     1
   4849   4855     1
   4849   4864     1
   4849   4857     1
   4850   4867     1
   4851   4857     1
   4851   4856     1
   4855   4869     1
   4856   4869     1
   4856   4867     1
   4857   4867     1
   4862   4864     1
   4864   4869     1
   4864   4867     1
   4870   4874     1
   4870   4880     1
   4870   4879     1
   4871   4875     1
   4871   4893     1
   4871   4886     1
   4873   4879     1
   4873   4888     1
   4873   4881     1
   4874   4891     1
   4875   4881     1
   4875   4880     1
   4879   4893     1
   4880   4893     1
   4880   4891     1
   4881   4891     1
   4886   4888     1
   4888   4893     1
   4888   4891     1
   4895   4903     1
   4897   4904     1
   4897   4905     1
   4899   4915     1
   4899   4907     1
   4903   4918     1
   4903   4911     1
   4904   4907     1
   4904   4919     1
   4904   4967     1
   4905   4915     1
   4905   4912     1
   4905   4943     1
   4907   4924     1
   4911   4923     1
   4911   4925     1
   4912   4924     1
   4915   4948     1
   4918   4947     1
   4918   4949     1
   4919   4948     1
   4920   4924     1
   4920   4930     1
   4920   4929     1
   4921   4936     1
   4921   4925     1
   4921   4943     1
   4923   4931     1
   4923   4938     1
   4923   4929     1
   4924   4941     1
   4925   4930     1
   4925   4931     1
   4929   4943     1
   4930   4941     1
   4930   4943     1
   4931   4941     1
   4936   4938     1
   4938   4941     1
   4938   4943     1
   4944   4948     1
   4944   4954     1
   4944   4953     1
   4945   4960     1
   4945   4949     1
   4945   4967     1
   4947   4955     1
   4947   4962     1
   4947   4953     1
   4948   4965     1
   4949   4954     1
   4949   4955     1
   4953   4967     1
   4954   4965     1
   4954   4967     1
   4955   4965     1
   4960   4962     1
   4962   4965     1
   4962   4967     1
   4969   4977     1
   4971   4978     1
   4971   4979     1
   4973   4989     1
   4973   4981     1
   4977   4992     1
   4977   4985     1
   4978   4993     1
   4978   5041     1
   4978   4981     1
   4979   4986     1
   4979   5017     1
   4979   4989     1
   4981   4998     1
   4985   4999     1
   4985   4997     1
   4986   4998     1
   4989   5022     1
   4992   5023     1
   4992   5021     1
   4993   5022     1
   4994   4998     1
   4994   5004     1
   4994   5003     1
   4995   4999     1
   4995   5017     1
   4995   5010     1
   4997   5003     1
   4997   5012     1
   4997   5005     1
   4998   5015     1
   4999   5005     1
   4999   5004     1
   5003   5017     1
   5004   5017     1
   5004   5015     1
   5005   5015     1
   5010   5012     1
   5012   5017     1
   5012   5015     1
   5018   5022     1
   5018   5028     1
   5018   5027     1
   5019   5023     1
   5019   5041     1
   5019   5034     1
   5021   5027     1
   5021   5036     1
   5021   5029     1
   5022   5039     1
   5023   5029     1
   5023   5028     1
   5027   5041     1
   5028   5041     1
   5028   5039     1
   5029   5039     1
   5034   5036     1
   5036   5041     1
   5036   5039     1
   5043   5051     1
   5045   5052     1
   5045   5053     1
   5047   5063     1
   5047   5055     1
   5051   5066     1
   5051   5059     1
   5052   5055     1
   5052   5067     1
   5052   5115     1
   5053   5063     1
   5053   5060     1
   5053   5091     1
   5055   5072     1
   5059   5071     1
   5059   5073     1
   5060   5072     1
   5063   5096     1
   5066   5095     1
   5066   5097     1
   5067   5096     1
   5068   5072     1
   5068   5078     1
   5068   5077     1
   5069   5084     1
   5069   5073     1
   5069   5091     1
   5071   5079     1
   5071   5086     1
   5071   5077     1
   5072   5089     1
   5073   5078     1
   5073   5079     1
   5077   5091     1
   5078   5089     1
   5078   5091     1
   5079   5089     1
   5084   5086     1
   5086   5089     1
   5086   5091     1
   5092   5096     1
   5092   5102     1
   5092   5101     1
   5093   5108     1
   5093   5097     1
   5093   5115     1
   5095   5103     1
   5095   5110     1
   5095   5101     1
   5096   5113     1
   5097   5102     1
   5097   5103     1
   5101   5115     1
   5102   5113     1
   5102   5115     1
   5103   5113     1
   5108   5110     1
   5110   5113     1
   5110   5115     1
   5117   5125     1
   5119   5126     1
   5119   5127     1
   5121   5137     1
   5121   5129     1
   5125   5140     1
   5125   5133     1
   5126   5141     1
   5126   5189     1
   5126   5129     1
   5127   5134     1
   5127   5165     1
   5127   5137     1
   5129   5146     1
   5133   5147     1
   5133   5145     1
   5134   5146     1
   5137   5170     1
   5140   5171     1
   5140   5169     1
   5141   5170     1
   5142   5146     1
   5142   5152     1
   5142   5151     1
   5143   5147     1
   5143   5165     1
   5143   5158     1
   5145   5151     1
   5145   5160     1
   5145   5153     1
   5146   5163     1
   5147   5153     1
   5147   5152     1
   5151   5165     1
   5152   5165     1
   5152   5163     1
   5153   5163     1
   5158   5160     1
   5160   5165     1
   5160   5163     1
   5166   5170     1
   5166   5176     1
   5166   5175     1
   5167   5171     1
   5167   5189     1
   5167   5182     1
   5169   5175     1
   5169   5184     1
   5169   5177     1
   5170   5187     1
   5171   5177     1
   5171   5176     1
   5175   5189     1
   5176   5189     1
   5176   5187     1
   5177   5187     1
   5182   5184     1
   5184   5189     1
   5184   5187     1
   5191   5199     1
   5193   5200     1
   5193   5201     1
   5195   5211     1
   5195   5203     1
   5199   5214     1
   5199   5207     1
   5200   5203     1
   5200   5215     1
   5200   5263     1
   5201   5211     1
   5201   5208     1
   5201   5239     1
   5203   5220     1
   5207   5219     1
   5207   5221     1
   5208   5220     1
   5211   5244     1
   5214   5243     1
   5214   5245     1
   5215   5244     1
   5216   5220     1
   5216   5226     1
   5216   5225     1
   5217   5232     1
   5217   5221     1
   5217   5239     1
   5219   5227     1
   5219   5234     1
   5219   5225     1
   5220   5237     1
   5221   5226     1
   5221   5227     1
   5225   5239     1
   5226   5237     1
   5226   5239     1
   5227   5237     1
   5232   5234     1
   5234   5237     1
   5234   5239     1
   5240   5244     1
   5240   5250     1
   5240   5249     1
   5241   5256     1
   5241   5245     1
   5241   5263     1
   5243   5251     1
   5243   5258     1
   5243   5249     1
   5244   5261     1
   5245   5250     1
   5245   5251     1
   5249   5263     1
   5250   5261     1
   5250   5263     1
   5251   5261     1
   5256   5258     1
   5258   5261     1
   5258   5263     1
   5265   5273     1
   5267   5274     1
   5267   5275     1
   5269   5285     1
   5269   5277     1
   5273   5288     1
   5273   5281     1
   5274   5289     1
   5274   5337     1
   5274   5277     1
   5275   5282     1
   5275   5313     1
   5275   5285     1
   5277   5294     1
   5281   5295     1
   5281   5293     1
   5282   5294     1
   5285   5318     1
   5288   5319     1
   5288   5317     1
   5289   5318     1
   5290   5294     1
   5290   5300     1
   5290   5299     1
   5291   5295     1
   5291   5313     1
   5291   5306     1
   5293   5299     1
   5293   5308     1
   5293   5301     1
   5294   5311     1
   5295   5301     1
   5295   5300     1
   5299   5313     1
   5300   5313     1
   5300   5311     1
   5301   5311     1
   5306   5308     1
   5308   5313     1
   5308   5311     1
   5314   5318     1
   5314   5324     1
   5314   5323     1
   5315   5319     1
   5315   5337     1
   5315   5330     1
   5317   5323     1
   5317   5332     1
   5317   5325     1
   5318   5335     1
   5319   5325     1
   5319   5324     1
   5323   5337     1
   5324   5337     1
   5324   5335     1
   5325   5335     1
   5330   5332     1
   5332   5337     1
   5332   5335     1
   5339   5347     1
   5341   5348     1
   5341   5349     1
   5343   5359     1
   5343   5351     1
   5347   5362     1
   5347   5355     1
   5348   5351     1
   5348   5363     1
   5348   5411     1
   5349   5359     1
   5349   5356     1
   5349   5387     1
   5351   5368     1
   5355   5367     1
   5355   5369     1
   5356   5368     1
   5359   5392     1
   5362   5391     1
   5362   5393     1
   5363   5392     1
   5364   5368     1
   5364   5374     1
   5364   5373     1
   5365   5380     1
   5365   5369     1
   5365   5387     1
   5367   5375     1
   5367   5382     1
   5367   5373     1
   5368   5385     1
   5369   5374     1
   5369   5375     1
   5373   5387     1
   5374   5385     1
   5374   5387     1
   5375   5385     1
   5380   5382     1
   5382   5385     1
   5382   5387     1
   5388   5392     1
   5388   5398     1
   5388   5397     1
   5389   5404     1
   5389   5393     1
   5389   5411     1
   5391   5399     1
   5391   5406     1
   5391   5397     1
   5392   5409     1
   5393   5398     1
   5393   5399     1
   5397   5411     1
   5398   5409     1
   5398   5411     1
   5399   5409     1
   5404   5406     1
   5406   5409     1
   5406   5411     1
   5413   5421     1
   5415   5422     1
   5415   5423     1
   5417   5433     1
   5417   5425     1
   5421   5436     1
   5421   5429     1
   5422   5437     1
   5422   5485     1
   5422   5425     1
   5423   5430     1
   5423   5461     1
   5423   5433     1
   5425   5442     1
   5429   5443     1
   5429   5441     1
   5430   5442     1
   5433   5466     1
   5436   5467     1
   5436   5465     1
   5437   5466     1
   5438   5442     1
   5438   5448     1
   5438   5447     1
   5439   5443     1
   5439   5461     1
   5439   5454     1
   5441   5447     1
   5441   5456     1
   5441   5449     1
   5442   5459     1
   5443   5449     1
   5443   5448     1
   5447   5461     1
   5448   5461     1
   5448   5459     1
   5449   5459     1
   5454   5456     1
   5456   5461     1
   5456   5459     1
   5462   5466     1
   5462   5472     1
   5462   5471     1
   5463   5467     1
   5463   5485     1
   5463   5478     1
   5465   5471     1
   5465   5480     1
   5465   5473     1
   5466   5483     1
   5467   5473     1
   5467   5472     1
   5471   5485     1
   5472   5485     1
   5472   5483     1
   5473   5483     1
   5478   5480     1
   5480   5485     1
   5480   5483     1
   5487   5495     1
   5489   5496     1
   5489   5497     1
   5491   5507     1
   5491   5499     1
   5495   5510     1
   5495   5503     1
   5496   5499     1
   5496   5511     1
   5496   5559     1
   5497   5507     1
   5497   5504     1
   5497   5535     1
   5499   5516     1
   5503   5515     1
   5503   5517     1
   5504   5516     1
   5507   5540     1
   5510   5539     1
   5510   5541     1
   5511   5540     1
   5512   5516     1
   5512   5522     1
   5512   5521     1
   5513   5528     1
   5513   5517     1
   5513   5535     1
   5515   5523     1
   5515   5530     1
   5515   5521     1
   5516   5533     1
   5517   5522     1
   5517   5523     1
   5521   5535     1
   5522   5533     1
   5522   5535     1
   5523   5533     1
   5528   5530     1
   5530   5533     1
   5530   5535     1
   5536   5540     1
   5536   5546     1
   5536   5545     1
   5537   5552     1
   5537   5541     1
   5537   5559     1
   5539   5547     1
   5539   5554     1
   5539   5545     1
   5540   5557     1
   5541   5546     1
   5541   5547     1
   5545   5559     1
   5546   5557     1
   5546   5559     1
   5547   5557     1
   5552   5554     1
   5554   5557     1
   5554   5559     1
   5561   5569     1
   5563   5570     1
   5563   5571     1
   5565   5581     1
   5565   5573     1
   5569   5584     1
   5569   5577     1
   5570   5585     1
   5570   5633     1
   5570   5573     1
   5571   5578     1
   5571   5609     1
   5571   5581     1
   5573   5590     1
   5577   5591     1
   5577   5589     1
   5578   5590     1
   5581   5614     1
   5584   5615     1
   5584   5613     1
   5585   5614     1
   5586   5590     1
   5586   5596     1
   5586   5595     1
   5587   5591     1
   5587   5609     1
   5587   5602     1
   5589   5595     1
   5589   5604     1
   5589   5597     1
   5590   5607     1
   5591   5597     1
   5591   5596     1
   5595   5609     1
   5596   5609     1
   5596   5607     1
   5597   5607     1
   5602   5604     1
   5604   5609     1
   5604   5607     1
   5610   5614     1
   5610   5620     1
   5610   5619     1
   5611   5615     1
   5611   5633     1
   5611   5626     1
   5613   5619     1
   5613   5628     1
   5613   5621     1
   5614   5631     1
   5615   5621     1
   5615   5620     1
   5619   5633     1
   5620   5633     1
   5620   5631     1
   5621   5631     1
   5626   5628     1
   5628   5633     1
   5628   5631     1
   5635   5643     1
   5637   5644     1
   5637   5645     1
   5639   5655     1
   5639   5647     1
   5643   5658     1
   5643   5651     1
   5644   5647     1
   5644   5659     1
   5644   5707     1
   5645   5655     1
   5645   5652     1
   5645   5683     1
   5647   5664     1
   5651   5663     1
   5651   5665     1
   5652   5664     1
   5655   5688     1
   5658   5687     1
   5658   5689     1
   5659   5688     1
   5660   5664     1
   5660   5670     1
   5660   5669     1
   5661   5676     1
   5661   5665     1
   5661   5683     1
   5663   5671     1
   5663   5678     1
   5663   5669     1
   5664   5681     1
   5665   5670     1
   5665   5671     1
   5669   5683     1
   5670   5681     1
   5670   5683     1
   5671   5681     1
   5676   5678     1
   5678   5681     1
   5678   5683     1
   5684   5688     1
   5684   5694     1
   5684   5693     1
   5685   5700     1
   5685   5689     1
   5685   5707     1
   5687   5695     1
   5687   5702     1
   5687   5693     1
   5688   5705     1
   5689   5694     1
   5689   5695     1
   5693   5707     1
   5694   5705     1
   5694   5707     1
   5695   5705     1
   5700   5702     1
   5702   5705     1
   5702   5707     1
   5709   5717     1
   5711   5718     1
   5711   5719     1
   5713   5729     1
   5713   5721     1
   5717   5732     1
   5717   5725     1
   5718   5733     1
   5718   5781     1
   5718   5721     1
   5719   5726     1
   5719   5757     1
   5719   5729     1
   5721   5738     1
   5725   5739     1
   5725   5737     1
   5726   5738     1
   5729   5762     1
   5732   5763     1
   5732   5761     1
   5733   5762     1
   5734   5738     1
   5734   5744     1
   5734   5743     1
   5735   5739     1
   5735   5757     1
   5735   5750     1
   5737   5743     1
   5737   5752     1
   5737   5745     1
   5738   5755     1
   5739   5745     1
   5739   5744     1
   5743   5757     1
   5744   5757     1
   5744   5755     1
   5745   5755     1
   5750   5752     1
   5752   5757     1
   5752   5755     1
   5758   5762     1
   5758   5768     1
   5758   5767     1
   5759   5763     1
   5759   5781     1
   5759   5774     1
   5761   5767     1
   5761   5776     1
   5761   5769     1
   5762   5779     1
   5763   5769     1
   5763   5768     1
   5767   5781     1
   5768   5781     1
   5768   5779     1
   5769   5779     1
   5774   5776     1
   5776   5781     1
   5776   5779     1
   5783   5791     1
   5785   5792     1
   5785   5793     1
   5787   5803     1
   5787   5795     1
   5791   5806     1
   5791   5799     1
   5792   5795     1
   5792   5807     1
   5792   5855     1
   5793   5803     1
   5793   5800     1
   5793   5831     1
   5795   5812     1
   5799   5811     1
   5799   5813     1
   5800   5812     1
   5803   5836     1
   5806   5835     1
   5806   5837     1
   5807   5836     1
   5808   5812     1
   5808   5818     1
   5808   5817     1
   5809   5824     1
   5809   5813     1
   5809   5831     1
   5811   5819     1
   5811   5826     1
   5811   5817     1
   5812   5829     1
   5813   5818     1
   5813   5819     1
   5817   5831     1
   5818   5829     1
   5818   5831     1
   5819   5829     1
   5824   5826     1
   5826   5829     1
   5826   5831     1
   5832   5836     1
   5832   5842     1
   5832   5841     1
   5833   5848     1
   5833   5837     1
   5833   5855     1
   5835   5843     1
   5835   5850     1
   5835   5841     1
   5836   5853     1
   5837   5842     1
   5837   5843     1
   5841   5855     1
   5842   5853     1
   5842   5855     1
   5843   5853     1
   5848   5850     1
   5850   5853     1
   5850   5855     1
   5857   5865     1
   5859   5866     1
   5859   5867     1
   5861   5877     1
   5861   5869     1
   5865   5880     1
   5865   5873     1
   5866   5881     1
   5866   5929     1
   5866   5869     1
   5867   5874     1
   5867   5905     1
   5867   5877     1
   5869   5886     1
   5873   5887     1
   5873   5885     1
   5874   5886     1
   5877   5910     1
   5880   5911     1
   5880   5909     1
   5881   5910     1
   5882   5886     1
   5882   5892     1
   5882   5891     1
   5883   5887     1
   5883   5905     1
   5883   5898     1
   5885   5891     1
   5885   5900     1
   5885   5893     1
   5886   5903     1
   5887   5893     1
   5887   5892     1
   5891   5905     1
   5892   5905     1
   5892   5903     1
   5893   5903     1
   5898   5900     1
   5900   5905     1
   5900   5903     1
   5906   5910     1
   5906   5916     1
   5906   5915     1
   5907   5911     1
   5907   5929     1
   5907   5922     1
   5909   5915     1
   5909   5924     1
   5909   5917     1
   5910   5927     1
   5911   5917     1
   5911   5916     1
   5915   5929     1
   5916   5929     1
   5916   5927     1
   5917   5927     1
   5922   5924     1
   5924   5929     1
   5924   5927     1
   5931   5939     1
   5933   5940     1
   5933   5941     1
   5935   5951     1
   5935   5943     1
   5939   5954     1
   5939   5947     1
   5940   5943     1
   5940   5955     1
   5940   6003     1
   5941   5951     1
   5941   5948     1
   5941   5979     1
   5943   5960     1
   5947   5959     1
   5947   5961     1
   5948   5960     1
   5951   5984     1
   5954   5983     1
   5954   5985     1
   5955   5984     1
   5956   5960     1
   5956   5966     1
   5956   5965     1
   5957   5972     1
   5957   5961     1
   5957   5979     1
   5959   5967     1
   5959   5974     1
   5959   5965     1
   5960   5977     1
   5961   5966     1
   5961   5967     1
   5965   5979     1
   5966   5977     1
   5966   5979     1
   5967   5977     1
   5972   5974     1
   5974   5977     1
   5974   5979     1
   5980   5984     1
   5980   5990     1
   5980   5989     1
   5981   5996     1
   5981   5985     1
   5981   6003     1
   5983   5991     1
   5983   5998     1
   5983   5989     1
   5984   6001     1
   5985   5990     1
   5985   5991     1
   5989   6003     1
   5990   6001     1
   5990   6003     1
   5991   6001     1
   5996   5998     1
   5998   6001     1
   5998   6003     1
   6005   6013     1
   6007   6014     1
   6007   6015     1
   6009   6025     1
   6009   6017     1
   6013   6028     1
   6013   6021     1
   6014   6029     1
   6014   6077     1
   6014   6017     1
   6015   6022     1
   6015   6053     1
   6015   6025     1
   6017   6034     1
   6021   6035     1
   6021   6033     1
   6022   6034     1
   6025   6058     1
   6028   6059     1
   6028   6057     1
   6029   6058     1
   6030   6034     1
   6030   6040     1
   6030   6039     1
   6031   6035     1
   6031   6053     1
   6031   6046     1
   6033   6039     1
   6033   6048     1
   6033   6041     1
   6034   6051     1
   6035   6041     1
   6035   6040     1
   6039   6053     1
   6040   6053     1
   6040   6051     1
   6041   6051     1
   6046   6048     1
   6048   6053     1
   6048   6051     1
   6054   6058     1
   6054   6064     1
   6054   6063     1
   6055   6059     1
   6055   6077     1
   6055   6070     1
   6057   6063     1
   6057   6072     1
   6057   6065     1
   6058   6075     1
   6059   6065     1
   6059   6064     1
   6063   6077     1
   6064   6077     1
   6064   6075     1
   6065   6075     1
   6070   6072     1
   6072   6077     1
   6072   6075     1
   6079   6087     1
   6081   6088     1
   6081   6089     1
   6083   6099     1
   6083   6091     1
   6087   6102     1
   6087   6095     1
   6088   6091     1
   6088   6103     1
   6088   6151     1
   6089   6099     1
   6089   6096     1
   6089   6127     1
   6091   6108     1
   6095   6107     1
   6095   6109     1
   6096   6108     1
   6099   6132     1
   6102   6131     1
   6102   6133     1
   6103   6132     1
   6104   6108     1
   6104   6114     1
   6104   6113     1
   6105   6120     1
   6105   6109     1
   6105   6127     1
   6107   6115     1
   6107   6122     1
   6107   6113     1
   6108   6125     1
   6109   6114     1
   6109   6115     1
   6113   6127     1
   6114   6125     1
   6114   6127     1
   6115   6125     1
   6120   6122     1
   6122   6125     1
   6122   6127     1
   6128   6132     1
   6128   6138     1
   6128   6137     1
   6129   6144     1
   6129   6133     1
   6129   6151     1
   6131   6139     1
   6131   6146     1
   6131   6137     1
   6132   6149     1
   6133   6138     1
   6133   6139     1
   6137   6151     1
   6138   6149     1
   6138   6151     1
   6139   6149     1
   6144   6146     1
   6146   6149     1
   6146   6151     1
   6153   6161     1
   6155   6162     1
   6155   6163     1
   6157   6173     1
   6157   6165     1
   6161   6176     1
   6161   6169     1
   6162   6177     1
   6162   6225     1
   6162   6165     1
   6163   6170     1
   6163   6201     1
   6163   6173     1
   6165   6182     1
   6169   6183     1
   6169   6181     1
   6170   6182     1
   6173   6206     1
   6176   6207     1
   6176   6205     1
   6177   6206     1
   6178   6182     1
   6178   6188     1
   6178   6187     1
   6179   6183     1
   6179   6201     1
   6179   6194     1
   6181   6187     1
   6181   6196     1
   6181   6189     1
   6182   6199     1
   6183   6189     1
   6183   6188     1
   6187   6201     1
   6188   6201     1
   6188   6199     1
   6189   6199     1
   6194   6196     1
   6196   6201     1
   6196   6199     1
   6202   6206     1
   6202   6212     1
   6202   6211     1
   6203   6207     1
   6203   6225     1
   6203   6218     1
   6205   6211     1
   6205   6220     1
   6205   6213     1
   6206   6223     1
   6207   6213     1
   6207   6212     1
   6211   6225     1
   6212   6225     1
   6212   6223     1
   6213   6223     1
   6218   6220     1
   6220   6225     1
   6220   6223     1
   6227   6235     1
   6229   6236     1
   6229   6237     1
   6231   6247     1
   6231   6239     1
   6235   6250     1
   6235   6243     1
   6236   6239     1
   6236   6251     1
   6236   6299     1
   6237   6247     1
   6237   6244     1
   6237   6275     1
   6239   6256     1
   6243   6255     1
   6243   6257     1
   6244   6256     1
   6247   6280     1
   6250   6279     1
   6250   6281     1
   6251   6280     1
   6252   6256     1
   6252   6262     1
   6252   6261     1
   6253   6268     1
   6253   6257     1
   6253   6275     1
   6255   6263     1
   6255   6270     1
   6255   6261     1
   6256   6273     1
   6257   6262     1
   6257   6263     1
   6261   6275     1
   6262   6273     1
   6262   6275     1
   6263   6273     1
   6268   6270     1
   6270   6273     1
   6270   6275     1
   6276   6280     1
   6276   6286     1
   6276   6285     1
   6277   6292     1
   6277   6281     1
   6277   6299     1
   6279   6287     1
   6279   6294     1
   6279   6285     1
   6280   6297     1
   6281   6286     1
   6281   6287     1
   6285   6299     1
   6286   6297     1
   6286   6299     1
   6287   6297     1
   6292   6294     1
   6294   6297     1
   6294   6299     1
   6301   6309     1
   6303   6310     1
   6303   6311     1
   6305   6321     1
   6305   6313     1
   6309   6324     1
   6309   6317     1
   6310   6325     1
   6310   6373     1
   6310   6313     1
   6311   6318     1
   6311   6349     1
   6311   6321     1
   6313   6330     1
   6317   6331     1
   6317   6329     1
   6318   6330     1
   6321   6354     1
   6324   6355     1
   6324   6353     1
   6325   6354     1
   6326   6330     1
   6326   6336     1
   6326   6335     1
   6327   6331     1
   6327   6349     1
   6327   6342     1
   6329   6335     1
   6329   6344     1
   6329   6337     1
   6330   6347     1
   6331   6337     1
   6331   6336     1
   6335   6349     1
   6336   6349     1
   6336   6347     1
   6337   6347     1
   6342   6344     1
   6344   6349     1
   6344   6347     1
   6350   6354     1
   6350   6360     1
   6350   6359     1
   6351   6355     1
   6351   6373     1
   6351   6366     1
   6353   6359     1
   6353   6368     1
   6353   6361     1
   6354   6371     1
   6355   6361     1
   6355   6360     1
   6359   6373     1
   6360   6373     1
   6360   6371     1
   6361   6371     1
   6366   6368     1
   6368   6373     1
   6368   6371     1
   6375   6383     1
   6377   6384     1
   6377   6385     1
   6379   6395     1
   6379   6387     1
   6383   6398     1
   6383   6391     1
   6384   6387     1
   6384   6399     1
   6384   6447     1
   6385   6395     1
   6385   6392     1
   6385   6423     1
   6387   6404     1
   6391   6403     1
   6391   6405     1
   6392   6404     1
   6395   6428     1
   6398   6427     1
   6398   6429     1
   6399   6428     1
   6400   6404     1
   6400   6410     1
   6400   6409     1
   6401   6416     1
   6401   6405     1
   6401   6423     1
   6403   6411     1
   6403   6418     1
   6403   6409     1
   6404   6421     1
   6405   6410     1
   6405   6411     1
   6409   6423     1
   6410   6421     1
   6410   6423     1
   6411   6421     1
   6416   6418     1
   6418   6421     1
   6418   6423     1
   6424   6428     1
   6424   6434     1
   6424   6433     1
   6425   6440     1
   6425   6429     1
   6425   6447     1
   6427   6435     1
   6427   6442     1
   6427   6433     1
   6428   6445     1
   6429   6434     1
   6429   6435     1
   6433   6447     1
   6434   6445     1
   6434   6447     1
   6435   6445     1
   6440   6442     1
   6442   6445     1
   6442   6447     1
   6449   6457     1
   6451   6458     1
   6451   6459     1
   6453   6469     1
   6453   6461     1
   6457   6472     1
   6457   6465     1
   6458   6473     1
   6458   6521     1
   6458   6461     1
   6459   6466     1
   6459   6497     1
   6459   6469     1
   6461   6478     1
   6465   6479     1
   6465   6477     1
   6466   6478     1
   6469   6502     1
   6472   6503     1
   6472   6501     1
   6473   6502     1
   6474   6478     1
   6474   6484     1
   6474   6483     1
   6475   6479     1
   6475   6497     1
   6475   6490     1
   6477   6483     1
   6477   6492     1
   6477   6485     1
   6478   6495     1
   6479   6485     1
   6479   6484     1
   6483   6497     1
   6484   6497     1
   6484   6495     1
   6485   6495     1
   6490   6492     1
   6492   6497     1
   6492   6495     1
   6498   6502     1
   6498   6508     1
   6498   6507     1
   6499   6503     1
   6499   6521     1
   6499   6514     1
   6501   6507     1
   6501   6516     1
   6501   6509     1
   6502   6519     1
   6503   6509     1
   6503   6508     1
   6507   6521     1
   6508   6521     1
   6508   6519     1
   6509   6519     1
   6514   6516     1
   6516   6521     1
   6516   6519     1
   6523   6531     1
   6525   6532     1
   6525   6533     1
   6527   6543     1
   6527   6535     1
   6531   6546     1
   6531   6539     1
   6532   6535     1
   6532   6547     1
   6532   6595     1
   6533   6543     1
   6533   6540     1
   6533   6571     1
   6535   6552     1
   6539   6551     1
   6539   6553     1
   6540   6552     1
   6543   6576     1
   6546   6575     1
   6546   6577     1
   6547   6576     1
   6548   6552     1
   6548   6558     1
   6548   6557     1
   6549   6564     1
   6549   6553     1
   6549   6571     1
   6551   6559     1
   6551   6566     1
   6551   6557     1
   6552   6569     1
   6553   6558     1
   6553   6559     1
   6557   6571     1
   6558   6569     1
   6558   6571     1
   6559   6569     1
   6564   6566     1
   6566   6569     1
   6566   6571     1
   6572   6576     1
   6572   6582     1
   6572   6581     1
   6573   6588     1
   6573   6577     1
   6573   6595     1
   6575   6583     1
   6575   6590     1
   6575   6581     1
   6576   6593     1
   6577   6582     1
   6577   6583     1
   6581   6595     1
   6582   6593     1
   6582   6595     1
   6583   6593     1
   6588   6590     1
   6590   6593     1
   6590   6595     1
   6597   6605     1
   6599   6606     1
   6599   6607     1
   6601   6617     1
   6601   6609     1
   6605   6620     1
   6605   6613     1
   6606   6621     1
   6606   6669     1
   6606   6609     1
   6607   6614     1
   6607   6645     1
   6607   6617     1
   6609   6626     1
   6613   6627     1
   6613   6625     1
   6614   6626     1
   6617   6650     1
   6620   6651     1
   6620   6649     1
   6621   6650     1
   6622   6626     1
   6622   6632     1
   6622   6631     1
   6623   6627     1
   6623   6645     1
   6623   6638     1
   6625   6631     1
   6625   6640     1
   6625   6633     1
   6626   6643     1
   6627   6633     1
   6627   6632     1
   6631   6645     1
   6632   6645     1
   6632   6643     1
   6633   6643     1
   6638   6640     1
   6640   6645     1
   6640   6643     1
   6646   6650     1
   6646   6656     1
   6646   6655     1
   6647   6651     1
   6647   6669     1
   6647   6662     1
   6649   6655     1
   6649   6664     1
   6649   6657     1
   6650   6667     1
   6651   6657     1
   6651   6656     1
   6655   6669     1
   6656   6669     1
   6656   6667     1
   6657   6667     1
   6662   6664     1
   6664   6669     1
   6664   6667     1
   6671   6679     1
   6673   6680     1
   6673   6681     1
   6675   6691     1
   6675   6683     1
   6679   6694     1
   6679   6687     1
   6680   6683     1
   6680   6695     1
   6680   6743     1
   6681   6691     1
   6681   6688     1
   6681   6719     1
   6683   6700     1
   6687   6699     1
   6687   6701     1
   6688   6700     1
   6691   6724     1
   6694   6723     1
   6694   6725     1
   6695   6724     1
   6696   6700     1
   6696   6706     1
   6696   6705     1
   6697   6712     1
   6697   6701     1
   6697   6719     1
   6699   6707     1
   6699   6714     1
   6699   6705     1
   6700   6717     1
   6701   6706     1
   6701   6707     1
   6705   6719     1
   6706   6717     1
   6706   6719     1
   6707   6717     1
   6712   6714     1
   6714   6717     1
   6714   6719     1
   6720   6724     1
   6720   6730     1
   6720   6729     1
   6721   6736     1
   6721   6725     1
   6721   6743     1
   6723   6731     1
   6723   6738     1
   6723   6729     1
   6724   6741     1
   6725   6730     1
   6725   6731     1
   6729   6743     1
   6730   6741     1
   6730   6743     1
   6731   6741     1
   6736   6738     1
   6738   6741     1
   6738   6743     1
   6745   6753     1
   6747   6754     1
   6747   6755     1
   6749   6765     1
   6749   6757     1
   6753   6768     1
   6753   6761     1
   6754   6769     1
   6754   6817     1
   6754   6757     1
   6755   6762     1
   6755   6793     1
   6755   6765     1
   6757   6774     1
   6761   6775     1
   6761   6773     1
   6762   6774     1
   6765   6798     1
   6768   6799     1
   6768   6797     1
   6769   6798     1
   6770   6774     1
   6770   6780     1
   6770   6779     1
   6771   6775     1
   6771   6793     1
   6771   6786     1
   6773   6779     1
   6773   6788     1
   6773   6781     1
   6774   6791     1
   6775   6781     1
   6775   6780     1
   6779   6793     1
   6780   6793     1
   6780   6791     1
   6781   6791     1
   6786   6788     1
   6788   6793     1
   6788   6791     1
   6794   6798     1
   6794   6804     1
   6794   6803     1
   6795   6799     1
   6795   6817     1
   6795   6810     1
   6797   6803     1
   6797   6812     1
   6797   6805     1
   6798   6815     1
   6799   6805     1
   6799   6804     1
   6803   6817     1
   6804   6817     1
   6804   6815     1
   6805   6815     1
   6810   6812     1
   6812   6817     1
   6812   6815     1
   6819   6827     1
   6821   6828     1
   6821   6829     1
   6823   6839     1
   6823   6831     1
   6827   6842     1
   6827   6835     1
   6828   6831     1
   6828   6843     1
   6828   6891     1
   6829   6839     1
   6829   6836     1
   6829   6867     1
   6831   6848     1
   6835   6847     1
   6835   6849     1
   6836   6848     1
   6839   6872     1
   6842   6871     1
   6842   6873     1
   6843   6872     1
   6844   6848     1
   6844   6854     1
   6844   6853     1
   6845   6860     1
   6845   6849     1
   6845   6867     1
   6847   6855     1
   6847   6862     1
   6847   6853     1
   6848   6865     1
   6849   6854     1
   6849   6855     1
   6853   6867     1
   6854   6865     1
   6854   6867     1
   6855   6865     1
   6860   6862     1
   6862   6865     1
   6862   6867     1
   6868   6872     1
   6868   6878     1
   6868   6877     1
   6869   6884     1
   6869   6873     1
   6869   6891     1
   6871   6879     1
   6871   6886     1
   6871   6877     1
   6872   6889     1
   6873   6878     1
   6873   6879     1
   6877   6891     1
   6878   6889     1
   6878   6891     1
   6879   6889     1
   6884   6886     1
   6886   6889     1
   6886   6891     1
   6893   6901     1
   6895   6902     1
   6895   6903     1
   6897   6913     1
   6897   6905     1
   6901   6916     1
   6901   6909     1
   6902   6917     1
   6902   6965     1
   6902   6905     1
   6903   6910     1
   6903   6941     1
   6903   6913     1
   6905   6922     1
   6909   6923     1
   6909   6921     1
   6910   6922     1
   6913   6946     1
   6916   6947     1
   6916   6945     1
   6917   6946     1
   6918   6922     1
   6918   6928     1
   6918   6927     1
   6919   6923     1
   6919   6941     1
   6919   6934     1
   6921   6927     1
   6921   6936     1
   6921   6929     1
   6922   6939     1
   6923   6929     1
   6923   6928     1
   6927   6941     1
   6928   6941     1
   6928   6939     1
   6929   6939     1
   6934   6936     1
   6936   6941     1
   6936   6939     1
   6942   6946     1
   6942   6952     1
   6942   6951     1
   6943   6947     1
   6943   6965     1
   6943   6958     1
   6945   6951     1
   6945   6960     1
   6945   6953     1
   6946   6963     1
   6947   6953     1
   6947   6952     1
   6951   6965     1
   6952   6965     1
   6952   6963     1
   6953   6963     1
   6958   6960     1
   6960   6965     1
   6960   6963     1
   6967   6975     1
   6969   6976     1
   6969   6977     1
   6971   6987     1
   6971   6979     1
   6975   6990     1
   6975   6983     1
   6976   6979     1
   6976   6991     1
   6976   7039     1
   6977   6987     1
   6977   6984     1
   6977   7015     1
   6979   6996     1
   6983   6995     1
   6983   6997     1
   6984   6996     1
   6987   7020     1
   6990   7019     1
   6990   7021     1
   6991   7020     1
   6992   6996     1
   6992   7002     1
   6992   7001     1
   6993   7008     1
   6993   6997     1
   6993   7015     1
   6995   7003     1
   6995   7010     1
   6995   7001     1
   6996   7013     1
   6997   7002     1
   6997   7003     1
   7001   7015     1
   7002   7013     1
   7002   7015     1
   7003   7013     1
   7008   7010     1
   7010   7013     1
   7010   7015     1
   7016   7020     1
   7016   7026     1
   7016   7025     1
   7017   7032     1
   7017   7021     1
   7017   7039     1
   7019   7027     1
   7019   7034     1
   7019   7025     1
   7020   7037     1
   7021   7026     1
   7021   7027     1
   7025   7039     1
   7026   7037     1
   7026   7039     1
   7027   7037     1
   7032   7034     1
   7034   7037     1
   7034   7039     1
   7041   7049     1
   7043   7050     1
   7043   7051     1
   7045   7061     1
   7045   7053     1
   7049   7064     1
   7049   7057     1
   7050   7065     1
   7050   7113     1
   7050   7053     1
   7051   7058     1
   7051   7089     1
   7051   7061     1
   7053   7070     1
   7057   7071     1
   7057   7069     1
   7058   7070     1
   7061   7094     1
   7064   7095     1
   7064   7093     1
   7065   7094     1
   7066   7070     1
   7066   7076     1
   7066   7075     1
   7067   7071     1
   7067   7089     1
   7067   7082     1
   7069   7075     1
   7069   7084     1
   7069   7077     1
   7070   7087     1
   7071   7077     1
   7071   7076     1
   7075   7089     1
   7076   7089     1
   7076   7087     1
   7077   7087     1
   7082   7084     1
   7084   7089     1
   7084   7087     1
   7090   7094     1
   7090   7100     1
   7090   7099     1
   7091   7095     1
   7091   7113     1
   7091   7106     1
   7093   7099     1
   7093   7108     1
   7093   7101     1
   7094   7111     1
   7095   7101     1
   7095   7100     1
   7099   7113     1
   7100   7113     1
   7100   7111     1
   7101   7111     1
   7106   7108     1
   7108   7113     1
   7108   7111     1
   7115   7123     1
   7117   7124     1
   7117   7125     1
   7119   7135     1
   7119   7127     1
   7123   7138     1
   7123   7131     1
   7124   7127     1
   7124   7139     1
   7124   7187     1
   7125   7135     1
   7125   7132     1
   7125   7163     1
   7127   7144     1
   7131   7143     1
   7131   7145     1
   7132   7144     1
   7135   7168     1
   7138   7167     1
   7138   7169     1
   7139   7168     1
   7140   7144     1
   7140   7150     1
   7140   7149     1
   7141   7156     1
   7141   7145     1
   7141   7163     1
   7143   7151     1
   7143   7158     1
   7143   7149     1
   7144   7161     1
   7145   7150     1
   7145   7151     1
   7149   7163     1
   7150   7161     1
   7150   7163     1
   7151   7161     1
   7156   7158     1
   7158   7161     1
   7158   7163     1
   7164   7168     1
   7164   7174     1
   7164   7173     1
   7165   7180     1
   7165   7169     1
   7165   7187     1
   7167   7175     1
   7167   7182     1
   7167   7173     1
   7168   7185     1
   7169   7174     1
   7169   7175     1
   7173   7187     1
   7174   7185     1
   7174   7187     1
   7175   7185     1
   7180   7182     1
   7182   7185     1
   7182   7187     1
   7189   7197     1
   7191   7198     1
   7191   7199     1
   7193   7209     1
   7193   7201     1
   7197   7212     1
   7197   7205     1
   7198   7213     1
   7198   7261     1
   7198   7201     1
   7199   7206     1
   7199   7237     1
   7199   7209     1
   7201   7218     1
   7205   7219     1
   7205   7217     1
   7206   7218     1
   7209   7242     1
   7212   7243     1
   7212   7241     1
   7213   7242     1
   7214   7218     1
   7214   7224     1
   7214   7223     1
   7215   7219     1
   7215   7237     1
   7215   7230     1
   7217   7223     1
   7217   7232     1
   7217   7225     1
   7218   7235     1
   7219   7225     1
   7219   7224     1
   7223   7237     1
   7224   7237     1
   7224   7235     1
   7225   7235     1
   7230   7232     1
   7232   7237     1
   7232   7235     1
   7238   7242     1
   7238   7248     1
   7238   7247     1
   7239   7243     1
   7239   7261     1
   7239   7254     1
   7241   7247     1
   7241   7256     1
   7241   7249     1
   7242   7259     1
   7243   7249     1
   7243   7248     1
   7247   7261     1
   7248   7261     1
   7248   7259     1
   7249   7259     1
   7254   7256     1
   7256   7261     1
   7256   7259     1
   7263   7271     1
   7265   7272     1
   7265   7273     1
   7267   7283     1
   7267   7275     1
   7271   7286     1
   7271   7279     1
   7272   7275     1
   7272   7287     1
   7272   7335     1
   7273   7283     1
   7273   7280     1
   7273   7311     1
   7275   7292     1
   7279   7291     1
   7279   7293     1
   7280   7292     1
   7283   7316     1
   7286   7315     1
   7286   7317     1
   7287   7316     1
   7288   7292     1
   7288   7298     1
   7288   7297     1
   7289   7304     1
   7289   7293     1
   7289   7311     1
   7291   7299     1
   7291   7306     1
   7291   7297     1
   7292   7309     1
   7293   7298     1
   7293   7299     1
   7297   7311     1
   7298   7309     1
   7298   7311     1
   7299   7309     1
   7304   7306     1
   7306   7309     1
   7306   7311     1
   7312   7316     1
   7312   7322     1
   7312   7321     1
   7313   7328     1
   7313   7317     1
   7313   7335     1
   7315   7323     1
   7315   7330     1
   7315   7321     1
   7316   7333     1
   7317   7322     1
   7317   7323     1
   7321   7335     1
   7322   7333     1
   7322   7335     1
   7323   7333     1
   7328   7330     1
   7330   7333     1
   7330   7335     1
   7337   7345     1
   7339   7346     1
   7339   7347     1
   7341   7357     1
   7341   7349     1
   7345   7360     1
   7345   7353     1
   7346   7361     1
   7346   7409     1
   7346   7349     1
   7347   7354     1
   7347   7385     1
   7347   7357     1
   7349   7366     1
   7353   7367     1
   7353   7365     1
   7354   7366     1
   7357   7390     1
   7360   7391     1
   7360   7389     1
   7361   7390     1
   7362   7366     1
   7362   7372     1
   7362   7371     1
   7363   7367     1
   7363   7385     1
   7363   7378     1
   7365   7371     1
   7365   7380     1
   7365   7373     1
   7366   7383     1
   7367   7373     1
   7367   7372     1
   7371   7385     1
   7372   7385     1
   7372   7383     1
   7373   7383     1
   7378   7380     1
   7380   7385     1
   7380   7383     1
   7386   7390     1
   7386   7396     1
   7386   7395     1
   7387   7391     1
   7387   7409     1
   7387   7402     1
   7389   7395     1
   7389   7404     1
   7389   7397     1
   7390   7407     1
   7391   7397     1
   7391   7396     1
   7395   7409     1
   7396   7409     1
   7396   7407     1
   7397   7407     1
   7402   7404     1
   7404   7409     1
   7404   7407     1
   7411   7419     1
   7413   7420     1
   7413   7421     1
   7415   7431     1
   7415   7423     1
   7419   7434     1
   7419   7427     1
   7420   7423     1
   7420   7435     1
   7420   7483     1
   7421   7431     1
   7421   7428     1
   7421   7459     1
   7423   7440     1
   7427   7439     1
   7427   7441     1
   7428   7440     1
   7431   7464     1
   7434   7463     1
   7434   7465     1
   7435   7464     1
   7436   7440     1
   7436   7446     1
   7436   7445     1
   7437   7452     1
   7437   7441     1
   7437   7459     1
   7439   7447     1
   7439   7454     1
   7439   7445     1
   7440   7457     1
   7441   7446     1
   7441   7447     1
   7445   7459     1
   7446   7457     1
   7446   7459     1
   7447   7457     1
   7452   7454     1
   7454   7457     1
   7454   7459     1
   7460   7464     1
   7460   7470     1
   7460   7469     1
   7461   7476     1
   7461   7465     1
   7461   7483     1
   7463   7471     1
   7463   7478     1
   7463   7469     1
   7464   7481     1
   7465   7470     1
   7465   7471     1
   7469   7483     1
   7470   7481     1
   7470   7483     1
   7471   7481     1
   7476   7478     1
   7478   7481     1
   7478   7483     1
   7485   7493     1
   7487   7494     1
   7487   7495     1
   7489   7505     1
   7489   7497     1
   7493   7508     1
   7493   7501     1
   7494   7509     1
   7494   7557     1
   7494   7497     1
   7495   7502     1
   7495   7533     1
   7495   7505     1
   7497   7514     1
   7501   7515     1
   7501   7513     1
   7502   7514     1
   7505   7538     1
   7508   7539     1
   7508   7537     1
   7509   7538     1
   7510   7514     1
   7510   7520     1
   7510   7519     1
   7511   7515     1
   7511   7533     1
   7511   7526     1
   7513   7519     1
   7513   7528     1
   7513   7521     1
   7514   7531     1
   7515   7521     1
   7515   7520     1
   7519   7533     1
   7520   7533     1
   7520   7531     1
   7521   7531     1
   7526   7528     1
   7528   7533     1
   7528   7531     1
   7534   7538     1
   7534   7544     1
   7534   7543     1
   7535   7539     1
   7535   7557     1
   7535   7550     1
   7537   7543     1
   7537   7552     1
   7537   7545     1
   7538   7555     1
   7539   7545     1
   7539   7544     1
   7543   7557     1
   7544   7557     1
   7544   7555     1
   7545   7555     1
   7550   7552     1
   7552   7557     1
   7552   7555     1
   7559   7567     1
   7561   7568     1
   7561   7569     1
   7563   7579     1
   7563   7571     1
   7567   7582     1
   7567   7575     1
   7568   7571     1
   7568   7583     1
   7568   7631     1
   7569   7579     1
   7569   7576     1
   7569   7607     1
   7571   7588     1
   7575   7587     1
   7575   7589     1
   7576   7588     1
   7579   7612     1
   7582   7611     1
   7582   7613     1
   7583   7612     1
   7584   7588     1
   7584   7594     1
   7584   7593     1
   7585   7600     1
   7585   7589     1
   7585   7607     1
   7587   7595     1
   7587   7602     1
   7587   7593     1
   7588   7605     1
   7589   7594     1
   7589   7595     1
   7593   7607     1
   7594   7605     1
   7594   7607     1
   7595   7605     1
   7600   7602     1
   7602   7605     1
   7602   7607     1
   7608   7612     1
   7608   7618     1
   7608   7617     1
   7609   7624     1
   7609   7613     1
   7609   7631     1
   7611   7619     1
   7611   7626     1
   7611   7617     1
   7612   7629     1
   7613   7618     1
   7613   7619     1
   7617   7631     1
   7618   7629     1
   7618   7631     1
   7619   7629     1
   7624   7626     1
   7626   7629     1
   7626   7631     1
   7633   7641     1
   7635   7642     1
   7635   7643     1
   7637   7653     1
   7637   7645     1
   7641   7656     1
   7641   7649     1
   7642   7657     1
   7642   7705     1
   7642   7645     1
   7643   7650     1
   7643   7681     1
   7643   7653     1
   7645   7662     1
   7649   7663     1
   7649   7661     1
   7650   7662     1
   7653   7686     1
   7656   7687     1
   7656   7685     1
   7657   7686     1
   7658   7662     1
   7658   7668     1
   7658   7667     1
   7659   7663     1
   7659   7681     1
   7659   7674     1
   7661   7667     1
   7661   7676     1
   7661   7669     1
   7662   7679     1
   7663   7669     1
   7663   7668     1
   7667   7681     1
   7668   7681     1
   7668   7679     1
   7669   7679     1
   7674   7676     1
   7676   7681     1
   7676   7679     1
   7682   7686     1
   7682   7692     1
   7682   7691     1
   7683   7687     1
   7683   7705     1
   7683   7698     1
   7685   7691     1
   7685   7700     1
   7685   7693     1
   7686   7703     1
   7687   7693     1
   7687   7692     1
   7691   7705     1
   7692   7705     1
   7692   7703     1
   7693   7703     1
   7698   7700     1
   7700   7705     1
   7700   7703     1
   7707   7715     1
   7709   7716     1
   7709   7717     1
   7711   7727     1
   7711   7719     1
   7715   7730     1
   7715   7723     1
   7716   7719     1
   7716   7731     1
   7716   7779     1
   7717   7727     1
   7717   7724     1
   7717   7755     1
   7719   7736     1
   7723   7735     1
   7723   7737     1
   7724   7736     1
   7727   7760     1
   7730   7759     1
   7730   7761     1
   7731   7760     1
   7732   7736     1
   7732   7742     1
   7732   7741     1
   7733   7748     1
   7733   7737     1
   7733   7755     1
   7735   7743     1
   7735   7750     1
   7735   7741     1
   7736   7753     1
   7737   7742     1
   7737   7743     1
   7741   7755     1
   7742   7753     1
   7742   7755     1
   7743   7753     1
   7748   7750     1
   7750   7753     1
   7750   7755     1
   7756   7760     1
   7756   7766     1
   7756   7765     1
   7757   7772     1
   7757   7761     1
   7757   7779     1
   7759   7767     1
   7759   7774     1
   7759   7765     1
   7760   7777     1
   7761   7766     1
   7761   7767     1
   7765   7779     1
   7766   7777     1
   7766   7779     1
   7767   7777     1
   7772   7774     1
   7774   7777     1
   7774   7779     1
   7781   7789     1
   7783   7790     1
   7783   7791     1
   7785   7801     1
   7785   7793     1
   7789   7804     1
   7789   7797     1
   7790   7805     1
   7790   7853     1
   7790   7793     1
   7791   7798     1
   7791   7829     1
   7791   7801     1
   7793   7810     1
   7797   7811     1
   7797   7809     1
   7798   7810     1
   7801   7834     1
   7804   7835     1
   7804   7833     1
   7805   7834     1
   7806   7810     1
   7806   7816     1
   7806   7815     1
   7807   7811     1
   7807   7829     1
   7807   7822     1
   7809   7815     1
   7809   7824     1
   7809   7817     1
   7810   7827     1
   7811   7817     1
   7811   7816     1
   7815   7829     1
   7816   7829     1
   7816   7827     1
   7817   7827     1
   7822   7824     1
   7824   7829     1
   7824   7827     1
   7830   7834     1
   7830   7840     1
   7830   7839     1
   7831   7835     1
   7831   7853     1
   7831   7846     1
   7833   7839     1
   7833   7848     1
   7833   7841     1
   7834   7851     1
   7835   7841     1
   7835   7840     1
   7839   7853     1
   7840   7853     1
   7840   7851     1
   7841   7851     1
   7846   7848     1
   7848   7853     1
   7848   7851     1
   7855   7863     1
   7857   7864     1
   7857   7865     1
   7859   7875     1
   7859   7867     1
   7863   7878     1
   7863   7871     1
   7864   7867     1
   7864   7879     1
   7864   7927     1
   7865   7875     1
   7865   7872     1
   7865   7903     1
   7867   7884     1
   7871   7883     1
   7871   7885     1
   7872   7884     1
   7875   7908     1
   7878   7907     1
   7878   7909     1
   7879   7908     1
   7880   7884     1
   7880   7890     1
   7880   7889     1
   7881   7896     1
   7881   7885     1
   7881   7903     1
   7883   7891     1
   7883   7898     1
   7883   7889     1
   7884   7901     1
   7885   7890     1
   7885   7891     1
   7889   7903     1
   7890   7901     1
   7890   7903     1
   7891   7901     1
   7896   7898     1
   7898   7901     1
   7898   7903     1
   7904   7908     1
   7904   7914     1
   7904   7913     1
   7905   7920     1
   7905   7909     1
   7905   7927     1
   7907   7915     1
   7907   7922     1
   7907   7913     1
   7908   7925     1
   7909   7914     1
   7909   7915     1
   7913   7927     1
   7914   7925     1
   7914   7927     1
   7915   7925     1
   7920   7922     1
   7922   7925     1
   7922   7927     1
   7929   7937     1
   7931   7938     1
   7931   7939     1
   7933   7949     1
   7933   7941     1
   7937   7952     1
   7937   7945     1
   7938   7953     1
   7938   8001     1
   7938   7941     1
   7939   7946     1
   7939   7977     1
   7939   7949     1
   7941   7958     1
   7945   7959     1
   7945   7957     1
   7946   7958     1
   7949   7982     1
   7952   7983     1
   7952   7981     1
   7953   7982     1
   7954   7958     1
   7954   7964     1
   7954   7963     1
   7955   7959     1
   7955   7977     1
   7955   7970     1
   7957   7963     1
   7957   7972     1
   7957   7965     1
   7958   7975     1
   7959   7965     1
   7959   7964     1
   7963   7977     1
   7964   7977     1
   7964   7975     1
   7965   7975     1
   7970   7972     1
   7972   7977     1
   7972   7975     1
   7978   7982     1
   7978   7988     1
   7978   7987     1
   7979   7983     1
   7979   8001     1
   7979   7994     1
   7981   7987     1
   7981   7996     1
   7981   7989     1
   7982   7999     1
   7983   7989     1
   7983   7988     1
   7987   8001     1
   7988   8001     1
   7988   7999     1
   7989   7999     1
   7994   7996     1
   7996   8001     1
   7996   7999     1
   8003   8011     1
   8005   8012     1
   8005   8013     1
   8007   8023     1
   8007   8015     1
   8011   8026     1
   8011   8019     1
   8012   8015     1
   8012   8027     1
   8012   8075     1
   8013   8023     1
   8013   8020     1
   8013   8051     1
   8015   8032     1
   8019   8031     1
   8019   8033     1
   8020   8032     1
   8023   8056     1
   8026   8055     1
   8026   8057     1
   8027   8056     1
   8028   8032     1
   8028   8038     1
   8028   8037     1
   8029   8044     1
   8029   8033     1
   8029   8051     1
   8031   8039     1
   8031   8046     1
   8031   8037     1
   8032   8049     1
   8033   8038     1
   8033   8039     1
   8037   8051     1
   8038   8049     1
   8038   8051     1
   8039   8049     1
   8044   8046     1
   8046   8049     1
   8046   8051     1
   8052   8056     1
   8052   8062     1
   8052   8061     1
   8053   8068     1
   8053   8057     1
   8053   8075     1
   8055   8063     1
   8055   8070     1
   8055   8061     1
   8056   8073     1
   8057   8062     1
   8057   8063     1
   8061   8075     1
   8062   8073     1
   8062   8075     1
   8063   8073     1
   8068   8070     1
   8070   8073     1
   8070   8075     1
   8077   8085     1
   8079   8086     1
   8079   8087     1
   8081   8097     1
   8081   8089     1
   8085   8100     1
   8085   8093     1
   8086   8101     1
   8086   8149     1
   8086   8089     1
   8087   8094     1
   8087   8125     1
   8087   8097     1
   8089   8106     1
   8093   8107     1
   8093   8105     1
   8094   8106     1
   8097   8130     1
   8100   8131     1
   8100   8129     1
   8101   8130     1
   8102   8106     1
   8102   8112     1
   8102   8111     1
   8103   8107     1
   8103   8125     1
   8103   8118     1
   8105   8111     1
   8105   8120     1
   8105   8113     1
   8106   8123     1
   8107   8113     1
   8107   8112     1
   8111   8125     1
   8112   8125     1
   8112   8123     1
   8113   8123     1
   8118   8120     1
   8120   8125     1
   8120   8123     1
   8126   8130     1
   8126   8136     1
   8126   8135     1
   8127   8131     1
   8127   8149     1
   8127   8142     1
   8129   8135     1
   8129   8144     1
   8129   8137     1
   8130   8147     1
   8131   8137     1
   8131   8136     1
   8135   8149     1
   8136   8149     1
   8136   8147     1
   8137   8147     1
   8142   8144     1
   8144   8149     1
   8144   8147     1
   8151   8159     1
   8153   8160     1
   8153   8161     1
   8155   8171     1
   8155   8163     1
   8159   8174     1
   8159   8167     1
   8160   8163     1
   8160   8175     1
   8160   8223     1
   8161   8171     1
   8161   8168     1
   8161   8199     1
   8163   8180     1
   8167   8179     1
   8167   8181     1
   8168   8180     1
   8171   8204     1
   8174   8203     1
   8174   8205     1
   8175   8204     1
   8176   8180     1
   8176   8186     1
   8176   8185     1
   8177   8192     1
   8177   8181     1
   8177   8199     1
   8179   8187     1
   8179   8194     1
   8179   8185     1
   8180   8197     1
   8181   8186     1
   8181   8187     1
   8185   8199     1
   8186   8197     1
   8186   8199     1
   8187   8197     1
   8192   8194     1
   8194   8197     1
   8194   8199     1
   8200   8204     1
   8200   8210     1
   8200   8209     1
   8201   8216     1
   8201   8205     1
   8201   8223     1
   8203   8211     1
   8203   8218     1
   8203   8209     1
   8204   8221     1
   8205   8210     1
   8205   8211     1
   8209   8223     1
   8210   8221     1
   8210   8223     1
   8211   8221     1
   8216   8218     1
   8218   8221     1
   8218   8223     1
   8225   8233     1
   8227   8234     1
   8227   8235     1
   8229   8245     1
   8229   8237     1
   8233   8248     1
   8233   8241     1
   8234   8249     1
   8234   8297     1
   8234   8237     1
   8235   8242     1
   8235   8273     1
   8235   8245     1
   8237   8254     1
   8241   8255     1
   8241   8253     1
   8242   8254     1
   8245   8278     1
   8248   8279     1
   8248   8277     1
   8249   8278     1
   8250   8254     1
   8250   8260     1
   8250   8259     1
   8251   8255     1
   8251   8273     1
   8251   8266     1
   8253   8259     1
   8253   8268     1
   8253   8261     1
   8254   8271     1
   8255   8261     1
   8255   8260     1
   8259   8273     1
   8260   8273     1
   8260   8271     1
   8261   8271     1
   8266   8268     1
   8268   8273     1
   8268   8271     1
   8274   8278     1
   8274   8284     1
   8274   8283     1
   8275   8279     1
   8275   8297     1
   8275   8290     1
   8277   8283     1
   8277   8292     1
   8277   8285     1
   8278   8295     1
   8279   8285     1
   8279   8284     1
   8283   8297     1
   8284   8297     1
   8284   8295     1
   8285   8295     1
   8290   8292     1
   8292   8297     1
   8292   8295     1
   8299   8307     1
   8301   8308     1
   8301   8309     1
   8303   8319     1
   8303   8311     1
   8307   8322     1
   8307   8315     1
   8308   8311     1
   8308   8323     1
   8308   8371     1
   8309   8319     1
   8309   8316     1
   8309   8347     1
   8311   8328     1
   8315   8327     1
   8315   8329     1
   8316   8328     1
   8319   8352     1
   8322   8351     1
   8322   8353     1
   8323   8352     1
   8324   8328     1
   8324   8334     1
   8324   8333     1
   8325   8340     1
   8325   8329     1
   8325   8347     1
   8327   8335     1
   8327   8342     1
   8327   8333     1
   8328   8345     1
   8329   8334     1
   8329   8335     1
   8333   8347     1
   8334   8345     1
   8334   8347     1
   8335   8345     1
   8340   8342     1
   8342   8345     1
   8342   8347     1
   8348   8352     1
   8348   8358     1
   8348   8357     1
   8349   8364     1
   8349   8353     1
   8349   8371     1
   8351   8359     1
   8351   8366     1
   8351   8357     1
   8352   8369     1
   8353   8358     1
   8353   8359     1
   8357   8371     1
   8358   8369     1
   8358   8371     1
   8359   8369     1
   8364   8366     1
   8366   8369     1
   8366   8371     1
   8373   8381     1
   8375   8382     1
   8375   8383     1
   8377   8393     1
   8377   8385     1
   8381   8396     1
   8381   8389     1
   8382   8397     1
   8382   8445     1
   8382   8385     1
   8383   8390     1
   8383   8421     1
   8383   8393     1
   8385   8402     1
   8389   8403     1
   8389   8401     1
   8390   8402     1
   8393   8426     1
   8396   8427     1
   8396   8425     1
   8397   8426     1
   8398   8402     1
   8398   8408     1
   8398   8407     1
   8399   8403     1
   8399   8421     1
   8399   8414     1
   8401   8407     1
   8401   8416     1
   8401   8409     1
   8402   8419     1
   8403   8409     1
   8403   8408     1
   8407   8421     1
   8408   8421     1
   8408   8419     1
   8409   8419     1
   8414   8416     1
   8416   8421     1
   8416   8419     1
   8422   8426     1
   8422   8432     1
   8422   8431     1
   8423   8427     1
   8423   8445     1
   8423   8438     1
   8425   8431     1
   8425   8440     1
   8425   8433     1
   8426   8443     1
   8427   8433     1
   8427   8432     1
   8431   8445     1
   8432   8445     1
   8432   8443     1
   8433   8443     1
   8438   8440     1
   8440   8445     1
   8440   8443     1
   8447   8455     1
   8449   8456     1
   8449   8457     1
   8451   8467     1
   8451   8459     1
   8455   8470     1
   8455   8463     1
   8456   8459     1
   8456   8471     1
   8456   8519     1
   8457   8467     1
   8457   8464     1
   8457   8495     1
   8459   8476     1
   8463   8475     1
   8463   8477     1
   8464   8476     1
   8467   8500     1
   8470   8499     1
   8470   8501     1
   8471   8500     1
   8472   8476     1
   8472   8482     1
   8472   8481     1
   8473   8488     1
   8473   8477     1
   8473   8495     1
   8475   8483     1
   8475   8490     1
   8475   8481     1
   8476   8493     1
   8477   8482     1
   8477   8483     1
   8481   8495     1
   8482   8493     1
   8482   8495     1
   8483   8493     1
   8488   8490     1
   8490   8493     1
   8490   8495     1
   8496   8500     1
   8496   8506     1
   8496   8505     1
   8497   8512     1
   8497   8501     1
   8497   8519     1
   8499   8507     1
   8499   8514     1
   8499   8505     1
   8500   8517     1
   8501   8506     1
   8501   8507     1
   8505   8519     1
   8506   8517     1
   8506   8519     1
   8507   8517     1
   8512   8514     1
   8514   8517     1
   8514   8519     1
   8521   8529     1
   8523   8530     1
   8523   8531     1
   8525   8541     1
   8525   8533     1
   8529   8544     1
   8529   8537     1
   8530   8545     1
   8530   8593     1
   8530   8533     1
   8531   8538     1
   8531   8569     1
   8531   8541     1
   8533   8550     1
   8537   8551     1
   8537   8549     1
   8538   8550     1
   8541   8574     1
   8544   8575     1
   8544   8573     1
   8545   8574     1
   8546   8550     1
   8546   8556     1
   8546   8555     1
   8547   8551     1
   8547   8569     1
   8547   8562     1
   8549   8555     1
   8549   8564     1
   8549   8557     1
   8550   8567     1
   8551   8557     1
   8551   8556     1
   8555   8569     1
   8556   8569     1
   8556   8567     1
   8557   8567     1
   8562   8564     1
   8564   8569     1
   8564   8567     1
   8570   8574     1
   8570   8580     1
   8570   8579     1
   8571   8575     1
   8571   8593     1
   8571   8586     1
   8573   8579     1
   8573   8588     1
   8573   8581     1
   8574   8591     1
   8575   8581     1
   8575   8580     1
   8579   8593     1
   8580   8593     1
   8580   8591     1
   8581   8591     1
   8586   8588     1
   8588   8593     1
   8588   8591     1
   8595   8603     1
   8597   8604     1
   8597   8605     1
   8599   8615     1
   8599   8607     1
   8603   8618     1
   8603   8611     1
   8604   8607     1
   8604   8619     1
   8604   8667     1
   8605   8615     1
   8605   8612     1
   8605   8643     1
   8607   8624     1
   8611   8623     1
   8611   8625     1
   8612   8624     1
   8615   8648     1
   8618   8647     1
   8618   8649     1
   8619   8648     1
   8620   8624     1
   8620   8630     1
   8620   8629     1
   8621   8636     1
   8621   8625     1
   8621   8643     1
   8623   8631     1
   8623   8638     1
   8623   8629     1
   8624   8641     1
   8625   8630     1
   8625   8631     1
   8629   8643     1
   8630   8641     1
   8630   8643     1
   8631   8641     1
   8636   8638     1
   8638   8641     1
   8638   8643     1
   8644   8648     1
   8644   8654     1
   8644   8653     1
   8645   8660     1
   8645   8649     1
   8645   8667     1
   8647   8655     1
   8647   8662     1
   8647   8653     1
   8648   8665     1
   8649   8654     1
   8649   8655     1
   8653   8667     1
   8654   8665     1
   8654   8667     1
   8655   8665     1
   8660   8662     1
   8662   8665     1
   8662   8667     1
   8669   8677     1
   8671   8678     1
   8671   8679     1
   8673   8689     1
   8673   8681     1
   8677   8692     1
   8677   8685     1
   8678   8693     1
   8678   8741     1
   8678   8681     1
   8679   8686     1
   8679   8717     1
   8679   8689     1
   8681   8698     1
   8685   8699     1
   8685   8697     1
   8686   8698     1
   8689   8722     1
   8692   8723     1
   8692   8721     1
   8693   8722     1
   8694   8698     1
   8694   8704     1
   8694   8703     1
   8695   8699     1
   8695   8717     1
   8695   8710     1
   8697   8703     1
   8697   8712     1
   8697   8705     1
   8698   8715     1
   8699   8705     1
   8699   8704     1
   8703   8717     1
   8704   8717     1
   8704   8715     1
   8705   8715     1
   8710   8712     1
   8712   8717     1
   8712   8715     1
   8718   8722     1
   8718   8728     1
   8718   8727     1
   8719   8723     1
   8719   8741     1
   8719   8734     1
   8721   8727     1
   8721   8736     1
   8721   8729     1
   8722   8739     1
   8723   8729     1
   8723   8728     1
   8727   8741     1
   8728   8741     1
   8728   8739     1
   8729   8739     1
   8734   8736     1
   8736   8741     1
   8736   8739     1
   8743   8751     1
   8745   8752     1
   8745   8753     1
   8747   8763     1
   8747   8755     1
   8751   8766     1
   8751   8759     1
   8752   8755     1
   8752   8767     1
   8752   8815     1
   8753   8763     1
   8753   8760     1
   8753   8791     1
   8755   8772     1
   8759   8771     1
   8759   8773     1
   8760   8772     1
   8763   8796     1
   8766   8795     1
   8766   8797     1
   8767   8796     1
   8768   8772     1
   8768   8778     1
   8768   8777     1
   8769   8784     1
   8769   8773     1
   8769   8791     1
   8771   8779     1
   8771   8786     1
   8771   8777     1
   8772   8789     1
   8773   8778     1
   8773   8779     1
   8777   8791     1
   8778   8789     1
   8778   8791     1
   8779   8789     1
   8784   8786     1
   8786   8789     1
   8786   8791     1
   8792   8796     1
   8792   8802     1
   8792   8801     1
   8793   8808     1
   8793   8797     1
   8793   8815     1
   8795   8803     1
   8795   8810     1
   8795   8801     1
   8796   8813     1
   8797   8802     1
   8797   8803     1
   8801   8815     1
   8802   8813     1
   8802   8815     1
   8803   8813     1
   8808   8810     1
   8810   8813     1
   8810   8815     1
   8817   8825     1
   8819   8826     1
   8819   8827     1
   8821   8837     1
   8821   8829     1
   8825   8840     1
   8825   8833     1
   8826   8841     1
   8826   8889     1
   8826   8829     1
   8827   8834     1
   8827   8865     1
   8827   8837     1
   8829   8846     1
   8833   8847     1
   8833   8845     1
   8834   8846     1
   8837   8870     1
   8840   8871     1
   8840   8869     1
   8841   8870     1
   8842   8846     1
   8842   8852     1
   8842   8851     1
   8843   8847     1
   8843   8865     1
   8843   8858     1
   8845   8851     1
   8845   8860     1
   8845   8853     1
   8846   8863     1
   8847   8853     1
   8847   8852     1
   8851   8865     1
   8852   8865     1
   8852   8863     1
   8853   8863     1
   8858   8860     1
   8860   8865     1
   8860   8863     1
   8866   8870     1
   8866   8876     1
   8866   8875     1
   8867   8871     1
   8867   8889     1
   8867   8882     1
   8869   8875     1
   8869   8884     1
   8869   8877     1
   8870   8887     1
   8871   8877     1
   8871   8876     1
   8875   8889     1
   8876   8889     1
   8876   8887     1
   8877   8887     1
   8882   8884     1
   8884   8889     1
   8884   8887     1
   8891   8899     1
   8893   8900     1
   8893   8901     1
   8895   8911     1
   8895   8903     1
   8899   8914     1
   8899   8907     1
   8900   8903     1
   8900   8915     1
   8900   8963     1
   8901   8911     1
   8901   8908     1
   8901   8939     1
   8903   8920     1
   8907   8919     1
   8907   8921     1
   8908   8920     1
   8911   8944     1
   8914   8943     1
   8914   8945     1
   8915   8944     1
   8916   8920     1
   8916   8926     1
   8916   8925     1
   8917   8932     1
   8917   8921     1
   8917   8939     1
   8919   8927     1
   8919   8934     1
   8919   8925     1
   8920   8937     1
   8921   8926     1
   8921   8927     1
   8925   8939     1
   8926   8937     1
   8926   8939     1
   8927   8937     1
   8932   8934     1
   8934   8937     1
   8934   8939     1
   8940   8944     1
   8940   8950     1
   8940   8949     1
   8941   8956     1
   8941   8945     1
   8941   8963     1
   8943   8951     1
   8943   8958     1
   8943   8949     1
   8944   8961     1
   8945   8950     1
   8945   8951     1
   8949   8963     1
   8950   8961     1
   8950   8963     1
   8951   8961     1
   8956   8958     1
   8958   8961     1
   8958   8963     1
   8965   8973     1
   8967   8974     1
   8967   8975     1
   8969   8985     1
   8969   8977     1
   8973   8988     1
   8973   8981     1
   8974   8989     1
   8974   9037     1
   8974   8977     1
   8975   8982     1
   8975   9013     1
   8975   8985     1
   8977   8994     1
   8981   8995     1
   8981   8993     1
   8982   8994     1
   8985   9018     1
   8988   9019     1
   8988   9017     1
   8989   9018     1
   8990   8994     1
   8990   9000     1
   8990   8999     1
   8991   8995     1
   8991   9013     1
   8991   9006     1
   8993   8999     1
   8993   9008     1
   8993   9001     1
   8994   9011     1
   8995   9001     1
   8995   9000     1
   8999   9013     1
   9000   9013     1
   9000   9011     1
   9001   9011     1
   9006   9008     1
   9008   9013     1
   9008   9011     1
   9014   9018     1
   9014   9024     1
   9014   9023     1
   9015   9019     1
   9015   9037     1
   9015   9030     1
   9017   9023     1
   9017   9032     1
   9017   9025     1
   9018   9035     1
   9019   9025     1
   9019   9024     1
   9023   9037     1
   9024   9037     1
   9024   9035     1
   9025   9035     1
   9030   9032     1
   9032   9037     1
   9032   9035     1
   9039   9047     1
   9041   9048     1
   9041   9049     1
   9043   9059     1
   9043   9051     1
   9047   9062     1
   9047   9055     1
   9048   9051     1
   9048   9063     1
   9048   9111     1
   9049   9059     1
   9049   9056     1
   9049   9087     1
   9051   9068     1
   9055   9067     1
   9055   9069     1
   9056   9068     1
   9059   9092     1
   9062   9091     1
   9062   9093     1
   9063   9092     1
   9064   9068     1
   9064   9074     1
   9064   9073     1
   9065   9080     1
   9065   9069     1
   9065   9087     1
   9067   9075     1
   9067   9082     1
   9067   9073     1
   9068   9085     1
   9069   9074     1
   9069   9075     1
   9073   9087     1
   9074   9085     1
   9074   9087     1
   9075   9085     1
   9080   9082     1
   9082   9085     1
   9082   9087     1
   9088   9092     1
   9088   9098     1
   9088   9097     1
   9089   9104     1
   9089   9093     1
   9089   9111     1
   9091   9099     1
   9091   9106     1
   9091   9097     1
   9092   9109     1
   9093   9098     1
   9093   9099     1
   9097   9111     1
   9098   9109     1
   9098   9111     1
   9099   9109     1
   9104   9106     1
   9106   9109     1
   9106   9111     1
   9113   9121     1
   9115   9122     1
   9115   9123     1
   9117   9133     1
   9117   9125     1
   9121   9136     1
   9121   9129     1
   9122   9137     1
   9122   9185     1
   9122   9125     1
   9123   9130     1
   9123   9161     1
   9123   9133     1
   9125   9142     1
   9129   9143     1
   9129   9141     1
   9130   9142     1
   9133   9166     1
   9136   9167     1
   9136   9165     1
   9137   9166     1
   9138   9142     1
   9138   9148     1
   9138   9147     1
   9139   9143     1
   9139   9161     1
   9139   9154     1
   9141   9147     1
   9141   9156     1
   9141   9149     1
   9142   9159     1
   9143   9149     1
   9143   9148     1
   9147   9161     1
   9148   9161     1
   9148   9159     1
   9149   9159     1
   9154   9156     1
   9156   9161     1
   9156   9159     1
   9162   9166     1
   9162   9172     1
   9162   9171     1
   9163   9167     1
   9163   9185     1
   9163   9178     1
   9165   9171     1
   9165   9180     1
   9165   9173     1
   9166   9183     1
   9167   9173     1
   9167   9172     1
   9171   9185     1
   9172   9185     1
   9172   9183     1
   9173   9183     1
   9178   9180     1
   9180   9185     1
   9180   9183     1
   9187   9195     1
   9189   9196     1
   9189   9197     1
   9191   9207     1
   9191   9199     1
   9195   9210     1
   9195   9203     1
   9196   9199     1
   9196   9211     1
   9196   9259     1
   9197   9207     1
   9197   9204     1
   9197   9235     1
   9199   9216     1
   9203   9215     1
   9203   9217     1
   9204   9216     1
   9207   9240     1
   9210   9239     1
   9210   9241     1
   9211   9240     1
   9212   9216     1
   9212   9222     1
   9212   9221     1
   9213   9228     1
   9213   9217     1
   9213   9235     1
   9215   9223     1
   9215   9230     1
   9215   9221     1
   9216   9233     1
   9217   9222     1
   9217   9223     1
   9221   9235     1
   9222   9233     1
   9222   9235     1
   9223   9233     1
   9228   9230     1
   9230   9233     1
   9230   9235     1
   9236   9240     1
   9236   9246     1
   9236   9245     1
   9237   9252     1
   9237   9241     1
   9237   9259     1
   9239   9247     1
   9239   9254     1
   9239   9245     1
   9240   9257     1
   9241   9246     1
   9241   9247     1
   9245   9259     1
   9246   9257     1
   9246   9259     1
   9247   9257     1
   9252   9254     1
   9254   9257     1
   9254   9259     1
   9261   9269     1
   9263   9270     1
   9263   9271     1
   9265   9281     1
   9265   9273     1
   9269   9284     1
   9269   9277     1
   9270   9285     1
   9270   9333     1
   9270   9273     1
   9271   9278     1
   9271   9309     1
   9271   9281     1
   9273   9290     1
   9277   9291     1
   9277   9289     1
   9278   9290     1
   9281   9314     1
   9284   9315     1
   9284   9313     1
   9285   9314     1
   9286   9290     1
   9286   9296     1
   9286   9295     1
   9287   9291     1
   9287   9309     1
   9287   9302     1
   9289   9295     1
   9289   9304     1
   9289   9297     1
   9290   9307     1
   9291   9297     1
   9291   9296     1
   9295   9309     1
   9296   9309     1
   9296   9307     1
   9297   9307     1
   9302   9304     1
   9304   9309     1
   9304   9307     1
   9310   9314     1
   9310   9320     1
   9310   9319     1
   9311   9315     1
   9311   9333     1
   9311   9326     1
   9313   9319     1
   9313   9328     1
   9313   9321     1
   9314   9331     1
   9315   9321     1
   9315   9320     1
   9319   9333     1
   9320   9333     1
   9320   9331     1
   9321   9331     1
   9326   9328     1
   9328   9333     1
   9328   9331     1
   9335   9343     1
   9337   9344     1
   9337   9345     1
   9339   9355     1
   9339   9347     1
   9343   9358     1
   9343   9351     1
   9344   9347     1
   9344   9359     1
   9344   9407     1
   9345   9355     1
   9345   9352     1
   9345   9383     1
   9347   9364     1
   9351   9363     1
   9351   9365     1
   9352   9364     1
   9355   9388     1
   9358   9387     1
   9358   9389     1
   9359   9388     1
   9360   9364     1
   9360   9370     1
   9360   9369     1
   9361   9376     1
   9361   9365     1
   9361   9383     1
   9363   9371     1
   9363   9378     1
   9363   9369     1
   9364   9381     1
   9365   9370     1
   9365   9371     1
   9369   9383     1
   9370   9381     1
   9370   9383     1
   9371   9381     1
   9376   9378     1
   9378   9381     1
   9378   9383     1
   9384   9388     1
   9384   9394     1
   9384   9393     1
   9385   9400     1
   9385   9389     1
   9385   9407     1
   9387   9395     1
   9387   9402     1
   9387   9393     1
   9388   9405     1
   9389   9394     1
   9389   9395     1
   9393   9407     1
   9394   9405     1
   9394   9407     1
   9395   9405     1
   9400   9402     1
   9402   9405     1
   9402   9407     1
   9409   9417     1
   9411   9418     1
   9411   9419     1
   9413   9429     1
   9413   9421     1
   9417   9432     1
   9417   9425     1
   9418   9433     1
   9418   9481     1
   9418   9421     1
   9419   9426     1
   9419   9457     1
   9419   9429     1
   9421   9438     1
   9425   9439     1
   9425   9437     1
   9426   9438     1
   9429   9462     1
   9432   9463     1
   9432   9461     1
   9433   9462     1
   9434   9438     1
   9434   9444     1
   9434   9443     1
   9435   9439     1
   9435   9457     1
   9435   9450     1
   9437   9443     1
   9437   9452     1
   9437   9445     1
   9438   9455     1
   9439   9445     1
   9439   9444     1
   9443   9457     1
   9444   9457     1
   9444   9455     1
   9445   9455     1
   9450   9452     1
   9452   9457     1
   9452   9455     1
   9458   9462     1
   9458   9468     1
   9458   9467     1
   9459   9463     1
   9459   9481     1
   9459   9474     1
   9461   9467     1
   9461   9476     1
   9461   9469     1
   9462   9479     1
   9463   9469     1
   9463   9468     1
   9467   9481     1
   9468   9481     1
   9468   9479     1
   9469   9479     1
   9474   9476     1
   9476   9481     1
   9476   9479     1
   9483   9491     1
   9485   9492     1
   9485   9493     1
   9487   9503     1
   9487   9495     1
   9491   9506     1
   9491   9499     1
   9492   9495     1
   9492   9507     1
   9492   9555     1
   9493   9503     1
   9493   9500     1
   9493   9531     1
   9495   9512     1
   9499   9511     1
   9499   9513     1
   9500   9512     1
   9503   9536     1
   9506   9535     1
   9506   9537     1
   9507   9536     1
   9508   9512     1
   9508   9518     1
   9508   9517     1
   9509   9524     1
   9509   9513     1
   9509   9531     1
   9511   9519     1
   9511   9526     1
   9511   9517     1
   9512   9529     1
   9513   9518     1
   9513   9519     1
   9517   9531     1
   9518   9529     1
   9518   9531     1
   9519   9529     1
   9524   9526     1
   9526   9529     1
   9526   9531     1
   9532   9536     1
   9532   9542     1
   9532   9541     1
   9533   9548     1
   9533   9537     1
   9533   9555     1
   9535   9543     1
   9535   9550     1
   9535   9541     1
   9536   9553     1
   9537   9542     1
   9537   9543     1
   9541   9555     1
   9542   9553     1
   9542   9555     1
   9543   9553     1
   9548   9550     1
   9550   9553     1
   9550   9555     1
   9557   9565     1
   9559   9566     1
   9559   9567     1
   9561   9577     1
   9561   9569     1
   9565   9580     1
   9565   9573     1
   9566   9581     1
   9566   9629     1
   9566   9569     1
   9567   9574     1
   9567   9605     1
   9567   9577     1
   9569   9586     1
   9573   9587     1
   9573   9585     1
   9574   9586     1
   9577   9610     1
   9580   9611     1
   9580   9609     1
   9581   9610     1
   9582   9586     1
   9582   9592     1
   9582   9591     1
   9583   9587     1
   9583   9605     1
   9583   9598     1
   9585   9591     1
   9585   9600     1
   9585   9593     1
   9586   9603     1
   9587   9593     1
   9587   9592     1
   9591   9605     1
   9592   9605     1
   9592   9603     1
   9593   9603     1
   9598   9600     1
   9600   9605     1
   9600   9603     1
   9606   9610     1
   9606   9616     1
   9606   9615     1
   9607   9611     1
   9607   9629     1
   9607   9622     1
   9609   9615     1
   9609   9624     1
   9609   9617     1
   9610   9627     1
   9611   9617     1
   9611   9616     1
   9615   9629     1
   9616   9629     1
   9616   9627     1
   9617   9627     1
   9622   9624     1
   9624   9629     1
   9624   9627     1
   9631   9639     1
   9633   9640     1
   9633   9641     1
   9635   9651     1
   9635   9643     1
   9639   9654     1
   9639   9647     1
   9640   9643     1
   9640   9655     1
   9640   9703     1
   9641   9651     1
   9641   9648     1
   9641   9679     1
   9643   9660     1
   9647   9659     1
   9647   9661     1
   9648   9660     1
   9651   9684     1
   9654   9683     1
   9654   9685     1
   9655   9684     1
   9656   9660     1
   9656   9666     1
   9656   9665     1
   9657   9672     1
   9657   9661     1
   9657   9679     1
   9659   9667     1
   9659   9674     1
   9659   9665     1
   9660   9677     1
   9661   9666     1
   9661   9667     1
   9665   9679     1
   9666   9677     1
   9666   9679     1
   9667   9677     1
   9672   9674     1
   9674   9677     1
   9674   9679     1
   9680   9684     1
   9680   9690     1
   9680   9689     1
   9681   9696     1
   9681   9685     1
   9681   9703     1
   9683   9691     1
   9683   9698     1
   9683   9689     1
   9684   9701     1
   9685   9690     1
   9685   9691     1
   9689   9703     1
   9690   9701     1
   9690   9703     1
   9691   9701     1
   9696   9698     1
   9698   9701     1
   9698   9703     1
   9705   9713     1
   9707   9714     1
   9707   9715     1
   9709   9725     1
   9709   9717     1
   9713   9728     1
   9713   9721     1
   9714   9729     1
   9714   9777     1
   9714   9717     1
   9715   9722     1
   9715   9753     1
   9715   9725     1
   9717   9734     1
   9721   9735     1
   9721   9733     1
   9722   9734     1
   9725   9758     1
   9728   9759     1
   9728   9757     1
   9729   9758     1
   9730   9734     1
   9730   9740     1
   9730   9739     1
   9731   9735     1
   9731   9753     1
   9731   9746     1
   9733   9739     1
   9733   9748     1
   9733   9741     1
   9734   9751     1
   9735   9741     1
   9735   9740     1
   9739   9753     1
   9740   9753     1
   9740   9751     1
   9741   9751     1
   9746   9748     1
   9748   9753     1
   9748   9751     1
   9754   9758     1
   9754   9764     1
   9754   9763     1
   9755   9759     1
   9755   9777     1
   9755   9770     1
   9757   9763     1
   9757   9772     1
   9757   9765     1
   9758   9775     1
   9759   9765     1
   9759   9764     1
   9763   9777     1
   9764   9777     1
   9764   9775     1
   9765   9775     1
   9770   9772     1
   9772   9777     1
   9772   9775     1
   9779   9787     1
   9781   9788     1
   9781   9789     1
   9783   9799     1
   9783   9791     1
   9787   9802     1
   9787   9795     1
   9788   9791     1
   9788   9803     1
   9788   9851     1
   9789   9799     1
   9789   9796     1
   9789   9827     1
   9791   9808     1
   9795   9807     1
   9795   9809     1
   9796   9808     1
   9799   9832     1
   9802   9831     1
   9802   9833     1
   9803   9832     1
   9804   9808     1
   9804   9814     1
   9804   9813     1
   9805   9820     1
   9805   9809     1
   9805   9827     1
   9807   9815     1
   9807   9822     1
   9807   9813     1
   9808   9825     1
   9809   9814     1
   9809   9815     1
   9813   9827     1
   9814   9825     1
   9814   9827     1
   9815   9825     1
   9820   9822     1
   9822   9825     1
   9822   9827     1
   9828   9832     1
   9828   9838     1
   9828   9837     1
   9829   9844     1
   9829   9833     1
   9829   9851     1
   9831   9839     1
   9831   9846     1
   9831   9837     1
   9832   9849     1
   9833   9838     1
   9833   9839     1
   9837   9851     1
   9838   9849     1
   9838   9851     1
   9839   9849     1
   9844   9846     1
   9846   9849     1
   9846   9851     1
   9853   9861     1
   9855   9862     1
   9855   9863     1
   9857   9873     1
   9857   9865     1
   9861   9876     1
   9861   9869     1
   9862   9877     1
   9862   9925     1
   9862   9865     1
   9863   9870     1
   9863   9901     1
   9863   9873     1
   9865   9882     1
   9869   9883     1
   9869   9881     1
   9870   9882     1
   9873   9906     1
   9876   9907     1
   9876   9905     1
   9877   9906     1
   9878   9882     1
   9878   9888     1
   9878   9887     1
   9879   9883     1
   9879   9901     1
   9879   9894     1
   9881   9887     1
   9881   9896     1
   9881   9889     1
   9882   9899     1
   9883   9889     1
   9883   9888     1
   9887   9901     1
   9888   9901     1
   9888   9899     1
   9889   9899     1
   9894   9896     1
   9896   9901     1
   9896   9899     1
   9902   9906     1
   9902   9912     1
   9902   9911     1
   9903   9907     1
   9903   9925     1
   9903   9918     1
   9905   9911     1
   9905   9920     1
   9905   9913     1
   9906   9923     1
   9907   9913     1
   9907   9912     1
   9911   9925     1
   9912   9925     1
   9912   9923     1
   9913   9923     1
   9918   9920     1
   9920   9925     1
   9920   9923     1
   9927   9935     1
   9929   9936     1
   9929   9937     1
   9931   9947     1
   9931   9939     1
   9935   9950     1
   9935   9943     1
   9936   9939     1
   9936   9951     1
   9936   9999     1
   9937   9947     1
   9937   9944     1
   9937   9975     1
   9939   9956     1
   9943   9955     1
   9943   9957     1
   9944   9956     1
   9947   9980     1
   9950   9979     1
   9950   9981     1
   9951   9980     1
   9952   9956     1
   9952   9962     1
   9952   9961     1
   9953   9968     1
   9953   9957     1
   9953   9975     1
   9955   9963     1
   9955   9970     1
   9955   9961     1
   9956   9973     1
   9957   9962     1
   9957   9963     1
   9961   9975     1
   9962   9973     1
   9962   9975     1
   9963   9973     1
   9968   9970     1
   9970   9973     1
   9970   9975     1
   9976   9980     1
   9976   9986     1
   9976   9985     1
   9977   9992     1
   9977   9981     1
   9977   9999     1
   9979   9987     1
   9979   9994     1
   9979   9985     1
   9980   9997     1
   9981   9986     1
   9981   9987     1
   9985   9999     1
   9986   9997     1
   9986   9999     1
   9987   9997     1
   9992   9994     1
   9994   9997     1
   9994   9999     1
  10001  10009     1
  10003  10010     1
  10003  10011     1
  10005  10021     1
  10005  10013     1
  10009  10024     1
  10009  10017     1
  10010  10025     1
  10010  10073     1
  10010  10013     1
  10011  10018     1
  10011  10049     1
  10011  10021     1
  10013  10030     1
  10017  10031     1
  10017  10029     1
  10018  10030     1
  10021  10054     1
  10024  10055     1
  10024  10053     1
  10025  10054     1
  10026  10030     1
  10026  10036     1
  10026  10035     1
  10027  10031     1
  10027  10049     1
  10027  10042     1
  10029  10035     1
  10029  10044     1
  10029  10037     1
  10030  10047     1
  10031  10037     1
  10031  10036     1
  10035  10049     1
  10036  10049     1
  10036  10047     1
  10037  10047     1
  10042  10044     1
  10044  10049     1
  10044  10047     1
  10050  10054     1
  10050  10060     1
  10050  10059     1
  10051  10055     1
  10051  10073     1
  10051  10066     1
  10053  10059     1
  10053  10068     1
  10053  10061     1
  10054  10071     1
  10055  10061     1
  10055  10060     1
  10059  10073     1
  10060  10073     1
  10060  10071     1
  10061  10071     1
  10066  10068     1
  10068  10073     1
  10068  10071     1
  10075  10083     1
  10077  10084     1
  10077  10085     1
  10079  10095     1
  10079  10087     1
  10083  10098     1
  10083  10091     1
  10084  10087     1
  10084  10099     1
  10084  10147     1
  10085  10095     1
  10085  10092     1
  10085  10123     1
  10087  10104     1
  10091  10103     1
  10091  10105     1
  10092  10104     1
  10095  10128     1
  10098  10127     1
  10098  10129     1
  10099  10128     1
  10100  10104     1
  10100  10110     1
  10100  10109     1
  10101  10116     1
  10101  10105     1
  10101  10123     1
  10103  10111     1
  10103  10118     1
  10103  10109     1
  10104  10121     1
  10105  10110     1
  10105  10111     1
  10109  10123     1
  10110  10121     1
  10110  10123     1
  10111  10121     1
  10116  10118     1
  10118  10121     1
  10118  10123     1
  10124  10128     1
  10124  10134     1
  10124  10133     1
  10125  10140     1
  10125  10129     1
  10125  10147     1
  10127  10135     1
  10127  10142     1
  10127  10133     1
  10128  10145     1
  10129  10134     1
  10129  10135     1
  10133  10147     1
  10134  10145     1
  10134  10147     1
  10135  10145     1
  10140  10142     1
  10142  10145     1
  10142  10147     1
  10149  10157     1
  10151  10158     1
  10151  10159     1
  10153  10169     1
  10153  10161     1
  10157  10172     1
  10157  10165     1
  10158  10173     1
  10158  10221     1
  10158  10161     1
  10159  10166     1
  10159  10197     1
  10159  10169     1
  10161  10178     1
  10165  10179     1
  10165  10177     1
  10166  10178     1
  10169  10202     1
  10172  10203     1
  10172  10201     1
  10173  10202     1
  10174  10178     1
  10174  10184     1
  10174  10183     1
  10175  10179     1
  10175  10197     1
  10175  10190     1
  10177  10183     1
  10177  10192     1
  10177  10185     1
  10178  10195     1
  10179  10185     1
  10179  10184     1
  10183  10197     1
  10184  10197     1
  10184  10195     1
  10185  10195     1
  10190  10192     1
  10192  10197     1
  10192  10195     1
  10198  10202     1
  10198  10208     1
  10198  10207     1
  10199  10203     1
  10199  10221     1
  10199  10214     1
  10201  10207     1
  10201  10216     1
  10201  10209     1
  10202  10219     1
  10203  10209     1
  10203  10208     1
  10207  10221     1
  10208  10221     1
  10208  10219     1
  10209  10219     1
  10214  10216     1
  10216  10221     1
  10216  10219     1
  10223  10231     1
  10225  10232     1
  10225  10233     1
  10227  10243     1
  10227  10235     1
  10231  10246     1
  10231  10239     1
  10232  10235     1
  10232  10247     1
  10232  10295     1
  10233  10243     1
  10233  10240     1
  10233  10271     1
  10235  10252     1
  10239  10251     1
  10239  10253     1
  10240  10252     1
  10243  10276     1
  10246  10275     1
  10246  10277     1
  10247  10276     1
  10248  10252     1
  10248  10258     1
  10248  10257     1
  10249  10264     1
  10249  10253     1
  10249  10271     1
  10251  10259     1
  10251  10266     1
  10251  10257     1
  10252  10269     1
  10253  10258     1
  10253  10259     1
  10257  10271     1
  10258  10269     1
  10258  10271     1
  10259  10269     1
  10264  10266     1
  10266  10269     1
  10266  10271     1
  10272  10276     1
  10272  10282     1
  10272  10281     1
  10273  10288     1
  10273  10277     1
  10273  10295     1
  10275  10283     1
  10275  10290     1
  10275  10281     1
  10276  10293     1
  10277  10282     1
  10277  10283     1
  10281  10295     1
  10282  10293     1
  10282  10295     1
  10283  10293     1
  10288  10290     1
  10290  10293     1
  10290  10295     1
  10297  10305     1
  10299  10306     1
  10299  10307     1
  10301  10317     1
  10301  10309     1
  10305  10320     1
  10305  10313     1
  10306  10321     1
  10306  10369     1
  10306  10309     1
  10307  10314     1
  10307  10345     1
  10307  10317     1
  10309  10326     1
  10313  10327     1
  10313  10325     1
  10314  10326     1
  10317  10350     1
  10320  10351     1
  10320  10349     1
  10321  10350     1
  10322  10326     1
  10322  10332     1
  10322  10331     1
  10323  10327     1
  10323  10345     1
  10323  10338     1
  10325  10331     1
  10325  10340     1
  10325  10333     1
  10326  10343     1
  10327  10333     1
  10327  10332     1
  10331  10345     1
  10332  10345     1
  10332  10343     1
  10333  10343     1
  10338  10340     1
  10340  10345     1
  10340  10343     1
  10346  10350     1
  10346  10356     1
  10346  10355     1
  10347  10351     1
  10347  10369     1
  10347  10362     1
  10349  10355     1
  10349  10364     1
  10349  10357     1
  10350  10367     1
  10351  10357     1
  10351  10356     1
  10355  10369     1
  10356  10369     1
  10356  10367     1
  10357  10367     1
  10362  10364     1
  10364  10369     1
  10364  10367     1
  10371  10379     1
  10373  10380     1
  10373  10381     1
  10375  10391     1
  10375  10383     1
  10379  10394     1
  10379  10387     1
  10380  10383     1
  10380  10395     1
  10380  10443     1
  10381  10391     1
  10381  10388     1
  10381  10419     1
  10383  10400     1
  10387  10399     1
  10387  10401     1
  10388  10400     1
  10391  10424     1
  10394  10423     1
  10394  10425     1
  10395  10424     1
  10396  10400     1
  10396  10406     1
  10396  10405     1
  10397  10412     1
  10397  10401     1
  10397  10419     1
  10399  10407     1
  10399  10414     1
  10399  10405     1
  10400  10417     1
  10401  10406     1
  10401  10407     1
  10405  10419     1
  10406  10417     1
  10406  10419     1
  10407  10417     1
  10412  10414     1
  10414  10417     1
  10414  10419     1
  10420  10424     1
  10420  10430     1
  10420  10429     1
  10421  10436     1
  10421  10425     1
  10421  10443     1
  10423  10431     1
  10423  10438     1
  10423  10429     1
  10424  10441     1
  10425  10430     1
  10425  10431     1
  10429  10443     1
  10430  10441     1
  10430  10443     1
  10431  10441     1
  10436  10438     1
  10438  10441     1
  10438  10443     1
  10445  10453     1
  10447  10454     1
  10447  10455     1
  10449  10465     1
  10449  10457     1
  10453  10468     1
  10453  10461     1
  10454  10469     1
  10454  10517     1
  10454  10457     1
  10455  10462     1
  10455  10493     1
  10455  10465     1
  10457  10474     1
  10461  10475     1
  10461  10473     1
  10462  10474     1
  10465  10498     1
  10468  10499     1
  10468  10497     1
  10469  10498     1
  10470  10474     1
  10470  10480     1
  10470  10479     1
  10471  10475     1
  10471  10493     1
  10471  10486     1
  10473  10479     1
  10473  10488     1
  10473  10481     1
  10474  10491     1
  10475  10481     1
  10475  10480     1
  10479  10493     1
  10480  10493     1
  10480  10491     1
  10481  10491     1
  10486  10488     1
  10488  10493     1
  10488  10491     1
  10494  10498     1
  10494  10504     1
  10494  10503     1
  10495  10499     1
  10495  10517     1
  10495  10510     1
  10497  10503     1
  10497  10512     1
  10497  10505     1
  10498  10515     1
  10499  10505     1
  10499  10504     1
  10503  10517     1
  10504  10517     1
  10504  10515     1
  10505  10515     1
  10510  10512     1
  10512  10517     1
  10512  10515     1
  10519  10527     1
  10521  10528     1
  10521  10529     1
  10523  10539     1
  10523  10531     1
  10527  10542     1
  10527  10535     1
  10528  10531     1
  10528  10543     1
  10528  10591     1
  10529  10539     1
  10529  10536     1
  10529  10567     1
  10531  10548     1
  10535  10547     1
  10535  10549     1
  10536  10548     1
  10539  10572     1
  10542  10571     1
  10542  10573     1
  10543  10572     1
  10544  10548     1
  10544  10554     1
  10544  10553     1
  10545  10560     1
  10545  10549     1
  10545  10567     1
  10547  10555     1
  10547  10562     1
  10547  10553     1
  10548  10565     1
  10549  10554     1
  10549  10555     1
  10553  10567     1
  10554  10565     1
  10554  10567     1
  10555  10565     1
  10560  10562     1
  10562  10565     1
  10562  10567     1
  10568  10572     1
  10568  10578     1
  10568  10577     1
  10569  10584     1
  10569  10573     1
  10569  10591     1
  10571  10579     1
  10571  10586     1
  10571  10577     1
  10572  10589     1
  10573  10578     1
  10573  10579     1
  10577  10591     1
  10578  10589     1
  10578  10591     1
  10579  10589     1
  10584  10586     1
  10586  10589     1
  10586  10591     1
  10593  10601     1
  10595  10602     1
  10595  10603     1
  10597  10613     1
  10597  10605     1
  10601  10616     1
  10601  10609     1
  10602  10617     1
  10602  10665     1
  10602  10605     1
  10603  10610     1
  10603  10641     1
  10603  10613     1
  10605  10622     1
  10609  10623     1
  10609  10621     1
  10610  10622     1
  10613  10646     1
  10616  10647     1
  10616  10645     1
  10617  10646     1
  10618  10622     1
  10618  10628     1
  10618  10627     1
  10619  10623     1
  10619  10641     1
  10619  10634     1
  10621  10627     1
  10621  10636     1
  10621  10629     1
  10622  10639     1
  10623  10629     1
  10623  10628     1
  10627  10641     1
  10628  10641     1
  10628  10639     1
  10629  10639     1
  10634  10636     1
  10636  10641     1
  10636  10639     1
  10642  10646     1
  10642  10652     1
  10642  10651     1
  10643  10647     1
  10643  10665     1
  10643  10658     1
  10645  10651     1
  10645  10660     1
  10645  10653     1
  10646  10663     1
  10647  10653     1
  10647  10652     1
  10651  10665     1
  10652  10665     1
  10652  10663     1
  10653  10663     1
  10658  10660     1
  10660  10665     1
  10660  10663     1
  10667  10675     1
  10669  10676     1
  10669  10677     1
  10671  10687     1
  10671  10679     1
  10675  10690     1
  10675  10683     1
  10676  10679     1
  10676  10691     1
  10676  10739     1
  10677  10687     1
  10677  10684     1
  10677  10715     1
  10679  10696     1
  10683  10695     1
  10683  10697     1
  10684  10696     1
  10687  10720     1
  10690  10719     1
  10690  10721     1
  10691  10720     1
  10692  10696     1
  10692  10702     1
  10692  10701     1
  10693  10708     1
  10693  10697     1
  10693  10715     1
  10695  10703     1
  10695  10710     1
  10695  10701     1
  10696  10713     1
  10697  10702     1
  10697  10703     1
  10701  10715     1
  10702  10713     1
  10702  10715     1
  10703  10713     1
  10708  10710     1
  10710  10713     1
  10710  10715     1
  10716  10720     1
  10716  10726     1
  10716  10725     1
  10717  10732     1
  10717  10721     1
  10717  10739     1
  10719  10727     1
  10719  10734     1
  10719  10725     1
  10720  10737     1
  10721  10726     1
  10721  10727     1
  10725  10739     1
  10726  10737     1
  10726  10739     1
  10727  10737     1
  10732  10734     1
  10734  10737     1
  10734  10739     1
  10741  10749     1
  10743  10750     1
  10743  10751     1
  10745  10761     1
  10745  10753     1
  10749  10764     1
  10749  10757     1
  10750  10765     1
  10750  10813     1
  10750  10753     1
  10751  10758     1
  10751  10789     1
  10751  10761     1
  10753  10770     1
  10757  10771     1
  10757  10769     1
  10758  10770     1
  10761  10794     1
  10764  10795     1
  10764  10793     1
  10765  10794     1
  10766  10770     1
  10766  10776     1
  10766  10775     1
  10767  10771     1
  10767  10789     1
  10767  10782     1
  10769  10775     1
  10769  10784     1
  10769  10777     1
  10770  10787     1
  10771  10777     1
  10771  10776     1
  10775  10789     1
  10776  10789     1
  10776  10787     1
  10777  10787     1
  10782  10784     1
  10784  10789     1
  10784  10787     1
  10790  10794     1
  10790  10800     1
  10790  10799     1
  10791  10795     1
  10791  10813     1
  10791  10806     1
  10793  10799     1
  10793  10808     1
  10793  10801     1
  10794  10811     1
  10795  10801     1
  10795  10800     1
  10799  10813     1
  10800  10813     1
  10800  10811     1
  10801  10811     1
  10806  10808     1
  10808  10813     1
  10808  10811     1
  10815  10823     1
  10817  10824     1
  10817  10825     1
  10819  10835     1
  10819  10827     1
  10823  10838     1
  10823  10831     1
  10824  10827     1
  10824  10839     1
  10824  10887     1
  10825  10835     1
  10825  10832     1
  10825  10863     1
  10827  10844     1
  10831  10843     1
  10831  10845     1
  10832  10844     1
  10835  10868     1
  10838  10867     1
  10838  10869     1
  10839  10868     1
  10840  10844     1
  10840  10850     1
  10840  10849     1
  10841  10856     1
  10841  10845     1
  10841  10863     1
  10843  10851     1
  10843  10858     1
  10843  10849     1
  10844  10861     1
  10845  10850     1
  10845  10851     1
  10849  10863     1
  10850  10861     1
  10850  10863     1
  10851  10861     1
  10856  10858     1
  10858  10861     1
  10858  10863     1
  10864  10868     1
  10864  10874     1
  10864  10873     1
  10865  10880     1
  10865  10869     1
  10865  10887     1
  10867  10875     1
  10867  10882     1
  10867  10873     1
  10868  10885     1
  10869  10874     1
  10869  10875     1
  10873  10887     1
  10874  10885     1
  10874  10887     1
  10875  10885     1
  10880  10882     1
  10882  10885     1
  10882  10887     1
  10889  10897     1
  10891  10898     1
  10891  10899     1
  10893  10909     1
  10893  10901     1
  10897  10912     1
  10897  10905     1
  10898  10913     1
  10898  10961     1
  10898  10901     1
  10899  10906     1
  10899  10937     1
  10899  10909     1
  10901  10918     1
  10905  10919     1
  10905  10917     1
  10906  10918     1
  10909  10942     1
  10912  10943     1
  10912  10941     1
  10913  10942     1
  10914  10918     1
  10914  10924     1
  10914  10923     1
  10915  10919     1
  10915  10937     1
  10915  10930     1
  10917  10923     1
  10917  10932     1
  10917  10925     1
  10918  10935     1
  10919  10925     1
  10919  10924     1
  10923  10937     1
  10924  10937     1
  10924  10935     1
  10925  10935     1
  10930  10932     1
  10932  10937     1
  10932  10935     1
  10938  10942     1
  10938  10948     1
  10938  10947     1
  10939  10943     1
  10939  10961     1
  10939  10954     1
  10941  10947     1
  10941  10956     1
  10941  10949     1
  10942  10959     1
  10943  10949     1
  10943  10948     1
  10947  10961     1
  10948  10961     1
  10948  10959     1
  10949  10959     1
  10954  10956     1
  10956  10961     1
  10956  10959     1
  10963  10971     1
  10965  10972     1
  10965  10973     1
  10967  10983     1
  10967  10975     1
  10971  10986     1
  10971  10979     1
  10972  10975     1
  10972  10987     1
  10972  11035     1
  10973  10983     1
  10973  10980     1
  10973  11011     1
  10975  10992     1
  10979  10991     1
  10979  10993     1
  10980  10992     1
  10983  11016     1
  10986  11015     1
  10986  11017     1
  10987  11016     1
  10988  10992     1
  10988  10998     1
  10988  10997     1
  10989  11004     1
  10989  10993     1
  10989  11011     1
  10991  10999     1
  10991  11006     1
  10991  10997     1
  10992  11009     1
  10993  10998     1
  10993  10999     1
  10997  11011     1
  10998  11009     1
  10998  11011     1
  10999  11009     1
  11004  11006     1
  11006  11009     1
  11006  11011     1
  11012  11016     1
  11012  11022     1
  11012  11021     1
  11013  11028     1
  11013  11017     1
  11013  11035     1
  11015  11023     1
  11015  11030     1
  11015  11021     1
  11016  11033     1
  11017  11022     1
  11017  11023     1
  11021  11035     1
  11022  11033     1
  11022  11035     1
  11023  11033     1
  11028  11030     1
  11030  11033     1
  11030  11035     1
  11037  11045     1
  11039  11046     1
  11039  11047     1
  11041  11057     1
  11041  11049     1
  11045  11060     1
  11045  11053     1
  11046  11061     1
  11046  11109     1
  11046  11049     1
  11047  11054     1
  11047  11085     1
  11047  11057     1
  11049  11066     1
  11053  11067     1
  11053  11065     1
  11054  11066     1
  11057  11090     1
  11060  11091     1
  11060  11089     1
  11061  11090     1
  11062  11066     1
  11062  11072     1
  11062  11071     1
  11063  11067     1
  11063  11085     1
  11063  11078     1
  11065  11071     1
  11065  11080     1
  11065  11073     1
  11066  11083     1
  11067  11073     1
  11067  11072     1
  11071  11085     1
  11072  11085     1
  11072  11083     1
  11073  11083     1
  11078  11080     1
  11080  11085     1
  11080  11083     1
  11086  11090     1
  11086  11096     1
  11086  11095     1
  11087  11091     1
  11087  11109     1
  11087  11102     1
  11089  11095     1
  11089  11104     1
  11089  11097     1
  11090  11107     1
  11091  11097     1
  11091  11096     1
  11095  11109     1
  11096  11109     1
  11096  11107     1
  11097  11107     1
  11102  11104     1
  11104  11109     1
  11104  11107     1
  11111  11119     1
  11113  11120     1
  11113  11121     1
  11115  11131     1
  11115  11123     1
  11119  11134     1
  11119  11127     1
  11120  11123     1
  11120  11135     1
  11120  11183     1
  11121  11131     1
  11121  11128     1
  11121  11159     1
  11123  11140     1
  11127  11139     1
  11127  11141     1
  11128  11140     1
  11131  11164     1
  11134  11163     1
  11134  11165     1
  11135  11164     1
  11136  11140     1
  11136  11146     1
  11136  11145     1
  11137  11152     1
  11137  11141     1
  11137  11159     1
  11139  11147     1
  11139  11154     1
  11139  11145     1
  11140  11157     1
  11141  11146     1
  11141  11147     1
  11145  11159     1
  11146  11157     1
  11146  11159     1
  11147  11157     1
  11152  11154     1
  11154  11157     1
  11154  11159     1
  11160  11164     1
  11160  11170     1
  11160  11169     1
  11161  11176     1
  11161  11165     1
  11161  11183     1
  11163  11171     1
  11163  11178     1
  11163  11169     1
  11164  11181     1
  11165  11170     1
  11165  11171     1
  11169  11183     1
  11170  11181     1
  11170  11183     1
  11171  11181     1
  11176  11178     1
  11178  11181     1
  11178  11183     1
  11185  11193     1
  11187  11194     1
  11187  11195     1
  11189  11205     1
  11189  11197     1
  11193  11208     1
  11193  11201     1
  11194  11209     1
  11194  11257     1
  11194  11197     1
  11195  11202     1
  11195  11233     1
  11195  11205     1
  11197  11214     1
  11201  11215     1
  11201  11213     1
  11202  11214     1
  11205  11238     1
  11208  11239     1
  11208  11237     1
  11209  11238     1
  11210  11214     1
  11210  11220     1
  11210  11219     1
  11211  11215     1
  11211  11233     1
  11211  11226     1
  11213  11219     1
  11213  11228     1
  11213  11221     1
  11214  11231     1
  11215  11221     1
  11215  11220     1
  11219  11233     1
  11220  11233     1
  11220  11231     1
  11221  11231     1
  11226  11228     1
  11228  11233     1
  11228  11231     1
  11234  11238     1
  11234  11244     1
  11234  11243     1
  11235  11239     1
  11235  11257     1
  11235  11250     1
  11237  11243     1
  11237  11252     1
  11237  11245     1
  11238  11255     1
  11239  11245     1
  11239  11244     1
  11243  11257     1
  11244  11257     1
  11244  11255     1
  11245  11255     1
  11250  11252     1
  11252  11257     1
  11252  11255     1
  11259  11267     1
  11261  11268     1
  11261  11269     1
  11263  11279     1
  11263  11271     1
  11267  11282     1
  11267  11275     1
  11268  11271     1
  11268  11283     1
  11268  11331     1
  11269  11279     1
  11269  11276     1
  11269  11307     1
  11271  11288     1
  11275  11287     1
  11275  11289     1
  11276  11288     1
  11279  11312     1
  11282  11311     1
  11282  11313     1
  11283  11312     1
  11284  11288     1
  11284  11294     1
  11284  11293     1
  11285  11300     1
  11285  11289     1
  11285  11307     1
  11287  11295     1
  11287  11302     1
  11287  11293     1
  11288  11305     1
  11289  11294     1
  11289  11295     1
  11293  11307     1
  11294  11305     1
  11294  11307     1
  11295  11305     1
  11300  11302     1
  11302  11305     1
  11302  11307     1
  11308  11312     1
  11308  11318     1
  11308  11317     1
  11309  11324     1
  11309  11313     1
  11309  11331     1
  11311  11319     1
  11311  11326     1
  11311  11317     1
  11312  11329     1
  11313  11318     1
  11313  11319     1
  11317  11331     1
  11318  11329     1
  11318  11331     1
  11319  11329     1
  11324  11326     1
  11326  11329     1
  11326  11331     1
  11333  11341     1
  11335  11342     1
  11335  11343     1
  11337  11353     1
  11337  11345     1
  11341  11356     1
  11341  11349     1
  11342  11357     1
  11342  11405     1
  11342  11345     1
  11343  11350     1
  11343  11381     1
  11343  11353     1
  11345  11362     1
  11349  11363     1
  11349  11361     1
  11350  11362     1
  11353  11386     1
  11356  11387     1
  11356  11385     1
  11357  11386     1
  11358  11362     1
  11358  11368     1
  11358  11367     1
  11359  11363     1
  11359  11381     1
  11359  11374     1
  11361  11367     1
  11361  11376     1
  11361  11369     1
  11362  11379     1
  11363  11369     1
  11363  11368     1
  11367  11381     1
  11368  11381     1
  11368  11379     1
  11369  11379     1
  11374  11376     1
  11376  11381     1
  11376  11379     1
  11382  11386     1
  11382  11392     1
  11382  11391     1
  11383  11387     1
  11383  11405     1
  11383  11398     1
  11385  11391     1
  11385  11400     1
  11385  11393     1
  11386  11403     1
  11387  11393     1
  11387  11392     1
  11391  11405     1
  11392  11405     1
  11392  11403     1
  11393  11403     1
  11398  11400     1
  11400  11405     1
  11400  11403     1
  11407  11415     1
  11409  11416     1
  11409  11417     1
  11411  11427     1
  11411  11419     1
  11415  11430     1
  11415  11423     1
  11416  11419     1
  11416  11431     1
  11416  11479     1
  11417  11427     1
  11417  11424     1
  11417  11455     1
  11419  11436     1
  11423  11435     1
  11423  11437     1
  11424  11436     1
  11427  11460     1
  11430  11459     1
  11430  11461     1
  11431  11460     1
  11432  11436     1
  11432  11442     1
  11432  11441     1
  11433  11448     1
  11433  11437     1
  11433  11455     1
  11435  11443     1
  11435  11450     1
  11435  11441     1
  11436  11453     1
  11437  11442     1
  11437  11443     1
  11441  11455     1
  11442  11453     1
  11442  11455     1
  11443  11453     1
  11448  11450     1
  11450  11453     1
  11450  11455     1
  11456  11460     1
  11456  11466     1
  11456  11465     1
  11457  11472     1
  11457  11461     1
  11457  11479     1
  11459  11467     1
  11459  11474     1
  11459  11465     1
  11460  11477     1
  11461  11466     1
  11461  11467     1
  11465  11479     1
  11466  11477     1
  11466  11479     1
  11467  11477     1
  11472  11474     1
  11474  11477     1
  11474  11479     1
  11481  11489     1
  11483  11490     1
  11483  11491     1
  11485  11501     1
  11485  11493     1
  11489  11504     1
  11489  11497     1
  11490  11505     1
  11490  11553     1
  11490  11493     1
  11491  11498     1
  11491  11529     1
  11491  11501     1
  11493  11510     1
  11497  11511     1
  11497  11509     1
  11498  11510     1
  11501  11534     1
  11504  11535     1
  11504  11533     1
  11505  11534     1
  11506  11510     1
  11506  11516     1
  11506  11515     1
  11507  11511     1
  11507  11529     1
  11507  11522     1
  11509  11515     1
  11509  11524     1
  11509  11517     1
  11510  11527     1
  11511  11517     1
  11511  11516     1
  11515  11529     1
  11516  11529     1
  11516  11527     1
  11517  11527     1
  11522  11524     1
  11524  11529     1
  11524  11527     1
  11530  11534     1
  11530  11540     1
  11530  11539     1
  11531  11535     1
  11531  11553     1
  11531  11546     1
  11533  11539     1
  11533  11548     1
  11533  11541     1
  11534  11551     1
  11535  11541     1
  11535  11540     1
  11539  11553     1
  11540  11553     1
  11540  11551     1
  11541  11551     1
  11546  11548     1
  11548  11553     1
  11548  11551     1
  11555  11563     1
  11557  11564     1
  11557  11565     1
  11559  11575     1
  11559  11567     1
  11563  11578     1
  11563  11571     1
  11564  11567     1
  11564  11579     1
  11564  11627     1
  11565  11575     1
  11565  11572     1
  11565  11603     1
  11567  11584     1
  11571  11583     1
  11571  11585     1
  11572  11584     1
  11575  11608     1
  11578  11607     1
  11578  11609     1
  11579  11608     1
  11580  11584     1
  11580  11590     1
  11580  11589     1
  11581  11596     1
  11581  11585     1
  11581  11603     1
  11583  11591     1
  11583  11598     1
  11583  11589     1
  11584  11601     1
  11585  11590     1
  11585  11591     1
  11589  11603     1
  11590  11601     1
  11590  11603     1
  11591  11601     1
  11596  11598     1
  11598  11601     1
  11598  11603     1
  11604  11608     1
  11604  11614     1
  11604  11613     1
  11605  11620     1
  11605  11609     1
  11605  11627     1
  11607  11615     1
  11607  11622     1
  11607  11613     1
  11608  11625     1
  11609  11614     1
  11609  11615     1
  11613  11627     1
  11614  11625     1
  11614  11627     1
  11615  11625     1
  11620  11622     1
  11622  11625     1
  11622  11627     1
  11629  11637     1
  11631  11638     1
  11631  11639     1
  11633  11649     1
  11633  11641     1
  11637  11652     1
  11637  11645     1
  11638  11653     1
  11638  11701     1
  11638  11641     1
  11639  11646     1
  11639  11677     1
  11639  11649     1
  11641  11658     1
  11645  11659     1
  11645  11657     1
  11646  11658     1
  11649  11682     1
  11652  11683     1
  11652  11681     1
  11653  11682     1
  11654  11658     1
  11654  11664     1
  11654  11663     1
  11655  11659     1
  11655  11677     1
  11655  11670     1
  11657  11663     1
  11657  11672     1
  11657  11665     1
  11658  11675     1
  11659  11665     1
  11659  11664     1
  11663  11677     1
  11664  11677     1
  11664  11675     1
  11665  11675     1
  11670  11672     1
  11672  11677     1
  11672  11675     1
  11678  11682     1
  11678  11688     1
  11678  11687     1
  11679  11683     1
  11679  11701     1
  11679  11694     1
  11681  11687     1
  11681  11696     1
  11681  11689     1
  11682  11699     1
  11683  11689     1
  11683  11688     1
  11687  11701     1
  11688  11701     1
  11688  11699     1
  11689  11699     1
  11694  11696     1
  11696  11701     1
  11696  11699     1
  11703  11711     1
  11705  11712     1
  11705  11713     1
  11707  11723     1
  11707  11715     1
  11711  11726     1
  11711  11719     1
  11712  11715     1
  11712  11727     1
  11712  11775     1
  11713  11723     1
  11713  11720     1
  11713  11751     1
  11715  11732     1
  11719  11731     1
  11719  11733     1
  11720  11732     1
  11723  11756     1
  11726  11755     1
  11726  11757     1
  11727  11756     1
  11728  11732     1
  11728  11738     1
  11728  11737     1
  11729  11744     1
  11729  11733     1
  11729  11751     1
  11731  11739     1
  11731  11746     1
  11731  11737     1
  11732  11749     1
  11733  11738     1
  11733  11739     1
  11737  11751     1
  11738  11749     1
  11738  11751     1
  11739  11749     1
  11744  11746     1
  11746  11749     1
  11746  11751     1
  11752  11756     1
  11752  11762     1
  11752  11761     1
  11753  11768     1
  11753  11757     1
  11753  11775     1
  11755  11763     1
  11755  11770     1
  11755  11761     1
  11756  11773     1
  11757  11762     1
  11757  11763     1
  11761  11775     1
  11762  11773     1
  11762  11775     1
  11763  11773     1
  11768  11770     1
  11770  11773     1
  11770  11775     1
  11777  11785     1
  11779  11786     1
  11779  11787     1
  11781  11797     1
  11781  11789     1
  11785  11800     1
  11785  11793     1
  11786  11801     1
  11786  11849     1
  11786  11789     1
  11787  11794     1
  11787  11825     1
  11787  11797     1
  11789  11806     1
  11793  11807     1
  11793  11805     1
  11794  11806     1
  11797  11830     1
  11800  11831     1
  11800  11829     1
  11801  11830     1
  11802  11806     1
  11802  11812     1
  11802  11811     1
  11803  11807     1
  11803  11825     1
  11803  11818     1
  11805  11811     1
  11805  11820     1
  11805  11813     1
  11806  11823     1
  11807  11813     1
  11807  11812     1
  11811  11825     1
  11812  11825     1
  11812  11823     1
  11813  11823     1
  11818  11820     1
  11820  11825     1
  11820  11823     1
  11826  11830     1
  11826  11836     1
  11826  11835     1
  11827  11831     1
  11827  11849     1
  11827  11842     1
  11829  11835     1
  11829  11844     1
  11829  11837     1
  11830  11847     1
  11831  11837     1
  11831  11836     1
  11835  11849     1
  11836  11849     1
  11836  11847     1
  11837  11847     1
  11842  11844     1
  11844  11849     1
  11844  11847     1
  11851  11859     1
  11853  11860     1
  11853  11861     1
  11855  11871     1
  11855  11863     1
  11859  11874     1
  11859  11867     1
  11860  11863     1
  11860  11875     1
  11860  11923     1
  11861  11871     1
  11861  11868     1
  11861  11899     1
  11863  11880     1
  11867  11879     1
  11867  11881     1
  11868  11880     1
  11871  11904     1
  11874  11903     1
  11874  11905     1
  11875  11904     1
  11876  11880     1
  11876  11886     1
  11876  11885     1
  11877  11892     1
  11877  11881     1
  11877  11899     1
  11879  11887     1
  11879  11894     1
  11879  11885     1
  11880  11897     1
  11881  11886     1
  11881  11887     1
  11885  11899     1
  11886  11897     1
  11886  11899     1
  11887  11897     1
  11892  11894     1
  11894  11897     1
  11894  11899     1
  11900  11904     1
  11900  11910     1
  11900  11909     1
  11901  11916     1
  11901  11905     1
  11901  11923     1
  11903  11911     1
  11903  11918     1
  11903  11909     1
  11904  11921     1
  11905  11910     1
  11905  11911     1
  11909  11923     1
  11910  11921     1
  11910  11923     1
  11911  11921     1
  11916  11918     1
  11918  11921     1
  11918  11923     1
  11925  11933     1
  11927  11934     1
  11927  11935     1
  11929  11945     1
  11929  11937     1
  11933  11948     1
  11933  11941     1
  11934  11949     1
  11934  11997     1
  11934  11937     1
  11935  11942     1
  11935  11973     1
  11935  11945     1
  11937  11954     1
  11941  11955     1
  11941  11953     1
  11942  11954     1
  11945  11978     1
  11948  11979     1
  11948  11977     1
  11949  11978     1
  11950  11954     1
  11950  11960     1
  11950  11959     1
  11951  11955     1
  11951  11973     1
  11951  11966     1
  11953  11959     1
  11953  11968     1
  11953  11961     1
  11954  11971     1
  11955  11961     1
  11955  11960     1
  11959  11973     1
  11960  11973     1
  11960  11971     1
  11961  11971     1
  11966  11968     1
  11968  11973     1
  11968  11971     1
  11974  11978     1
  11974  11984     1
  11974  11983     1
  11975  11979     1
  11975  11997     1
  11975  11990     1
  11977  11983     1
  11977  11992     1
  11977  11985     1
  11978  11995     1
  11979  11985     1
  11979  11984     1
  11983  11997     1
  11984  11997     1
  11984  11995     1
  11985  11995     1
  11990  11992     1
  11992  11997     1
  11992  11995     1
  11999  12007     1
  12001  12008     1
  12001  12009     1
  12003  12019     1
  12003  12011     1
  12007  12022     1
  12007  12015     1
  12008  12011     1
  12008  12023     1
  12008  12071     1
  12009  12019     1
  12009  12016     1
  12009  12047     1
  12011  12028     1
  12015  12027     1
  12015  12029     1
  12016  12028     1
  12019  12052     1
  12022  12051     1
  12022  12053     1
  12023  12052     1
  12024  12028     1
  12024  12034     1
  12024  12033     1
  12025  12040     1
  12025  12029     1
  12025  12047     1
  12027  12035     1
  12027  12042     1
  12027  12033     1
  12028  12045     1
  12029  12034     1
  12029  12035     1
  12033  12047     1
  12034  12045     1
  12034  12047     1
  12035  12045     1
  12040  12042     1
  12042  12045     1
  12042  12047     1
  12048  12052     1
  12048  12058     1
  12048  12057     1
  12049  12064     1
  12049  12053     1
  12049  12071     1
  12051  12059     1
  12051  12066     1
  12051  12057     1
  12052  12069     1
  12053  12058     1
  12053  12059     1
  12057  12071     1
  12058  12069     1
  12058  12071     1
  12059  12069     1
  12064  12066     1
  12066  12069     1
  12066  12071     1
  12073  12081     1
  12075  12082     1
  12075  12083     1
  12077  12093     1
  12077  12085     1
  12081  12096     1
  12081  12089     1
  12082  12097     1
  12082  12145     1
  12082  12085     1
  12083  12090     1
  12083  12121     1
  12083  12093     1
  12085  12102     1
  12089  12103     1
  12089  12101     1
  12090  12102     1
  12093  12126     1
  12096  12127     1
  12096  12125     1
  12097  12126     1
  12098  12102     1
  12098  12108     1
  12098  12107     1
  12099  12103     1
  12099  12121     1
  12099  12114     1
  12101  12107     1
  12101  12116     1
  12101  12109     1
  12102  12119     1
  12103  12109     1
  12103  12108     1
  12107  12121     1
  12108  12121     1
  12108  12119     1
  12109  12119     1
  12114  12116     1
  12116  12121     1
  12116  12119     1
  12122  12126     1
  12122  12132     1
  12122  12131     1
  12123  12127     1
  12123  12145     1
  12123  12138     1
  12125  12131     1
  12125  12140     1
  12125  12133     1
  12126  12143     1
  12127  12133     1
  12127  12132     1
  12131  12145     1
  12132  12145     1
  12132  12143     1
  12133  12143     1
  12138  12140     1
  12140  12145     1
  12140  12143     1
  12147  12155     1
  12149  12156     1
  12149  12157     1
  12151  12167     1
  12151  12159     1
  12155  12170     1
  12155  12163     1
  12156  12159     1
  12156  12171     1
  12156  12219     1
  12157  12167     1
  12157  12164     1
  12157  12195     1
  12159  12176     1
  12163  12175     1
  12163  12177     1
  12164  12176     1
  12167  12200     1
  12170  12199     1
  12170  12201     1
  12171  12200     1
  12172  12176     1
  12172  12182     1
  12172  12181     1
  12173  12188     1
  12173  12177     1
  12173  12195     1
  12175  12183     1
  12175  12190     1
  12175  12181     1
  12176  12193     1
  12177  12182     1
  12177  12183     1
  12181  12195     1
  12182  12193     1
  12182  12195     1
  12183  12193     1
  12188  12190     1
  12190  12193     1
  12190  12195     1
  12196  12200     1
  12196  12206     1
  12196  12205     1
  12197  12212     1
  12197  12201     1
  12197  12219     1
  12199  12207     1
  12199  12214     1
  12199  12205     1
  12200  12217     1
  12201  12206     1
  12201  12207     1
  12205  12219     1
  12206  12217     1
  12206  12219     1
  12207  12217     1
  12212  12214     1
  12214  12217     1
  12214  12219     1
  12221  12229     1
  12223  12230     1
  12223  12231     1
  12225  12241     1
  12225  12233     1
  12229  12244     1
  12229  12237     1
  12230  12245     1
  12230  12293     1
  12230  12233     1
  12231  12238     1
  12231  12269     1
  12231  12241     1
  12233  12250     1
  12237  12251     1
  12237  12249     1
  12238  12250     1
  12241  12274     1
  12244  12275     1
  12244  12273     1
  12245  12274     1
  12246  12250     1
  12246  12256     1
  12246  12255     1
  12247  12251     1
  12247  12269     1
  12247  12262     1
  12249  12255     1
  12249  12264     1
  12249  12257     1
  12250  12267     1
  12251  12257     1
  12251  12256     1
  12255  12269     1
  12256  12269     1
  12256  12267     1
  12257  12267     1
  12262  12264     1
  12264  12269     1
  12264  12267     1
  12270  12274     1
  12270  12280     1
  12270  12279     1
  12271  12275     1
  12271  12293     1
  12271  12286     1
  12273  12279     1
  12273  12288     1
  12273  12281     1
  12274  12291     1
  12275  12281     1
  12275  12280     1
  12279  12293     1
  12280  12293     1
  12280  12291     1
  12281  12291     1
  12286  12288     1
  12288  12293     1
  12288  12291     1
  12295  12303     1
  12297  12304     1
  12297  12305     1
  12299  12315     1
  12299  12307     1
  12303  12318     1
  12303  12311     1
  12304  12307     1
  12304  12319     1
  12304  12367     1
  12305  12315     1
  12305  12312     1
  12305  12343     1
  12307  12324     1
  12311  12323     1
  12311  12325     1
  12312  12324     1
  12315  12348     1
  12318  12347     1
  12318  12349     1
  12319  12348     1
  12320  12324     1
  12320  12330     1
  12320  12329     1
  12321  12336     1
  12321  12325     1
  12321  12343     1
  12323  12331     1
  12323  12338     1
  12323  12329     1
  12324  12341     1
  12325  12330     1
  12325  12331     1
  12329  12343     1
  12330  12341     1
  12330  12343     1
  12331  12341     1
  12336  12338     1
  12338  12341     1
  12338  12343     1
  12344  12348     1
  12344  12354     1
  12344  12353     1
  12345  12360     1
  12345  12349     1
  12345  12367     1
  12347  12355     1
  12347  12362     1
  12347  12353     1
  12348  12365     1
  12349  12354     1
  12349  12355     1
  12353  12367     1
  12354  12365     1
  12354  12367     1
  12355  12365     1
  12360  12362     1
  12362  12365     1
  12362  12367     1
  12369  12377     1
  12371  12378     1
  12371  12379     1
  12373  12389     1
  12373  12381     1
  12377  12392     1
  12377  12385     1
  12378  12393     1
  12378  12441     1
  12378  12381     1
  12379  12386     1
  12379  12417     1
  12379  12389     1
  12381  12398     1
  12385  12399     1
  12385  12397     1
  12386  12398     1
  12389  12422     1
  12392  12423     1
  12392  12421     1
  12393  12422     1
  12394  12398     1
  12394  12404     1
  12394  12403     1
  12395  12399     1
  12395  12417     1
  12395  12410     1
  12397  12403     1
  12397  12412     1
  12397  12405     1
  12398  12415     1
  12399  12405     1
  12399  12404     1
  12403  12417     1
  12404  12417     1
  12404  12415     1
  12405  12415     1
  12410  12412     1
  12412  12417     1
  12412  12415     1
  12418  12422     1
  12418  12428     1
  12418  12427     1
  12419  12423     1
  12419  12441     1
  12419  12434     1
  12421  12427     1
  12421  12436     1
  12421  12429     1
  12422  12439     1
  12423  12429     1
  12423  12428     1
  12427  12441     1
  12428  12441     1
  12428  12439     1
  12429  12439     1
  12434  12436     1
  12436  12441     1
  12436  12439     1
  12443  12451     1
  12445  12452     1
  12445  12453     1
  12447  12463     1
  12447  12455     1
  12451  12466     1
  12451  12459     1
  12452  12455     1
  12452  12467     1
  12452  12515     1
  12453  12463     1
  12453  12460     1
  12453  12491     1
  12455  12472     1
  12459  12471     1
  12459  12473     1
  12460  12472     1
  12463  12496     1
  12466  12495     1
  12466  12497     1
  12467  12496     1
  12468  12472     1
  12468  12478     1
  12468  12477     1
  12469  12484     1
  12469  12473     1
  12469  12491     1
  12471  12479     1
  12471  12486     1
  12471  12477     1
  12472  12489     1
  12473  12478     1
  12473  12479     1
  12477  12491     1
  12478  12489     1
  12478  12491     1
  12479  12489     1
  12484  12486     1
  12486  12489     1
  12486  12491     1
  12492  12496     1
  12492  12502     1
  12492  12501     1
  12493  12508     1
  12493  12497     1
  12493  12515     1
  12495  12503     1
  12495  12510     1
  12495  12501     1
  12496  12513     1
  12497  12502     1
  12497  12503     1
  12501  12515     1
  12502  12513     1
  12502  12515     1
  12503  12513     1
  12508  12510     1
  12510  12513     1
  12510  12515     1
  12517  12525     1
  12519  12526     1
  12519  12527     1
  12521  12537     1
  12521  12529     1
  12525  12540     1
  12525  12533     1
  12526  12541     1
  12526  12589     1
  12526  12529     1
  12527  12534     1
  12527  12565     1
  12527  12537     1
  12529  12546     1
  12533  12547     1
  12533  12545     1
  12534  12546     1
  12537  12570     1
  12540  12571     1
  12540  12569     1
  12541  12570     1
  12542  12546     1
  12542  12552     1
  12542  12551     1
  12543  12547     1
  12543  12565     1
  12543  12558     1
  12545  12551     1
  12545  12560     1
  12545  12553     1
  12546  12563     1
  12547  12553     1
  12547  12552     1
  12551  12565     1
  12552  12565     1
  12552  12563     1
  12553  12563     1
  12558  12560     1
  12560  12565     1
  12560  12563     1
  12566  12570     1
  12566  12576     1
  12566  12575     1
  12567  12571     1
  12567  12589     1
  12567  12582     1
  12569  12575     1
  12569  12584     1
  12569  12577     1
  12570  12587     1
  12571  12577     1
  12571  12576     1
  12575  12589     1
  12576  12589     1
  12576  12587     1
  12577  12587     1
  12582  12584     1
  12584  12589     1
  12584  12587     1
  12591  12599     1
  12593  12600     1
  12593  12601     1
  12595  12611     1
  12595  12603     1
  12599  12614     1
  12599  12607     1
  12600  12603     1
  12600  12615     1
  12600  12663     1
  12601  12611     1
  12601  12608     1
  12601  12639     1
  12603  12620     1
  12607  12619     1
  12607  12621     1
  12608  12620     1
  12611  12644     1
  12614  12643     1
  12614  12645     1
  12615  12644     1
  12616  12620     1
  12616  12626     1
  12616  12625     1
  12617  12632     1
  12617  12621     1
  12617  12639     1
  12619  12627     1
  12619  12634     1
  12619  12625     1
  12620  12637     1
  12621  12626     1
  12621  12627     1
  12625  12639     1
  12626  12637     1
  12626  12639     1
  12627  12637     1
  12632  12634     1
  12634  12637     1
  12634  12639     1
  12640  12644     1
  12640  12650     1
  12640  12649     1
  12641  12656     1
  12641  12645     1
  12641  12663     1
  12643  12651     1
  12643  12658     1
  12643  12649     1
  12644  12661     1
  12645  12650     1
  12645  12651     1
  12649  12663     1
  12650  12661     1
  12650  12663     1
  12651  12661     1
  12656  12658     1
  12658  12661     1
  12658  12663     1
  12665  12673     1
  12667  12674     1
  12667  12675     1
  12669  12685     1
  12669  12677     1
  12673  12688     1
  12673  12681     1
  12674  12689     1
  12674  12737     1
  12674  12677     1
  12675  12682     1
  12675  12713     1
  12675  12685     1
  12677  12694     1
  12681  12695     1
  12681  12693     1
  12682  12694     1
  12685  12718     1
  12688  12719     1
  12688  12717     1
  12689  12718     1
  12690  12694     1
  12690  12700     1
  12690  12699     1
  12691  12695     1
  12691  12713     1
  12691  12706     1
  12693  12699     1
  12693  12708     1
  12693  12701     1
  12694  12711     1
  12695  12701     1
  12695  12700     1
  12699  12713     1
  12700  12713     1
  12700  12711     1
  12701  12711     1
  12706  12708     1
  12708  12713     1
  12708  12711     1
  12714  12718     1
  12714  12724     1
  12714  12723     1
  12715  12719     1
  12715  12737     1
  12715  12730     1
  12717  12723     1
  12717  12732     1
  12717  12725     1
  12718  12735     1
  12719  12725     1
  12719  12724     1
  12723  12737     1
  12724  12737     1
  12724  12735     1
  12725  12735     1
  12730  12732     1
  12732  12737     1
  12732  12735     1
      1     23     1
      1     24     1
      1     37     1
      1     38     1
      1     39     1
      1     40     1
      2     29     1
      2     30     1
      2     31     1
      2     32     1
      2     42     1
     41      3     1
      3     25     1
      3     26     1
      3     27     1
      3     28     1
      4     21     1
      4     22     1
      4     35     1
      4     36     1
      4     33     1
      4     34     1
      5     23     1
      5     24     1
      5     27     1
      5     28     1
      6     23     1
      6     24     1
      6     25     1
      6     26     1
      7     21     1
      7     22     1
      7     31     1
      7     32     1
      8     21     1
      8     22     1
      8     29     1
      8     30     1
      9     42     1
      9     67     1
     10     27     1
     10     28     1
     10     65     1
     10     66     1
     11     42     1
     11     93     1
     12     25     1
     12     26     1
     12     91     1
     12     92     1
     41     13     1
     13    119     1
     14     29     1
     14     30     1
     14    117     1
     14    118     1
     41     15     1
     15    145     1
     16     31     1
     16     32     1
     16    143     1
     16    144     1
     17     35     1
     17     36     1
     17     93     1
     18     33     1
     18     34     1
     18     67     1
     19     39     1
     19     40     1
     19    145     1
     20     37     1
     20     38     1
     20    119     1
     41     21     1
     21     23     1
     21     24     1
     41     22     1
     22     23     1
     22     24     1
     23     42     1
     24     42     1
     25     42     1
     25     35     1
     25     36     1
     26     42     1
     26     35     1
     26     36     1
     27     42     1
     27     33     1
     27     34     1
     28     42     1
     28     33     1
     28     34     1
     41     29     1
     29     37     1
     29     38     1
     41     30     1
     30     37     1
     30     38     1
     41     31     1
     31     39     1
     31     40     1
     41     32     1
     32     39     1
     32     40     1
     33     52     1
     34     52     1
     35     78     1
     36     78     1
     37    104     1
     38    104     1
     39    130     1
     40    130     1
     43     59     1
     43     60     1
     43     61     1
     43     62     1
     43     65     1
     43     66     1
     44     57     1
     44     58     1
     44     63     1
     44     64     1
     45     55     1
     45     56     1
     45     63     1
     45     64     1
     46     68     1
     46    171     1
     47     55     1
     47     56     1
     47    169     1
     47    170     1
     48     68     1
     48    197     1
     49     57     1
     49     58     1
     49    195     1
     49    196     1
     50     55     1
     50     56     1
     50     57     1
     50     58     1
     50     67     1
     51     68     1
     52     63     1
     52     64     1
     53     59     1
     53     60     1
     53    171     1
     54     61     1
     54     62     1
     54    197     1
     55     68     1
     55     59     1
     55     60     1
     56     68     1
     56     59     1
     56     60     1
     57     68     1
     57     61     1
     57     62     1
     58     68     1
     58     61     1
     58     62     1
     59    156     1
     60    156     1
     61    182     1
     62    182     1
     63     68     1
     63     65     1
     63     66     1
     64     68     1
     64     65     1
     64     66     1
     65     67     1
     66     67     1
     69     85     1
     69     86     1
     69     87     1
     69     88     1
     69     91     1
     69     92     1
     70     83     1
     70     84     1
     70     89     1
     70     90     1
     71     81     1
     71     82     1
     71     89     1
     71     90     1
     72     94     1
     72    223     1
     73     81     1
     73     82     1
     73    221     1
     73    222     1
     74     94     1
     74    249     1
     75     83     1
     75     84     1
     75    247     1
     75    248     1
     76     81     1
     76     82     1
     76     83     1
     76     84     1
     76     93     1
     77     94     1
     78     89     1
     78     90     1
     79     85     1
     79     86     1
     79    223     1
     80     87     1
     80     88     1
     80    249     1
     81     94     1
     81     85     1
     81     86     1
     82     94     1
     82     85     1
     82     86     1
     83     94     1
     83     87     1
     83     88     1
     84     94     1
     84     87     1
     84     88     1
     85    208     1
     86    208     1
     87    234     1
     88    234     1
     89     94     1
     89     91     1
     89     92     1
     90     94     1
     90     91     1
     90     92     1
     91     93     1
     92     93     1
     95    111     1
     95    112     1
     95    113     1
     95    114     1
     95    117     1
     95    118     1
     96    109     1
     96    110     1
     96    115     1
     96    116     1
     97    107     1
     97    108     1
     97    115     1
     97    116     1
     98    120     1
     98    275     1
     99    107     1
     99    108     1
     99    273     1
     99    274     1
    100    120     1
    100    301     1
    101    109     1
    101    110     1
    101    299     1
    101    300     1
    102    107     1
    102    108     1
    102    109     1
    102    110     1
    102    119     1
    103    120     1
    104    115     1
    104    116     1
    105    111     1
    105    112     1
    105    275     1
    106    113     1
    106    114     1
    106    301     1
    107    120     1
    107    111     1
    107    112     1
    108    120     1
    108    111     1
    108    112     1
    109    120     1
    109    113     1
    109    114     1
    110    120     1
    110    113     1
    110    114     1
    111    260     1
    112    260     1
    113    286     1
    114    286     1
    115    120     1
    115    117     1
    115    118     1
    116    120     1
    116    117     1
    116    118     1
    117    119     1
    118    119     1
    121    137     1
    121    138     1
    121    139     1
    121    140     1
    121    143     1
    121    144     1
    122    135     1
    122    136     1
    122    141     1
    122    142     1
    123    133     1
    123    134     1
    123    141     1
    123    142     1
    124    146     1
    124    327     1
    125    133     1
    125    134     1
    125    325     1
    125    326     1
    126    146     1
    126    353     1
    127    135     1
    127    136     1
    127    351     1
    127    352     1
    128    133     1
    128    134     1
    128    135     1
    128    136     1
    128    145     1
    129    146     1
    130    141     1
    130    142     1
    131    137     1
    131    138     1
    131    327     1
    132    139     1
    132    140     1
    132    353     1
    133    146     1
    133    137     1
    133    138     1
    134    146     1
    134    137     1
    134    138     1
    135    146     1
    135    139     1
    135    140     1
    136    146     1
    136    139     1
    136    140     1
    137    312     1
    138    312     1
    139    338     1
    140    338     1
    141    146     1
    141    143     1
    141    144     1
    142    146     1
    142    143     1
    142    144     1
    143    145     1
    144    145     1
    147    163     1
    147    164     1
    147    165     1
    147    166     1
    147    169     1
    147    170     1
    148    161     1
    148    162     1
    148    167     1
    148    168     1
    149    159     1
    149    160     1
    149    167     1
    149    168     1
    150    172     1
    150    379     1
    151    159     1
    151    160     1
    151    377     1
    151    378     1
    152    172     1
    152    405     1
    153    161     1
    153    162     1
    153    403     1
    153    404     1
    154    159     1
    154    160     1
    154    161     1
    154    162     1
    154    171     1
    155    172     1
    156    167     1
    156    168     1
    157    163     1
    157    164     1
    157    379     1
    158    165     1
    158    166     1
    158    405     1
    159    172     1
    159    163     1
    159    164     1
    160    172     1
    160    163     1
    160    164     1
    161    172     1
    161    165     1
    161    166     1
    162    172     1
    162    165     1
    162    166     1
    163    364     1
    164    364     1
    165    390     1
    166    390     1
    167    172     1
    167    169     1
    167    170     1
    168    172     1
    168    169     1
    168    170     1
    169    171     1
    170    171     1
    173    189     1
    173    190     1
    173    191     1
    173    192     1
    173    195     1
    173    196     1
    174    187     1
    174    188     1
    174    193     1
    174    194     1
    175    185     1
    175    186     1
    175    193     1
    175    194     1
    176    198     1
    176    431     1
    177    185     1
    177    186     1
    177    429     1
    177    430     1
    178    198     1
    178    457     1
    179    187     1
    179    188     1
    179    455     1
    179    456     1
    180    185     1
    180    186     1
    180    187     1
    180    188     1
    180    197     1
    181    198     1
    182    193     1
    182    194     1
    183    189     1
    183    190     1
    183    431     1
    184    191     1
    184    192     1
    184    457     1
    185    198     1
    185    189     1
    185    190     1
    186    198     1
    186    189     1
    186    190     1
    187    198     1
    187    191     1
    187    192     1
    188    198     1
    188    191     1
    188    192     1
    189    416     1
    190    416     1
    191    442     1
    192    442     1
    193    198     1
    193    195     1
    193    196     1
    194    198     1
    194    195     1
    194    196     1
    195    197     1
    196    197     1
    199    215     1
    199    216     1
    199    217     1
    199    218     1
    199    221     1
    199    222     1
    200    213     1
    200    214     1
    200    219     1
    200    220     1
    201    211     1
    201    212     1
    201    219     1
    201    220     1
    202    224     1
    202    483     1
    203    211     1
    203    212     1
    203    481     1
    203    482     1
    204    224     1
    204    509     1
    205    213     1
    205    214     1
    205    507     1
    205    508     1
    206    211     1
    206    212     1
    206    213     1
    206    214     1
    206    223     1
    207    224     1
    208    219     1
    208    220     1
    209    215     1
    209    216     1
    209    483     1
    210    217     1
    210    218     1
    210    509     1
    211    224     1
    211    215     1
    211    216     1
    212    224     1
    212    215     1
    212    216     1
    213    224     1
    213    217     1
    213    218     1
    214    224     1
    214    217     1
    214    218     1
    215    468     1
    216    468     1
    217    494     1
    218    494     1
    219    224     1
    219    221     1
    219    222     1
    220    224     1
    220    221     1
    220    222     1
    221    223     1
    222    223     1
    225    241     1
    225    242     1
    225    243     1
    225    244     1
    225    247     1
    225    248     1
    226    239     1
    226    240     1
    226    245     1
    226    246     1
    227    237     1
    227    238     1
    227    245     1
    227    246     1
    228    250     1
    228    535     1
    229    237     1
    229    238     1
    229    533     1
    229    534     1
    230    250     1
    230    561     1
    231    239     1
    231    240     1
    231    559     1
    231    560     1
    232    237     1
    232    238     1
    232    239     1
    232    240     1
    232    249     1
    233    250     1
    234    245     1
    234    246     1
    235    241     1
    235    242     1
    235    535     1
    236    243     1
    236    244     1
    236    561     1
    237    250     1
    237    241     1
    237    242     1
    238    250     1
    238    241     1
    238    242     1
    239    250     1
    239    243     1
    239    244     1
    240    250     1
    240    243     1
    240    244     1
    241    520     1
    242    520     1
    243    546     1
    244    546     1
    245    250     1
    245    247     1
    245    248     1
    246    250     1
    246    247     1
    246    248     1
    247    249     1
    248    249     1
    251    267     1
    251    268     1
    251    269     1
    251    270     1
    251    273     1
    251    274     1
    252    265     1
    252    266     1
    252    271     1
    252    272     1
    253    263     1
    253    264     1
    253    271     1
    253    272     1
    254    276     1
    254    587     1
    255    263     1
    255    264     1
    255    585     1
    255    586     1
    256    276     1
    256    613     1
    257    265     1
    257    266     1
    257    611     1
    257    612     1
    258    263     1
    258    264     1
    258    265     1
    258    266     1
    258    275     1
    259    276     1
    260    271     1
    260    272     1
    261    267     1
    261    268     1
    261    587     1
    262    269     1
    262    270     1
    262    613     1
    263    276     1
    263    267     1
    263    268     1
    264    276     1
    264    267     1
    264    268     1
    265    276     1
    265    269     1
    265    270     1
    266    276     1
    266    269     1
    266    270     1
    267    572     1
    268    572     1
    269    598     1
    270    598     1
    271    276     1
    271    273     1
    271    274     1
    272    276     1
    272    273     1
    272    274     1
    273    275     1
    274    275     1
    277    293     1
    277    294     1
    277    295     1
    277    296     1
    277    299     1
    277    300     1
    278    291     1
    278    292     1
    278    297     1
    278    298     1
    279    289     1
    279    290     1
    279    297     1
    279    298     1
    280    302     1
    280    639     1
    281    289     1
    281    290     1
    281    637     1
    281    638     1
    282    302     1
    282    665     1
    283    291     1
    283    292     1
    283    663     1
    283    664     1
    284    289     1
    284    290     1
    284    291     1
    284    292     1
    284    301     1
    285    302     1
    286    297     1
    286    298     1
    287    293     1
    287    294     1
    287    639     1
    288    295     1
    288    296     1
    288    665     1
    289    302     1
    289    293     1
    289    294     1
    290    302     1
    290    293     1
    290    294     1
    291    302     1
    291    295     1
    291    296     1
    292    302     1
    292    295     1
    292    296     1
    293    624     1
    294    624     1
    295    650     1
    296    650     1
    297    302     1
    297    299     1
    297    300     1
    298    302     1
    298    299     1
    298    300     1
    299    301     1
    300    301     1
    303    319     1
    303    320     1
    303    321     1
    303    322     1
    303    325     1
    303    326     1
    304    317     1
    304    318     1
    304    323     1
    304    324     1
    305    315     1
    305    316     1
    305    323     1
    305    324     1
    306    328     1
    306    691     1
    307    315     1
    307    316     1
    307    689     1
    307    690     1
    308    328     1
    308    717     1
    309    317     1
    309    318     1
    309    715     1
    309    716     1
    310    315     1
    310    316     1
    310    317     1
    310    318     1
    310    327     1
    311    328     1
    312    323     1
    312    324     1
    313    319     1
    313    320     1
    313    691     1
    314    321     1
    314    322     1
    314    717     1
    315    328     1
    315    319     1
    315    320     1
    316    328     1
    316    319     1
    316    320     1
    317    328     1
    317    321     1
    317    322     1
    318    328     1
    318    321     1
    318    322     1
    319    676     1
    320    676     1
    321    702     1
    322    702     1
    323    328     1
    323    325     1
    323    326     1
    324    328     1
    324    325     1
    324    326     1
    325    327     1
    326    327     1
    329    345     1
    329    346     1
    329    347     1
    329    348     1
    329    351     1
    329    352     1
    330    343     1
    330    344     1
    330    349     1
    330    350     1
    331    341     1
    331    342     1
    331    349     1
    331    350     1
    332    354     1
    332    743     1
    333    341     1
    333    342     1
    333    741     1
    333    742     1
    334    354     1
    334    769     1
    335    343     1
    335    344     1
    335    767     1
    335    768     1
    336    341     1
    336    342     1
    336    343     1
    336    344     1
    336    353     1
    337    354     1
    338    349     1
    338    350     1
    339    345     1
    339    346     1
    339    743     1
    340    347     1
    340    348     1
    340    769     1
    341    354     1
    341    345     1
    341    346     1
    342    354     1
    342    345     1
    342    346     1
    343    354     1
    343    347     1
    343    348     1
    344    354     1
    344    347     1
    344    348     1
    345    728     1
    346    728     1
    347    754     1
    348    754     1
    349    354     1
    349    351     1
    349    352     1
    350    354     1
    350    351     1
    350    352     1
    351    353     1
    352    353     1
    355    371     1
    355    372     1
    355    373     1
    355    374     1
    355    377     1
    355    378     1
    356    369     1
    356    370     1
    356    375     1
    356    376     1
    357    367     1
    357    368     1
    357    375     1
    357    376     1
    358    380     1
    358    795     1
    359    367     1
    359    368     1
    359    793     1
    359    794     1
    360    380     1
    360    821     1
    361    369     1
    361    370     1
    361    819     1
    361    820     1
    362    367     1
    362    368     1
    362    369     1
    362    370     1
    362    379     1
    363    380     1
    364    375     1
    364    376     1
    365    371     1
    365    372     1
    365    795     1
    366    373     1
    366    374     1
    366    821     1
    367    380     1
    367    371     1
    367    372     1
    368    380     1
    368    371     1
    368    372     1
    369    380     1
    369    373     1
    369    374     1
    370    380     1
    370    373     1
    370    374     1
    371    780     1
    372    780     1
    373    806     1
    374    806     1
    375    380     1
    375    377     1
    375    378     1
    376    380     1
    376    377     1
    376    378     1
    377    379     1
    378    379     1
    381    397     1
    381    398     1
    381    399     1
    381    400     1
    381    403     1
    381    404     1
    382    395     1
    382    396     1
    382    401     1
    382    402     1
    383    393     1
    383    394     1
    383    401     1
    383    402     1
    384    406     1
    384    847     1
    385    393     1
    385    394     1
    385    845     1
    385    846     1
    386    406     1
    386    873     1
    387    395     1
    387    396     1
    387    871     1
    387    872     1
    388    393     1
    388    394     1
    388    395     1
    388    396     1
    388    405     1
    389    406     1
    390    401     1
    390    402     1
    391    397     1
    391    398     1
    391    847     1
    392    399     1
    392    400     1
    392    873     1
    393    406     1
    393    397     1
    393    398     1
    394    406     1
    394    397     1
    394    398     1
    395    406     1
    395    399     1
    395    400     1
    396    406     1
    396    399     1
    396    400     1
    397    832     1
    398    832     1
    399    858     1
    400    858     1
    401    406     1
    401    403     1
    401    404     1
    402    406     1
    402    403     1
    402    404     1
    403    405     1
    404    405     1
    407    423     1
    407    424     1
    407    425     1
    407    426     1
    407    429     1
    407    430     1
    408    421     1
    408    422     1
    408    427     1
    408    428     1
    409    419     1
    409    420     1
    409    427     1
    409    428     1
    410    432     1
    410    899     1
    411    419     1
    411    420     1
    411    897     1
    411    898     1
    412    432     1
    412    925     1
    413    421     1
    413    422     1
    413    923     1
    413    924     1
    414    419     1
    414    420     1
    414    421     1
    414    422     1
    414    431     1
    415    432     1
    416    427     1
    416    428     1
    417    423     1
    417    424     1
    417    899     1
    418    425     1
    418    426     1
    418    925     1
    419    432     1
    419    423     1
    419    424     1
    420    432     1
    420    423     1
    420    424     1
    421    432     1
    421    425     1
    421    426     1
    422    432     1
    422    425     1
    422    426     1
    423    884     1
    424    884     1
    425    910     1
    426    910     1
    427    432     1
    427    429     1
    427    430     1
    428    432     1
    428    429     1
    428    430     1
    429    431     1
    430    431     1
    433    449     1
    433    450     1
    433    451     1
    433    452     1
    433    455     1
    433    456     1
    434    447     1
    434    448     1
    434    453     1
    434    454     1
    435    445     1
    435    446     1
    435    453     1
    435    454     1
    436    458     1
    436    951     1
    437    445     1
    437    446     1
    437    949     1
    437    950     1
    438    458     1
    438    977     1
    439    447     1
    439    448     1
    439    975     1
    439    976     1
    440    445     1
    440    446     1
    440    447     1
    440    448     1
    440    457     1
    441    458     1
    442    453     1
    442    454     1
    443    449     1
    443    450     1
    443    951     1
    444    451     1
    444    452     1
    444    977     1
    445    458     1
    445    449     1
    445    450     1
    446    458     1
    446    449     1
    446    450     1
    447    458     1
    447    451     1
    447    452     1
    448    458     1
    448    451     1
    448    452     1
    449    936     1
    450    936     1
    451    962     1
    452    962     1
    453    458     1
    453    455     1
    453    456     1
    454    458     1
    454    455     1
    454    456     1
    455    457     1
    456    457     1
    459    475     1
    459    476     1
    459    477     1
    459    478     1
    459    481     1
    459    482     1
    460    473     1
    460    474     1
    460    479     1
    460    480     1
    461    471     1
    461    472     1
    461    479     1
    461    480     1
    462    484     1
    462   1003     1
    463    471     1
    463    472     1
    463   1001     1
    463   1002     1
    464    484     1
    464   1029     1
    465    473     1
    465    474     1
    465   1027     1
    465   1028     1
    466    471     1
    466    472     1
    466    473     1
    466    474     1
    466    483     1
    467    484     1
    468    479     1
    468    480     1
    469    475     1
    469    476     1
    469   1003     1
    470    477     1
    470    478     1
    470   1029     1
    471    484     1
    471    475     1
    471    476     1
    472    484     1
    472    475     1
    472    476     1
    473    484     1
    473    477     1
    473    478     1
    474    484     1
    474    477     1
    474    478     1
    475    988     1
    476    988     1
    477   1014     1
    478   1014     1
    479    484     1
    479    481     1
    479    482     1
    480    484     1
    480    481     1
    480    482     1
    481    483     1
    482    483     1
    485    501     1
    485    502     1
    485    503     1
    485    504     1
    485    507     1
    485    508     1
    486    499     1
    486    500     1
    486    505     1
    486    506     1
    487    497     1
    487    498     1
    487    505     1
    487    506     1
    488    510     1
    488   1055     1
    489    497     1
    489    498     1
    489   1053     1
    489   1054     1
    490    510     1
    490   1081     1
    491    499     1
    491    500     1
    491   1079     1
    491   1080     1
    492    497     1
    492    498     1
    492    499     1
    492    500     1
    492    509     1
    493    510     1
    494    505     1
    494    506     1
    495    501     1
    495    502     1
    495   1055     1
    496    503     1
    496    504     1
    496   1081     1
    497    510     1
    497    501     1
    497    502     1
    498    510     1
    498    501     1
    498    502     1
    499    510     1
    499    503     1
    499    504     1
    500    510     1
    500    503     1
    500    504     1
    501   1040     1
    502   1040     1
    503   1066     1
    504   1066     1
    505    510     1
    505    507     1
    505    508     1
    506    510     1
    506    507     1
    506    508     1
    507    509     1
    508    509     1
    511    527     1
    511    528     1
    511    529     1
    511    530     1
    511    533     1
    511    534     1
    512    525     1
    512    526     1
    512    531     1
    512    532     1
    513    523     1
    513    524     1
    513    531     1
    513    532     1
    514    536     1
    514   1107     1
    515    523     1
    515    524     1
    515   1105     1
    515   1106     1
    516    536     1
    516   1133     1
    517    525     1
    517    526     1
    517   1131     1
    517   1132     1
    518    523     1
    518    524     1
    518    525     1
    518    526     1
    518    535     1
    519    536     1
    520    531     1
    520    532     1
    521    527     1
    521    528     1
    521   1107     1
    522    529     1
    522    530     1
    522   1133     1
    523    536     1
    523    527     1
    523    528     1
    524    536     1
    524    527     1
    524    528     1
    525    536     1
    525    529     1
    525    530     1
    526    536     1
    526    529     1
    526    530     1
    527   1092     1
    528   1092     1
    529   1118     1
    530   1118     1
    531    536     1
    531    533     1
    531    534     1
    532    536     1
    532    533     1
    532    534     1
    533    535     1
    534    535     1
    537    553     1
    537    554     1
    537    555     1
    537    556     1
    537    559     1
    537    560     1
    538    551     1
    538    552     1
    538    557     1
    538    558     1
    539    549     1
    539    550     1
    539    557     1
    539    558     1
    540    562     1
    540   1159     1
    541    549     1
    541    550     1
    541   1157     1
    541   1158     1
    542    562     1
    542   1185     1
    543    551     1
    543    552     1
    543   1183     1
    543   1184     1
    544    549     1
    544    550     1
    544    551     1
    544    552     1
    544    561     1
    545    562     1
    546    557     1
    546    558     1
    547    553     1
    547    554     1
    547   1159     1
    548    555     1
    548    556     1
    548   1185     1
    549    562     1
    549    553     1
    549    554     1
    550    562     1
    550    553     1
    550    554     1
    551    562     1
    551    555     1
    551    556     1
    552    562     1
    552    555     1
    552    556     1
    553   1144     1
    554   1144     1
    555   1170     1
    556   1170     1
    557    562     1
    557    559     1
    557    560     1
    558    562     1
    558    559     1
    558    560     1
    559    561     1
    560    561     1
    563    579     1
    563    580     1
    563    581     1
    563    582     1
    563    585     1
    563    586     1
    564    577     1
    564    578     1
    564    583     1
    564    584     1
    565    575     1
    565    576     1
    565    583     1
    565    584     1
    566    588     1
    566   1211     1
    567    575     1
    567    576     1
    567   1209     1
    567   1210     1
    568    588     1
    568   1237     1
    569    577     1
    569    578     1
    569   1235     1
    569   1236     1
    570    575     1
    570    576     1
    570    577     1
    570    578     1
    570    587     1
    571    588     1
    572    583     1
    572    584     1
    573    579     1
    573    580     1
    573   1211     1
    574    581     1
    574    582     1
    574   1237     1
    575    588     1
    575    579     1
    575    580     1
    576    588     1
    576    579     1
    576    580     1
    577    588     1
    577    581     1
    577    582     1
    578    588     1
    578    581     1
    578    582     1
    579   1196     1
    580   1196     1
    581   1222     1
    582   1222     1
    583    588     1
    583    585     1
    583    586     1
    584    588     1
    584    585     1
    584    586     1
    585    587     1
    586    587     1
    589    605     1
    589    606     1
    589    607     1
    589    608     1
    589    611     1
    589    612     1
    590    603     1
    590    604     1
    590    609     1
    590    610     1
    591    601     1
    591    602     1
    591    609     1
    591    610     1
    592    614     1
    592   1263     1
    593    601     1
    593    602     1
    593   1261     1
    593   1262     1
    594    614     1
    594   1289     1
    595    603     1
    595    604     1
    595   1287     1
    595   1288     1
    596    601     1
    596    602     1
    596    603     1
    596    604     1
    596    613     1
    597    614     1
    598    609     1
    598    610     1
    599    605     1
    599    606     1
    599   1263     1
    600    607     1
    600    608     1
    600   1289     1
    601    614     1
    601    605     1
    601    606     1
    602    614     1
    602    605     1
    602    606     1
    603    614     1
    603    607     1
    603    608     1
    604    614     1
    604    607     1
    604    608     1
    605   1248     1
    606   1248     1
    607   1274     1
    608   1274     1
    609    614     1
    609    611     1
    609    612     1
    610    614     1
    610    611     1
    610    612     1
    611    613     1
    612    613     1
    615    631     1
    615    632     1
    615    633     1
    615    634     1
    615    637     1
    615    638     1
    616    629     1
    616    630     1
    616    635     1
    616    636     1
    617    627     1
    617    628     1
    617    635     1
    617    636     1
    618    640     1
    618   1315     1
    619    627     1
    619    628     1
    619   1313     1
    619   1314     1
    620    640     1
    620   1341     1
    621    629     1
    621    630     1
    621   1339     1
    621   1340     1
    622    627     1
    622    628     1
    622    629     1
    622    630     1
    622    639     1
    623    640     1
    624    635     1
    624    636     1
    625    631     1
    625    632     1
    625   1315     1
    626    633     1
    626    634     1
    626   1341     1
    627    640     1
    627    631     1
    627    632     1
    628    640     1
    628    631     1
    628    632     1
    629    640     1
    629    633     1
    629    634     1
    630    640     1
    630    633     1
    630    634     1
    631   1300     1
    632   1300     1
    633   1326     1
    634   1326     1
    635    640     1
    635    637     1
    635    638     1
    636    640     1
    636    637     1
    636    638     1
    637    639     1
    638    639     1
    641    657     1
    641    658     1
    641    659     1
    641    660     1
    641    663     1
    641    664     1
    642    655     1
    642    656     1
    642    661     1
    642    662     1
    643    653     1
    643    654     1
    643    661     1
    643    662     1
    644    666     1
    644   1367     1
    645    653     1
    645    654     1
    645   1365     1
    645   1366     1
    646    666     1
    646   1393     1
    647    655     1
    647    656     1
    647   1391     1
    647   1392     1
    648    653     1
    648    654     1
    648    655     1
    648    656     1
    648    665     1
    649    666     1
    650    661     1
    650    662     1
    651    657     1
    651    658     1
    651   1367     1
    652    659     1
    652    660     1
    652   1393     1
    653    666     1
    653    657     1
    653    658     1
    654    666     1
    654    657     1
    654    658     1
    655    666     1
    655    659     1
    655    660     1
    656    666     1
    656    659     1
    656    660     1
    657   1352     1
    658   1352     1
    659   1378     1
    660   1378     1
    661    666     1
    661    663     1
    661    664     1
    662    666     1
    662    663     1
    662    664     1
    663    665     1
    664    665     1
    667    683     1
    667    684     1
    667    685     1
    667    686     1
    667    689     1
    667    690     1
    668    681     1
    668    682     1
    668    687     1
    668    688     1
    669    679     1
    669    680     1
    669    687     1
    669    688     1
    670    692     1
    670   1419     1
    671    679     1
    671    680     1
    671   1417     1
    671   1418     1
    672    692     1
    672   1445     1
    673    681     1
    673    682     1
    673   1443     1
    673   1444     1
    674    679     1
    674    680     1
    674    681     1
    674    682     1
    674    691     1
    675    692     1
    676    687     1
    676    688     1
    677    683     1
    677    684     1
    677   1419     1
    678    685     1
    678    686     1
    678   1445     1
    679    692     1
    679    683     1
    679    684     1
    680    692     1
    680    683     1
    680    684     1
    681    692     1
    681    685     1
    681    686     1
    682    692     1
    682    685     1
    682    686     1
    683   1404     1
    684   1404     1
    685   1430     1
    686   1430     1
    687    692     1
    687    689     1
    687    690     1
    688    692     1
    688    689     1
    688    690     1
    689    691     1
    690    691     1
    693    709     1
    693    710     1
    693    711     1
    693    712     1
    693    715     1
    693    716     1
    694    707     1
    694    708     1
    694    713     1
    694    714     1
    695    705     1
    695    706     1
    695    713     1
    695    714     1
    696    718     1
    696   1471     1
    697    705     1
    697    706     1
    697   1469     1
    697   1470     1
    698    718     1
    698   1497     1
    699    707     1
    699    708     1
    699   1495     1
    699   1496     1
    700    705     1
    700    706     1
    700    707     1
    700    708     1
    700    717     1
    701    718     1
    702    713     1
    702    714     1
    703    709     1
    703    710     1
    703   1471     1
    704    711     1
    704    712     1
    704   1497     1
    705    718     1
    705    709     1
    705    710     1
    706    718     1
    706    709     1
    706    710     1
    707    718     1
    707    711     1
    707    712     1
    708    718     1
    708    711     1
    708    712     1
    709   1456     1
    710   1456     1
    711   1482     1
    712   1482     1
    713    718     1
    713    715     1
    713    716     1
    714    718     1
    714    715     1
    714    716     1
    715    717     1
    716    717     1
    719    735     1
    719    736     1
    719    737     1
    719    738     1
    719    741     1
    719    742     1
    720    733     1
    720    734     1
    720    739     1
    720    740     1
    721    731     1
    721    732     1
    721    739     1
    721    740     1
    722    744     1
    722   1523     1
    723    731     1
    723    732     1
    723   1521     1
    723   1522     1
    724    744     1
    724   1549     1
    725    733     1
    725    734     1
    725   1547     1
    725   1548     1
    726    731     1
    726    732     1
    726    733     1
    726    734     1
    726    743     1
    727    744     1
    728    739     1
    728    740     1
    729    735     1
    729    736     1
    729   1523     1
    730    737     1
    730    738     1
    730   1549     1
    731    744     1
    731    735     1
    731    736     1
    732    744     1
    732    735     1
    732    736     1
    733    744     1
    733    737     1
    733    738     1
    734    744     1
    734    737     1
    734    738     1
    735   1508     1
    736   1508     1
    737   1534     1
    738   1534     1
    739    744     1
    739    741     1
    739    742     1
    740    744     1
    740    741     1
    740    742     1
    741    743     1
    742    743     1
    745    761     1
    745    762     1
    745    763     1
    745    764     1
    745    767     1
    745    768     1
    746    759     1
    746    760     1
    746    765     1
    746    766     1
    747    757     1
    747    758     1
    747    765     1
    747    766     1
    748    770     1
    748   1575     1
    749    757     1
    749    758     1
    749   1573     1
    749   1574     1
    750    770     1
    750   1601     1
    751    759     1
    751    760     1
    751   1599     1
    751   1600     1
    752    757     1
    752    758     1
    752    759     1
    752    760     1
    752    769     1
    753    770     1
    754    765     1
    754    766     1
    755    761     1
    755    762     1
    755   1575     1
    756    763     1
    756    764     1
    756   1601     1
    757    770     1
    757    761     1
    757    762     1
    758    770     1
    758    761     1
    758    762     1
    759    770     1
    759    763     1
    759    764     1
    760    770     1
    760    763     1
    760    764     1
    761   1560     1
    762   1560     1
    763   1586     1
    764   1586     1
    765    770     1
    765    767     1
    765    768     1
    766    770     1
    766    767     1
    766    768     1
    767    769     1
    768    769     1
    771    787     1
    771    788     1
    771    789     1
    771    790     1
    771    793     1
    771    794     1
    772    785     1
    772    786     1
    772    791     1
    772    792     1
    773    783     1
    773    784     1
    773    791     1
    773    792     1
    774    796     1
    774   1627     1
    775    783     1
    775    784     1
    775   1625     1
    775   1626     1
    776    796     1
    776   1653     1
    777    785     1
    777    786     1
    777   1651     1
    777   1652     1
    778    783     1
    778    784     1
    778    785     1
    778    786     1
    778    795     1
    779    796     1
    780    791     1
    780    792     1
    781    787     1
    781    788     1
    781   1627     1
    782    789     1
    782    790     1
    782   1653     1
    783    796     1
    783    787     1
    783    788     1
    784    796     1
    784    787     1
    784    788     1
    785    796     1
    785    789     1
    785    790     1
    786    796     1
    786    789     1
    786    790     1
    787   1612     1
    788   1612     1
    789   1638     1
    790   1638     1
    791    796     1
    791    793     1
    791    794     1
    792    796     1
    792    793     1
    792    794     1
    793    795     1
    794    795     1
    797    813     1
    797    814     1
    797    815     1
    797    816     1
    797    819     1
    797    820     1
    798    811     1
    798    812     1
    798    817     1
    798    818     1
    799    809     1
    799    810     1
    799    817     1
    799    818     1
    800    822     1
    800   1679     1
    801    809     1
    801    810     1
    801   1677     1
    801   1678     1
    802    822     1
    802   1705     1
    803    811     1
    803    812     1
    803   1703     1
    803   1704     1
    804    809     1
    804    810     1
    804    811     1
    804    812     1
    804    821     1
    805    822     1
    806    817     1
    806    818     1
    807    813     1
    807    814     1
    807   1679     1
    808    815     1
    808    816     1
    808   1705     1
    809    822     1
    809    813     1
    809    814     1
    810    822     1
    810    813     1
    810    814     1
    811    822     1
    811    815     1
    811    816     1
    812    822     1
    812    815     1
    812    816     1
    813   1664     1
    814   1664     1
    815   1690     1
    816   1690     1
    817    822     1
    817    819     1
    817    820     1
    818    822     1
    818    819     1
    818    820     1
    819    821     1
    820    821     1
    823    839     1
    823    840     1
    823    841     1
    823    842     1
    823    845     1
    823    846     1
    824    837     1
    824    838     1
    824    843     1
    824    844     1
    825    835     1
    825    836     1
    825    843     1
    825    844     1
    826    848     1
    826   1731     1
    827    835     1
    827    836     1
    827   1729     1
    827   1730     1
    828    848     1
    828   1757     1
    829    837     1
    829    838     1
    829   1755     1
    829   1756     1
    830    835     1
    830    836     1
    830    837     1
    830    838     1
    830    847     1
    831    848     1
    832    843     1
    832    844     1
    833    839     1
    833    840     1
    833   1731     1
    834    841     1
    834    842     1
    834   1757     1
    835    848     1
    835    839     1
    835    840     1
    836    848     1
    836    839     1
    836    840     1
    837    848     1
    837    841     1
    837    842     1
    838    848     1
    838    841     1
    838    842     1
    839   1716     1
    840   1716     1
    841   1742     1
    842   1742     1
    843    848     1
    843    845     1
    843    846     1
    844    848     1
    844    845     1
    844    846     1
    845    847     1
    846    847     1
    849    865     1
    849    866     1
    849    867     1
    849    868     1
    849    871     1
    849    872     1
    850    863     1
    850    864     1
    850    869     1
    850    870     1
    851    861     1
    851    862     1
    851    869     1
    851    870     1
    852    874     1
    852   1783     1
    853    861     1
    853    862     1
    853   1781     1
    853   1782     1
    854    874     1
    854   1809     1
    855    863     1
    855    864     1
    855   1807     1
    855   1808     1
    856    861     1
    856    862     1
    856    863     1
    856    864     1
    856    873     1
    857    874     1
    858    869     1
    858    870     1
    859    865     1
    859    866     1
    859   1783     1
    860    867     1
    860    868     1
    860   1809     1
    861    874     1
    861    865     1
    861    866     1
    862    874     1
    862    865     1
    862    866     1
    863    874     1
    863    867     1
    863    868     1
    864    874     1
    864    867     1
    864    868     1
    865   1768     1
    866   1768     1
    867   1794     1
    868   1794     1
    869    874     1
    869    871     1
    869    872     1
    870    874     1
    870    871     1
    870    872     1
    871    873     1
    872    873     1
    875    891     1
    875    892     1
    875    893     1
    875    894     1
    875    897     1
    875    898     1
    876    889     1
    876    890     1
    876    895     1
    876    896     1
    877    887     1
    877    888     1
    877    895     1
    877    896     1
    878    900     1
    878   1835     1
    879    887     1
    879    888     1
    879   1833     1
    879   1834     1
    880    900     1
    880   1861     1
    881    889     1
    881    890     1
    881   1859     1
    881   1860     1
    882    887     1
    882    888     1
    882    889     1
    882    890     1
    882    899     1
    883    900     1
    884    895     1
    884    896     1
    885    891     1
    885    892     1
    885   1835     1
    886    893     1
    886    894     1
    886   1861     1
    887    900     1
    887    891     1
    887    892     1
    888    900     1
    888    891     1
    888    892     1
    889    900     1
    889    893     1
    889    894     1
    890    900     1
    890    893     1
    890    894     1
    891   1820     1
    892   1820     1
    893   1846     1
    894   1846     1
    895    900     1
    895    897     1
    895    898     1
    896    900     1
    896    897     1
    896    898     1
    897    899     1
    898    899     1
    901    917     1
    901    918     1
    901    919     1
    901    920     1
    901    923     1
    901    924     1
    902    915     1
    902    916     1
    902    921     1
    902    922     1
    903    913     1
    903    914     1
    903    921     1
    903    922     1
    904    926     1
    904   1887     1
    905    913     1
    905    914     1
    905   1885     1
    905   1886     1
    906    926     1
    906   1913     1
    907    915     1
    907    916     1
    907   1911     1
    907   1912     1
    908    913     1
    908    914     1
    908    915     1
    908    916     1
    908    925     1
    909    926     1
    910    921     1
    910    922     1
    911    917     1
    911    918     1
    911   1887     1
    912    919     1
    912    920     1
    912   1913     1
    913    926     1
    913    917     1
    913    918     1
    914    926     1
    914    917     1
    914    918     1
    915    926     1
    915    919     1
    915    920     1
    916    926     1
    916    919     1
    916    920     1
    917   1872     1
    918   1872     1
    919   1898     1
    920   1898     1
    921    926     1
    921    923     1
    921    924     1
    922    926     1
    922    923     1
    922    924     1
    923    925     1
    924    925     1
    927    943     1
    927    944     1
    927    945     1
    927    946     1
    927    949     1
    927    950     1
    928    941     1
    928    942     1
    928    947     1
    928    948     1
    929    939     1
    929    940     1
    929    947     1
    929    948     1
    930    952     1
    930   1939     1
    931    939     1
    931    940     1
    931   1937     1
    931   1938     1
    932    952     1
    932   1965     1
    933    941     1
    933    942     1
    933   1963     1
    933   1964     1
    934    939     1
    934    940     1
    934    941     1
    934    942     1
    934    951     1
    935    952     1
    936    947     1
    936    948     1
    937    943     1
    937    944     1
    937   1939     1
    938    945     1
    938    946     1
    938   1965     1
    939    952     1
    939    943     1
    939    944     1
    940    952     1
    940    943     1
    940    944     1
    941    952     1
    941    945     1
    941    946     1
    942    952     1
    942    945     1
    942    946     1
    943   1924     1
    944   1924     1
    945   1950     1
    946   1950     1
    947    952     1
    947    949     1
    947    950     1
    948    952     1
    948    949     1
    948    950     1
    949    951     1
    950    951     1
    953    969     1
    953    970     1
    953    971     1
    953    972     1
    953    975     1
    953    976     1
    954    967     1
    954    968     1
    954    973     1
    954    974     1
    955    965     1
    955    966     1
    955    973     1
    955    974     1
    956    978     1
    956   1991     1
    957    965     1
    957    966     1
    957   1989     1
    957   1990     1
    958    978     1
    958   2017     1
    959    967     1
    959    968     1
    959   2015     1
    959   2016     1
    960    965     1
    960    966     1
    960    967     1
    960    968     1
    960    977     1
    961    978     1
    962    973     1
    962    974     1
    963    969     1
    963    970     1
    963   1991     1
    964    971     1
    964    972     1
    964   2017     1
    965    978     1
    965    969     1
    965    970     1
    966    978     1
    966    969     1
    966    970     1
    967    978     1
    967    971     1
    967    972     1
    968    978     1
    968    971     1
    968    972     1
    969   1976     1
    970   1976     1
    971   2002     1
    972   2002     1
    973    978     1
    973    975     1
    973    976     1
    974    978     1
    974    975     1
    974    976     1
    975    977     1
    976    977     1
    979    995     1
    979    996     1
    979    997     1
    979    998     1
    979   1001     1
    979   1002     1
    980    993     1
    980    994     1
    980    999     1
    980   1000     1
    981    991     1
    981    992     1
    981    999     1
    981   1000     1
    982   1004     1
    982   2043     1
    983    991     1
    983    992     1
    983   2041     1
    983   2042     1
    984   1004     1
    984   2069     1
    985    993     1
    985    994     1
    985   2067     1
    985   2068     1
    986    991     1
    986    992     1
    986    993     1
    986    994     1
    986   1003     1
    987   1004     1
    988    999     1
    988   1000     1
    989    995     1
    989    996     1
    989   2043     1
    990    997     1
    990    998     1
    990   2069     1
    991   1004     1
    991    995     1
    991    996     1
    992   1004     1
    992    995     1
    992    996     1
    993   1004     1
    993    997     1
    993    998     1
    994   1004     1
    994    997     1
    994    998     1
    995   2028     1
    996   2028     1
    997   2054     1
    998   2054     1
    999   1004     1
    999   1001     1
    999   1002     1
   1000   1004     1
   1000   1001     1
   1000   1002     1
   1001   1003     1
   1002   1003     1
   1005   1021     1
   1005   1022     1
   1005   1023     1
   1005   1024     1
   1005   1027     1
   1005   1028     1
   1006   1019     1
   1006   1020     1
   1006   1025     1
   1006   1026     1
   1007   1017     1
   1007   1018     1
   1007   1025     1
   1007   1026     1
   1008   1030     1
   1008   2095     1
   1009   1017     1
   1009   1018     1
   1009   2093     1
   1009   2094     1
   1010   1030     1
   1010   2121     1
   1011   1019     1
   1011   1020     1
   1011   2119     1
   1011   2120     1
   1012   1017     1
   1012   1018     1
   1012   1019     1
   1012   1020     1
   1012   1029     1
   1013   1030     1
   1014   1025     1
   1014   1026     1
   1015   1021     1
   1015   1022     1
   1015   2095     1
   1016   1023     1
   1016   1024     1
   1016   2121     1
   1017   1030     1
   1017   1021     1
   1017   1022     1
   1018   1030     1
   1018   1021     1
   1018   1022     1
   1019   1030     1
   1019   1023     1
   1019   1024     1
   1020   1030     1
   1020   1023     1
   1020   1024     1
   1021   2080     1
   1022   2080     1
   1023   2106     1
   1024   2106     1
   1025   1030     1
   1025   1027     1
   1025   1028     1
   1026   1030     1
   1026   1027     1
   1026   1028     1
   1027   1029     1
   1028   1029     1
   1031   1047     1
   1031   1048     1
   1031   1049     1
   1031   1050     1
   1031   1053     1
   1031   1054     1
   1032   1045     1
   1032   1046     1
   1032   1051     1
   1032   1052     1
   1033   1043     1
   1033   1044     1
   1033   1051     1
   1033   1052     1
   1034   1056     1
   1034   2147     1
   1035   1043     1
   1035   1044     1
   1035   2145     1
   1035   2146     1
   1036   1056     1
   1036   2173     1
   1037   1045     1
   1037   1046     1
   1037   2171     1
   1037   2172     1
   1038   1043     1
   1038   1044     1
   1038   1045     1
   1038   1046     1
   1038   1055     1
   1039   1056     1
   1040   1051     1
   1040   1052     1
   1041   1047     1
   1041   1048     1
   1041   2147     1
   1042   1049     1
   1042   1050     1
   1042   2173     1
   1043   1056     1
   1043   1047     1
   1043   1048     1
   1044   1056     1
   1044   1047     1
   1044   1048     1
   1045   1056     1
   1045   1049     1
   1045   1050     1
   1046   1056     1
   1046   1049     1
   1046   1050     1
   1047   2132     1
   1048   2132     1
   1049   2158     1
   1050   2158     1
   1051   1056     1
   1051   1053     1
   1051   1054     1
   1052   1056     1
   1052   1053     1
   1052   1054     1
   1053   1055     1
   1054   1055     1
   1057   1073     1
   1057   1074     1
   1057   1075     1
   1057   1076     1
   1057   1079     1
   1057   1080     1
   1058   1071     1
   1058   1072     1
   1058   1077     1
   1058   1078     1
   1059   1069     1
   1059   1070     1
   1059   1077     1
   1059   1078     1
   1060   1082     1
   1060   2199     1
   1061   1069     1
   1061   1070     1
   1061   2197     1
   1061   2198     1
   1062   1082     1
   1062   2225     1
   1063   1071     1
   1063   1072     1
   1063   2223     1
   1063   2224     1
   1064   1069     1
   1064   1070     1
   1064   1071     1
   1064   1072     1
   1064   1081     1
   1065   1082     1
   1066   1077     1
   1066   1078     1
   1067   1073     1
   1067   1074     1
   1067   2199     1
   1068   1075     1
   1068   1076     1
   1068   2225     1
   1069   1082     1
   1069   1073     1
   1069   1074     1
   1070   1082     1
   1070   1073     1
   1070   1074     1
   1071   1082     1
   1071   1075     1
   1071   1076     1
   1072   1082     1
   1072   1075     1
   1072   1076     1
   1073   2184     1
   1074   2184     1
   1075   2210     1
   1076   2210     1
   1077   1082     1
   1077   1079     1
   1077   1080     1
   1078   1082     1
   1078   1079     1
   1078   1080     1
   1079   1081     1
   1080   1081     1
   1083   1099     1
   1083   1100     1
   1083   1101     1
   1083   1102     1
   1083   1105     1
   1083   1106     1
   1084   1097     1
   1084   1098     1
   1084   1103     1
   1084   1104     1
   1085   1095     1
   1085   1096     1
   1085   1103     1
   1085   1104     1
   1086   1108     1
   1086   2251     1
   1087   1095     1
   1087   1096     1
   1087   2249     1
   1087   2250     1
   1088   1108     1
   1088   2277     1
   1089   1097     1
   1089   1098     1
   1089   2275     1
   1089   2276     1
   1090   1095     1
   1090   1096     1
   1090   1097     1
   1090   1098     1
   1090   1107     1
   1091   1108     1
   1092   1103     1
   1092   1104     1
   1093   1099     1
   1093   1100     1
   1093   2251     1
   1094   1101     1
   1094   1102     1
   1094   2277     1
   1095   1108     1
   1095   1099     1
   1095   1100     1
   1096   1108     1
   1096   1099     1
   1096   1100     1
   1097   1108     1
   1097   1101     1
   1097   1102     1
   1098   1108     1
   1098   1101     1
   1098   1102     1
   1099   2236     1
   1100   2236     1
   1101   2262     1
   1102   2262     1
   1103   1108     1
   1103   1105     1
   1103   1106     1
   1104   1108     1
   1104   1105     1
   1104   1106     1
   1105   1107     1
   1106   1107     1
   1109   1125     1
   1109   1126     1
   1109   1127     1
   1109   1128     1
   1109   1131     1
   1109   1132     1
   1110   1123     1
   1110   1124     1
   1110   1129     1
   1110   1130     1
   1111   1121     1
   1111   1122     1
   1111   1129     1
   1111   1130     1
   1112   1134     1
   1112   2303     1
   1113   1121     1
   1113   1122     1
   1113   2301     1
   1113   2302     1
   1114   1134     1
   1114   2329     1
   1115   1123     1
   1115   1124     1
   1115   2327     1
   1115   2328     1
   1116   1121     1
   1116   1122     1
   1116   1123     1
   1116   1124     1
   1116   1133     1
   1117   1134     1
   1118   1129     1
   1118   1130     1
   1119   1125     1
   1119   1126     1
   1119   2303     1
   1120   1127     1
   1120   1128     1
   1120   2329     1
   1121   1134     1
   1121   1125     1
   1121   1126     1
   1122   1134     1
   1122   1125     1
   1122   1126     1
   1123   1134     1
   1123   1127     1
   1123   1128     1
   1124   1134     1
   1124   1127     1
   1124   1128     1
   1125   2288     1
   1126   2288     1
   1127   2314     1
   1128   2314     1
   1129   1134     1
   1129   1131     1
   1129   1132     1
   1130   1134     1
   1130   1131     1
   1130   1132     1
   1131   1133     1
   1132   1133     1
   1135   1151     1
   1135   1152     1
   1135   1153     1
   1135   1154     1
   1135   1157     1
   1135   1158     1
   1136   1149     1
   1136   1150     1
   1136   1155     1
   1136   1156     1
   1137   1147     1
   1137   1148     1
   1137   1155     1
   1137   1156     1
   1138   1160     1
   1138   2355     1
   1139   1147     1
   1139   1148     1
   1139   2353     1
   1139   2354     1
   1140   1160     1
   1140   2381     1
   1141   1149     1
   1141   1150     1
   1141   2379     1
   1141   2380     1
   1142   1147     1
   1142   1148     1
   1142   1149     1
   1142   1150     1
   1142   1159     1
   1143   1160     1
   1144   1155     1
   1144   1156     1
   1145   1151     1
   1145   1152     1
   1145   2355     1
   1146   1153     1
   1146   1154     1
   1146   2381     1
   1147   1160     1
   1147   1151     1
   1147   1152     1
   1148   1160     1
   1148   1151     1
   1148   1152     1
   1149   1160     1
   1149   1153     1
   1149   1154     1
   1150   1160     1
   1150   1153     1
   1150   1154     1
   1151   2340     1
   1152   2340     1
   1153   2366     1
   1154   2366     1
   1155   1160     1
   1155   1157     1
   1155   1158     1
   1156   1160     1
   1156   1157     1
   1156   1158     1
   1157   1159     1
   1158   1159     1
   1161   1177     1
   1161   1178     1
   1161   1179     1
   1161   1180     1
   1161   1183     1
   1161   1184     1
   1162   1175     1
   1162   1176     1
   1162   1181     1
   1162   1182     1
   1163   1173     1
   1163   1174     1
   1163   1181     1
   1163   1182     1
   1164   1186     1
   1164   2407     1
   1165   1173     1
   1165   1174     1
   1165   2405     1
   1165   2406     1
   1166   1186     1
   1166   2433     1
   1167   1175     1
   1167   1176     1
   1167   2431     1
   1167   2432     1
   1168   1173     1
   1168   1174     1
   1168   1175     1
   1168   1176     1
   1168   1185     1
   1169   1186     1
   1170   1181     1
   1170   1182     1
   1171   1177     1
   1171   1178     1
   1171   2407     1
   1172   1179     1
   1172   1180     1
   1172   2433     1
   1173   1186     1
   1173   1177     1
   1173   1178     1
   1174   1186     1
   1174   1177     1
   1174   1178     1
   1175   1186     1
   1175   1179     1
   1175   1180     1
   1176   1186     1
   1176   1179     1
   1176   1180     1
   1177   2392     1
   1178   2392     1
   1179   2418     1
   1180   2418     1
   1181   1186     1
   1181   1183     1
   1181   1184     1
   1182   1186     1
   1182   1183     1
   1182   1184     1
   1183   1185     1
   1184   1185     1
   1187   1203     1
   1187   1204     1
   1187   1205     1
   1187   1206     1
   1187   1209     1
   1187   1210     1
   1188   1201     1
   1188   1202     1
   1188   1207     1
   1188   1208     1
   1189   1199     1
   1189   1200     1
   1189   1207     1
   1189   1208     1
   1190   1212     1
   1190   2459     1
   1191   1199     1
   1191   1200     1
   1191   2457     1
   1191   2458     1
   1192   1212     1
   1192   2485     1
   1193   1201     1
   1193   1202     1
   1193   2483     1
   1193   2484     1
   1194   1199     1
   1194   1200     1
   1194   1201     1
   1194   1202     1
   1194   1211     1
   1195   1212     1
   1196   1207     1
   1196   1208     1
   1197   1203     1
   1197   1204     1
   1197   2459     1
   1198   1205     1
   1198   1206     1
   1198   2485     1
   1199   1212     1
   1199   1203     1
   1199   1204     1
   1200   1212     1
   1200   1203     1
   1200   1204     1
   1201   1212     1
   1201   1205     1
   1201   1206     1
   1202   1212     1
   1202   1205     1
   1202   1206     1
   1203   2444     1
   1204   2444     1
   1205   2470     1
   1206   2470     1
   1207   1212     1
   1207   1209     1
   1207   1210     1
   1208   1212     1
   1208   1209     1
   1208   1210     1
   1209   1211     1
   1210   1211     1
   1213   1229     1
   1213   1230     1
   1213   1231     1
   1213   1232     1
   1213   1235     1
   1213   1236     1
   1214   1227     1
   1214   1228     1
   1214   1233     1
   1214   1234     1
   1215   1225     1
   1215   1226     1
   1215   1233     1
   1215   1234     1
   1216   1238     1
   1216   2511     1
   1217   1225     1
   1217   1226     1
   1217   2509     1
   1217   2510     1
   1218   1238     1
   1218   2537     1
   1219   1227     1
   1219   1228     1
   1219   2535     1
   1219   2536     1
   1220   1225     1
   1220   1226     1
   1220   1227     1
   1220   1228     1
   1220   1237     1
   1221   1238     1
   1222   1233     1
   1222   1234     1
   1223   1229     1
   1223   1230     1
   1223   2511     1
   1224   1231     1
   1224   1232     1
   1224   2537     1
   1225   1238     1
   1225   1229     1
   1225   1230     1
   1226   1238     1
   1226   1229     1
   1226   1230     1
   1227   1238     1
   1227   1231     1
   1227   1232     1
   1228   1238     1
   1228   1231     1
   1228   1232     1
   1229   2496     1
   1230   2496     1
   1231   2522     1
   1232   2522     1
   1233   1238     1
   1233   1235     1
   1233   1236     1
   1234   1238     1
   1234   1235     1
   1234   1236     1
   1235   1237     1
   1236   1237     1
   1239   1255     1
   1239   1256     1
   1239   1257     1
   1239   1258     1
   1239   1261     1
   1239   1262     1
   1240   1253     1
   1240   1254     1
   1240   1259     1
   1240   1260     1
   1241   1251     1
   1241   1252     1
   1241   1259     1
   1241   1260     1
   1242   1264     1
   1242   2563     1
   1243   1251     1
   1243   1252     1
   1243   2561     1
   1243   2562     1
   1244   1264     1
   1244   2589     1
   1245   1253     1
   1245   1254     1
   1245   2587     1
   1245   2588     1
   1246   1251     1
   1246   1252     1
   1246   1253     1
   1246   1254     1
   1246   1263     1
   1247   1264     1
   1248   1259     1
   1248   1260     1
   1249   1255     1
   1249   1256     1
   1249   2563     1
   1250   1257     1
   1250   1258     1
   1250   2589     1
   1251   1264     1
   1251   1255     1
   1251   1256     1
   1252   1264     1
   1252   1255     1
   1252   1256     1
   1253   1264     1
   1253   1257     1
   1253   1258     1
   1254   1264     1
   1254   1257     1
   1254   1258     1
   1255   2548     1
   1256   2548     1
   1257   2574     1
   1258   2574     1
   1259   1264     1
   1259   1261     1
   1259   1262     1
   1260   1264     1
   1260   1261     1
   1260   1262     1
   1261   1263     1
   1262   1263     1
   1265   1281     1
   1265   1282     1
   1265   1283     1
   1265   1284     1
   1265   1287     1
   1265   1288     1
   1266   1279     1
   1266   1280     1
   1266   1285     1
   1266   1286     1
   1267   1277     1
   1267   1278     1
   1267   1285     1
   1267   1286     1
   1268   1290     1
   1268   2615     1
   1269   1277     1
   1269   1278     1
   1269   2613     1
   1269   2614     1
   1270   1290     1
   1270   2641     1
   1271   1279     1
   1271   1280     1
   1271   2639     1
   1271   2640     1
   1272   1277     1
   1272   1278     1
   1272   1279     1
   1272   1280     1
   1272   1289     1
   1273   1290     1
   1274   1285     1
   1274   1286     1
   1275   1281     1
   1275   1282     1
   1275   2615     1
   1276   1283     1
   1276   1284     1
   1276   2641     1
   1277   1290     1
   1277   1281     1
   1277   1282     1
   1278   1290     1
   1278   1281     1
   1278   1282     1
   1279   1290     1
   1279   1283     1
   1279   1284     1
   1280   1290     1
   1280   1283     1
   1280   1284     1
   1281   2600     1
   1282   2600     1
   1283   2626     1
   1284   2626     1
   1285   1290     1
   1285   1287     1
   1285   1288     1
   1286   1290     1
   1286   1287     1
   1286   1288     1
   1287   1289     1
   1288   1289     1
   1291   1307     1
   1291   1308     1
   1291   1309     1
   1291   1310     1
   1291   1313     1
   1291   1314     1
   1292   1305     1
   1292   1306     1
   1292   1311     1
   1292   1312     1
   1293   1303     1
   1293   1304     1
   1293   1311     1
   1293   1312     1
   1294   1316     1
   1294   2667     1
   1295   1303     1
   1295   1304     1
   1295   2665     1
   1295   2666     1
   1296   1316     1
   1296   2693     1
   1297   1305     1
   1297   1306     1
   1297   2691     1
   1297   2692     1
   1298   1303     1
   1298   1304     1
   1298   1305     1
   1298   1306     1
   1298   1315     1
   1299   1316     1
   1300   1311     1
   1300   1312     1
   1301   1307     1
   1301   1308     1
   1301   2667     1
   1302   1309     1
   1302   1310     1
   1302   2693     1
   1303   1316     1
   1303   1307     1
   1303   1308     1
   1304   1316     1
   1304   1307     1
   1304   1308     1
   1305   1316     1
   1305   1309     1
   1305   1310     1
   1306   1316     1
   1306   1309     1
   1306   1310     1
   1307   2652     1
   1308   2652     1
   1309   2678     1
   1310   2678     1
   1311   1316     1
   1311   1313     1
   1311   1314     1
   1312   1316     1
   1312   1313     1
   1312   1314     1
   1313   1315     1
   1314   1315     1
   1317   1333     1
   1317   1334     1
   1317   1335     1
   1317   1336     1
   1317   1339     1
   1317   1340     1
   1318   1331     1
   1318   1332     1
   1318   1337     1
   1318   1338     1
   1319   1329     1
   1319   1330     1
   1319   1337     1
   1319   1338     1
   1320   1342     1
   1320   2719     1
   1321   1329     1
   1321   1330     1
   1321   2717     1
   1321   2718     1
   1322   1342     1
   1322   2745     1
   1323   1331     1
   1323   1332     1
   1323   2743     1
   1323   2744     1
   1324   1329     1
   1324   1330     1
   1324   1331     1
   1324   1332     1
   1324   1341     1
   1325   1342     1
   1326   1337     1
   1326   1338     1
   1327   1333     1
   1327   1334     1
   1327   2719     1
   1328   1335     1
   1328   1336     1
   1328   2745     1
   1329   1342     1
   1329   1333     1
   1329   1334     1
   1330   1342     1
   1330   1333     1
   1330   1334     1
   1331   1342     1
   1331   1335     1
   1331   1336     1
   1332   1342     1
   1332   1335     1
   1332   1336     1
   1333   2704     1
   1334   2704     1
   1335   2730     1
   1336   2730     1
   1337   1342     1
   1337   1339     1
   1337   1340     1
   1338   1342     1
   1338   1339     1
   1338   1340     1
   1339   1341     1
   1340   1341     1
   1343   1359     1
   1343   1360     1
   1343   1361     1
   1343   1362     1
   1343   1365     1
   1343   1366     1
   1344   1357     1
   1344   1358     1
   1344   1363     1
   1344   1364     1
   1345   1355     1
   1345   1356     1
   1345   1363     1
   1345   1364     1
   1346   1368     1
   1346   2771     1
   1347   1355     1
   1347   1356     1
   1347   2769     1
   1347   2770     1
   1348   1368     1
   1348   2797     1
   1349   1357     1
   1349   1358     1
   1349   2795     1
   1349   2796     1
   1350   1355     1
   1350   1356     1
   1350   1357     1
   1350   1358     1
   1350   1367     1
   1351   1368     1
   1352   1363     1
   1352   1364     1
   1353   1359     1
   1353   1360     1
   1353   2771     1
   1354   1361     1
   1354   1362     1
   1354   2797     1
   1355   1368     1
   1355   1359     1
   1355   1360     1
   1356   1368     1
   1356   1359     1
   1356   1360     1
   1357   1368     1
   1357   1361     1
   1357   1362     1
   1358   1368     1
   1358   1361     1
   1358   1362     1
   1359   2756     1
   1360   2756     1
   1361   2782     1
   1362   2782     1
   1363   1368     1
   1363   1365     1
   1363   1366     1
   1364   1368     1
   1364   1365     1
   1364   1366     1
   1365   1367     1
   1366   1367     1
   1369   1385     1
   1369   1386     1
   1369   1387     1
   1369   1388     1
   1369   1391     1
   1369   1392     1
   1370   1383     1
   1370   1384     1
   1370   1389     1
   1370   1390     1
   1371   1381     1
   1371   1382     1
   1371   1389     1
   1371   1390     1
   1372   1394     1
   1372   2823     1
   1373   1381     1
   1373   1382     1
   1373   2821     1
   1373   2822     1
   1374   1394     1
   1374   2849     1
   1375   1383     1
   1375   1384     1
   1375   2847     1
   1375   2848     1
   1376   1381     1
   1376   1382     1
   1376   1383     1
   1376   1384     1
   1376   1393     1
   1377   1394     1
   1378   1389     1
   1378   1390     1
   1379   1385     1
   1379   1386     1
   1379   2823     1
   1380   1387     1
   1380   1388     1
   1380   2849     1
   1381   1394     1
   1381   1385     1
   1381   1386     1
   1382   1394     1
   1382   1385     1
   1382   1386     1
   1383   1394     1
   1383   1387     1
   1383   1388     1
   1384   1394     1
   1384   1387     1
   1384   1388     1
   1385   2808     1
   1386   2808     1
   1387   2834     1
   1388   2834     1
   1389   1394     1
   1389   1391     1
   1389   1392     1
   1390   1394     1
   1390   1391     1
   1390   1392     1
   1391   1393     1
   1392   1393     1
   1395   1411     1
   1395   1412     1
   1395   1413     1
   1395   1414     1
   1395   1417     1
   1395   1418     1
   1396   1409     1
   1396   1410     1
   1396   1415     1
   1396   1416     1
   1397   1407     1
   1397   1408     1
   1397   1415     1
   1397   1416     1
   1398   1420     1
   1398   2875     1
   1399   1407     1
   1399   1408     1
   1399   2873     1
   1399   2874     1
   1400   1420     1
   1400   2901     1
   1401   1409     1
   1401   1410     1
   1401   2899     1
   1401   2900     1
   1402   1407     1
   1402   1408     1
   1402   1409     1
   1402   1410     1
   1402   1419     1
   1403   1420     1
   1404   1415     1
   1404   1416     1
   1405   1411     1
   1405   1412     1
   1405   2875     1
   1406   1413     1
   1406   1414     1
   1406   2901     1
   1407   1420     1
   1407   1411     1
   1407   1412     1
   1408   1420     1
   1408   1411     1
   1408   1412     1
   1409   1420     1
   1409   1413     1
   1409   1414     1
   1410   1420     1
   1410   1413     1
   1410   1414     1
   1411   2860     1
   1412   2860     1
   1413   2886     1
   1414   2886     1
   1415   1420     1
   1415   1417     1
   1415   1418     1
   1416   1420     1
   1416   1417     1
   1416   1418     1
   1417   1419     1
   1418   1419     1
   1421   1437     1
   1421   1438     1
   1421   1439     1
   1421   1440     1
   1421   1443     1
   1421   1444     1
   1422   1435     1
   1422   1436     1
   1422   1441     1
   1422   1442     1
   1423   1433     1
   1423   1434     1
   1423   1441     1
   1423   1442     1
   1424   1446     1
   1424   2927     1
   1425   1433     1
   1425   1434     1
   1425   2925     1
   1425   2926     1
   1426   1446     1
   1426   2953     1
   1427   1435     1
   1427   1436     1
   1427   2951     1
   1427   2952     1
   1428   1433     1
   1428   1434     1
   1428   1435     1
   1428   1436     1
   1428   1445     1
   1429   1446     1
   1430   1441     1
   1430   1442     1
   1431   1437     1
   1431   1438     1
   1431   2927     1
   1432   1439     1
   1432   1440     1
   1432   2953     1
   1433   1446     1
   1433   1437     1
   1433   1438     1
   1434   1446     1
   1434   1437     1
   1434   1438     1
   1435   1446     1
   1435   1439     1
   1435   1440     1
   1436   1446     1
   1436   1439     1
   1436   1440     1
   1437   2912     1
   1438   2912     1
   1439   2938     1
   1440   2938     1
   1441   1446     1
   1441   1443     1
   1441   1444     1
   1442   1446     1
   1442   1443     1
   1442   1444     1
   1443   1445     1
   1444   1445     1
   1447   1463     1
   1447   1464     1
   1447   1465     1
   1447   1466     1
   1447   1469     1
   1447   1470     1
   1448   1461     1
   1448   1462     1
   1448   1467     1
   1448   1468     1
   1449   1459     1
   1449   1460     1
   1449   1467     1
   1449   1468     1
   1450   1472     1
   1450   2979     1
   1451   1459     1
   1451   1460     1
   1451   2977     1
   1451   2978     1
   1452   1472     1
   1452   3005     1
   1453   1461     1
   1453   1462     1
   1453   3003     1
   1453   3004     1
   1454   1459     1
   1454   1460     1
   1454   1461     1
   1454   1462     1
   1454   1471     1
   1455   1472     1
   1456   1467     1
   1456   1468     1
   1457   1463     1
   1457   1464     1
   1457   2979     1
   1458   1465     1
   1458   1466     1
   1458   3005     1
   1459   1472     1
   1459   1463     1
   1459   1464     1
   1460   1472     1
   1460   1463     1
   1460   1464     1
   1461   1472     1
   1461   1465     1
   1461   1466     1
   1462   1472     1
   1462   1465     1
   1462   1466     1
   1463   2964     1
   1464   2964     1
   1465   2990     1
   1466   2990     1
   1467   1472     1
   1467   1469     1
   1467   1470     1
   1468   1472     1
   1468   1469     1
   1468   1470     1
   1469   1471     1
   1470   1471     1
   1473   1489     1
   1473   1490     1
   1473   1491     1
   1473   1492     1
   1473   1495     1
   1473   1496     1
   1474   1487     1
   1474   1488     1
   1474   1493     1
   1474   1494     1
   1475   1485     1
   1475   1486     1
   1475   1493     1
   1475   1494     1
   1476   1498     1
   1476   3031     1
   1477   1485     1
   1477   1486     1
   1477   3029     1
   1477   3030     1
   1478   1498     1
   1478   3057     1
   1479   1487     1
   1479   1488     1
   1479   3055     1
   1479   3056     1
   1480   1485     1
   1480   1486     1
   1480   1487     1
   1480   1488     1
   1480   1497     1
   1481   1498     1
   1482   1493     1
   1482   1494     1
   1483   1489     1
   1483   1490     1
   1483   3031     1
   1484   1491     1
   1484   1492     1
   1484   3057     1
   1485   1498     1
   1485   1489     1
   1485   1490     1
   1486   1498     1
   1486   1489     1
   1486   1490     1
   1487   1498     1
   1487   1491     1
   1487   1492     1
   1488   1498     1
   1488   1491     1
   1488   1492     1
   1489   3016     1
   1490   3016     1
   1491   3042     1
   1492   3042     1
   1493   1498     1
   1493   1495     1
   1493   1496     1
   1494   1498     1
   1494   1495     1
   1494   1496     1
   1495   1497     1
   1496   1497     1
   1499   1515     1
   1499   1516     1
   1499   1517     1
   1499   1518     1
   1499   1521     1
   1499   1522     1
   1500   1513     1
   1500   1514     1
   1500   1519     1
   1500   1520     1
   1501   1511     1
   1501   1512     1
   1501   1519     1
   1501   1520     1
   1502   1524     1
   1502   3083     1
   1503   1511     1
   1503   1512     1
   1503   3081     1
   1503   3082     1
   1504   1524     1
   1504   3109     1
   1505   1513     1
   1505   1514     1
   1505   3107     1
   1505   3108     1
   1506   1511     1
   1506   1512     1
   1506   1513     1
   1506   1514     1
   1506   1523     1
   1507   1524     1
   1508   1519     1
   1508   1520     1
   1509   1515     1
   1509   1516     1
   1509   3083     1
   1510   1517     1
   1510   1518     1
   1510   3109     1
   1511   1524     1
   1511   1515     1
   1511   1516     1
   1512   1524     1
   1512   1515     1
   1512   1516     1
   1513   1524     1
   1513   1517     1
   1513   1518     1
   1514   1524     1
   1514   1517     1
   1514   1518     1
   1515   3068     1
   1516   3068     1
   1517   3094     1
   1518   3094     1
   1519   1524     1
   1519   1521     1
   1519   1522     1
   1520   1524     1
   1520   1521     1
   1520   1522     1
   1521   1523     1
   1522   1523     1
   1525   1541     1
   1525   1542     1
   1525   1543     1
   1525   1544     1
   1525   1547     1
   1525   1548     1
   1526   1539     1
   1526   1540     1
   1526   1545     1
   1526   1546     1
   1527   1537     1
   1527   1538     1
   1527   1545     1
   1527   1546     1
   1528   1550     1
   1528   3135     1
   1529   1537     1
   1529   1538     1
   1529   3133     1
   1529   3134     1
   1530   1550     1
   1530   3161     1
   1531   1539     1
   1531   1540     1
   1531   3159     1
   1531   3160     1
   1532   1537     1
   1532   1538     1
   1532   1539     1
   1532   1540     1
   1532   1549     1
   1533   1550     1
   1534   1545     1
   1534   1546     1
   1535   1541     1
   1535   1542     1
   1535   3135     1
   1536   1543     1
   1536   1544     1
   1536   3161     1
   1537   1550     1
   1537   1541     1
   1537   1542     1
   1538   1550     1
   1538   1541     1
   1538   1542     1
   1539   1550     1
   1539   1543     1
   1539   1544     1
   1540   1550     1
   1540   1543     1
   1540   1544     1
   1541   3120     1
   1542   3120     1
   1543   3146     1
   1544   3146     1
   1545   1550     1
   1545   1547     1
   1545   1548     1
   1546   1550     1
   1546   1547     1
   1546   1548     1
   1547   1549     1
   1548   1549     1
   1551   1567     1
   1551   1568     1
   1551   1569     1
   1551   1570     1
   1551   1573     1
   1551   1574     1
   1552   1565     1
   1552   1566     1
   1552   1571     1
   1552   1572     1
   1553   1563     1
   1553   1564     1
   1553   1571     1
   1553   1572     1
   1554   1576     1
   1554   3187     1
   1555   1563     1
   1555   1564     1
   1555   3185     1
   1555   3186     1
   1556   1576     1
   1556   3213     1
   1557   1565     1
   1557   1566     1
   1557   3211     1
   1557   3212     1
   1558   1563     1
   1558   1564     1
   1558   1565     1
   1558   1566     1
   1558   1575     1
   1559   1576     1
   1560   1571     1
   1560   1572     1
   1561   1567     1
   1561   1568     1
   1561   3187     1
   1562   1569     1
   1562   1570     1
   1562   3213     1
   1563   1576     1
   1563   1567     1
   1563   1568     1
   1564   1576     1
   1564   1567     1
   1564   1568     1
   1565   1576     1
   1565   1569     1
   1565   1570     1
   1566   1576     1
   1566   1569     1
   1566   1570     1
   1567   3172     1
   1568   3172     1
   1569   3198     1
   1570   3198     1
   1571   1576     1
   1571   1573     1
   1571   1574     1
   1572   1576     1
   1572   1573     1
   1572   1574     1
   1573   1575     1
   1574   1575     1
   1577   1593     1
   1577   1594     1
   1577   1595     1
   1577   1596     1
   1577   1599     1
   1577   1600     1
   1578   1591     1
   1578   1592     1
   1578   1597     1
   1578   1598     1
   1579   1589     1
   1579   1590     1
   1579   1597     1
   1579   1598     1
   1580   1602     1
   1580   3239     1
   1581   1589     1
   1581   1590     1
   1581   3237     1
   1581   3238     1
   1582   1602     1
   1582   3265     1
   1583   1591     1
   1583   1592     1
   1583   3263     1
   1583   3264     1
   1584   1589     1
   1584   1590     1
   1584   1591     1
   1584   1592     1
   1584   1601     1
   1585   1602     1
   1586   1597     1
   1586   1598     1
   1587   1593     1
   1587   1594     1
   1587   3239     1
   1588   1595     1
   1588   1596     1
   1588   3265     1
   1589   1602     1
   1589   1593     1
   1589   1594     1
   1590   1602     1
   1590   1593     1
   1590   1594     1
   1591   1602     1
   1591   1595     1
   1591   1596     1
   1592   1602     1
   1592   1595     1
   1592   1596     1
   1593   3224     1
   1594   3224     1
   1595   3250     1
   1596   3250     1
   1597   1602     1
   1597   1599     1
   1597   1600     1
   1598   1602     1
   1598   1599     1
   1598   1600     1
   1599   1601     1
   1600   1601     1
   1603   1619     1
   1603   1620     1
   1603   1621     1
   1603   1622     1
   1603   1625     1
   1603   1626     1
   1604   1617     1
   1604   1618     1
   1604   1623     1
   1604   1624     1
   1605   1615     1
   1605   1616     1
   1605   1623     1
   1605   1624     1
   1606   1628     1
   1606   3268     1
   1607   1615     1
   1607   1616     1
   1607   3270     1
   1607   3272     1
   1608   1628     1
   1608   3342     1
   1609   1617     1
   1609   1618     1
   1609   3344     1
   1609   3346     1
   1610   1615     1
   1610   1616     1
   1610   1617     1
   1610   1618     1
   1610   1627     1
   1611   1628     1
   1612   1623     1
   1612   1624     1
   1613   1619     1
   1613   1620     1
   1613   3268     1
   1614   1621     1
   1614   1622     1
   1614   3342     1
   1615   1628     1
   1615   1619     1
   1615   1620     1
   1616   1628     1
   1616   1619     1
   1616   1620     1
   1617   1628     1
   1617   1621     1
   1617   1622     1
   1618   1628     1
   1618   1621     1
   1618   1622     1
   1619   3267     1
   1620   3267     1
   1621   3341     1
   1622   3341     1
   1623   1628     1
   1623   1625     1
   1623   1626     1
   1624   1628     1
   1624   1625     1
   1624   1626     1
   1625   1627     1
   1626   1627     1
   1629   1645     1
   1629   1646     1
   1629   1647     1
   1629   1648     1
   1629   1651     1
   1629   1652     1
   1630   1643     1
   1630   1644     1
   1630   1649     1
   1630   1650     1
   1631   1641     1
   1631   1642     1
   1631   1649     1
   1631   1650     1
   1632   1654     1
   1632   3416     1
   1633   1641     1
   1633   1642     1
   1633   3418     1
   1633   3420     1
   1634   1654     1
   1634   3490     1
   1635   1643     1
   1635   1644     1
   1635   3492     1
   1635   3494     1
   1636   1641     1
   1636   1642     1
   1636   1643     1
   1636   1644     1
   1636   1653     1
   1637   1654     1
   1638   1649     1
   1638   1650     1
   1639   1645     1
   1639   1646     1
   1639   3416     1
   1640   1647     1
   1640   1648     1
   1640   3490     1
   1641   1654     1
   1641   1645     1
   1641   1646     1
   1642   1654     1
   1642   1645     1
   1642   1646     1
   1643   1654     1
   1643   1647     1
   1643   1648     1
   1644   1654     1
   1644   1647     1
   1644   1648     1
   1645   3415     1
   1646   3415     1
   1647   3489     1
   1648   3489     1
   1649   1654     1
   1649   1651     1
   1649   1652     1
   1650   1654     1
   1650   1651     1
   1650   1652     1
   1651   1653     1
   1652   1653     1
   1655   1671     1
   1655   1672     1
   1655   1673     1
   1655   1674     1
   1655   1677     1
   1655   1678     1
   1656   1669     1
   1656   1670     1
   1656   1675     1
   1656   1676     1
   1657   1667     1
   1657   1668     1
   1657   1675     1
   1657   1676     1
   1658   1680     1
   1658   3564     1
   1659   1667     1
   1659   1668     1
   1659   3566     1
   1659   3568     1
   1660   1680     1
   1660   3638     1
   1661   1669     1
   1661   1670     1
   1661   3640     1
   1661   3642     1
   1662   1667     1
   1662   1668     1
   1662   1669     1
   1662   1670     1
   1662   1679     1
   1663   1680     1
   1664   1675     1
   1664   1676     1
   1665   1671     1
   1665   1672     1
   1665   3564     1
   1666   1673     1
   1666   1674     1
   1666   3638     1
   1667   1680     1
   1667   1671     1
   1667   1672     1
   1668   1680     1
   1668   1671     1
   1668   1672     1
   1669   1680     1
   1669   1673     1
   1669   1674     1
   1670   1680     1
   1670   1673     1
   1670   1674     1
   1671   3563     1
   1672   3563     1
   1673   3637     1
   1674   3637     1
   1675   1680     1
   1675   1677     1
   1675   1678     1
   1676   1680     1
   1676   1677     1
   1676   1678     1
   1677   1679     1
   1678   1679     1
   1681   1697     1
   1681   1698     1
   1681   1699     1
   1681   1700     1
   1681   1703     1
   1681   1704     1
   1682   1695     1
   1682   1696     1
   1682   1701     1
   1682   1702     1
   1683   1693     1
   1683   1694     1
   1683   1701     1
   1683   1702     1
   1684   1706     1
   1684   3712     1
   1685   1693     1
   1685   1694     1
   1685   3714     1
   1685   3716     1
   1686   1706     1
   1686   3786     1
   1687   1695     1
   1687   1696     1
   1687   3788     1
   1687   3790     1
   1688   1693     1
   1688   1694     1
   1688   1695     1
   1688   1696     1
   1688   1705     1
   1689   1706     1
   1690   1701     1
   1690   1702     1
   1691   1697     1
   1691   1698     1
   1691   3712     1
   1692   1699     1
   1692   1700     1
   1692   3786     1
   1693   1706     1
   1693   1697     1
   1693   1698     1
   1694   1706     1
   1694   1697     1
   1694   1698     1
   1695   1706     1
   1695   1699     1
   1695   1700     1
   1696   1706     1
   1696   1699     1
   1696   1700     1
   1697   3711     1
   1698   3711     1
   1699   3785     1
   1700   3785     1
   1701   1706     1
   1701   1703     1
   1701   1704     1
   1702   1706     1
   1702   1703     1
   1702   1704     1
   1703   1705     1
   1704   1705     1
   1707   1723     1
   1707   1724     1
   1707   1725     1
   1707   1726     1
   1707   1729     1
   1707   1730     1
   1708   1721     1
   1708   1722     1
   1708   1727     1
   1708   1728     1
   1709   1719     1
   1709   1720     1
   1709   1727     1
   1709   1728     1
   1710   1732     1
   1710   3860     1
   1711   1719     1
   1711   1720     1
   1711   3862     1
   1711   3864     1
   1712   1732     1
   1712   3934     1
   1713   1721     1
   1713   1722     1
   1713   3936     1
   1713   3938     1
   1714   1719     1
   1714   1720     1
   1714   1721     1
   1714   1722     1
   1714   1731     1
   1715   1732     1
   1716   1727     1
   1716   1728     1
   1717   1723     1
   1717   1724     1
   1717   3860     1
   1718   1725     1
   1718   1726     1
   1718   3934     1
   1719   1732     1
   1719   1723     1
   1719   1724     1
   1720   1732     1
   1720   1723     1
   1720   1724     1
   1721   1732     1
   1721   1725     1
   1721   1726     1
   1722   1732     1
   1722   1725     1
   1722   1726     1
   1723   3859     1
   1724   3859     1
   1725   3933     1
   1726   3933     1
   1727   1732     1
   1727   1729     1
   1727   1730     1
   1728   1732     1
   1728   1729     1
   1728   1730     1
   1729   1731     1
   1730   1731     1
   1733   1749     1
   1733   1750     1
   1733   1751     1
   1733   1752     1
   1733   1755     1
   1733   1756     1
   1734   1747     1
   1734   1748     1
   1734   1753     1
   1734   1754     1
   1735   1745     1
   1735   1746     1
   1735   1753     1
   1735   1754     1
   1736   1758     1
   1736   4008     1
   1737   1745     1
   1737   1746     1
   1737   4010     1
   1737   4012     1
   1738   1758     1
   1738   4082     1
   1739   1747     1
   1739   1748     1
   1739   4084     1
   1739   4086     1
   1740   1745     1
   1740   1746     1
   1740   1747     1
   1740   1748     1
   1740   1757     1
   1741   1758     1
   1742   1753     1
   1742   1754     1
   1743   1749     1
   1743   1750     1
   1743   4008     1
   1744   1751     1
   1744   1752     1
   1744   4082     1
   1745   1758     1
   1745   1749     1
   1745   1750     1
   1746   1758     1
   1746   1749     1
   1746   1750     1
   1747   1758     1
   1747   1751     1
   1747   1752     1
   1748   1758     1
   1748   1751     1
   1748   1752     1
   1749   4007     1
   1750   4007     1
   1751   4081     1
   1752   4081     1
   1753   1758     1
   1753   1755     1
   1753   1756     1
   1754   1758     1
   1754   1755     1
   1754   1756     1
   1755   1757     1
   1756   1757     1
   1759   1775     1
   1759   1776     1
   1759   1777     1
   1759   1778     1
   1759   1781     1
   1759   1782     1
   1760   1773     1
   1760   1774     1
   1760   1779     1
   1760   1780     1
   1761   1771     1
   1761   1772     1
   1761   1779     1
   1761   1780     1
   1762   1784     1
   1762   4156     1
   1763   1771     1
   1763   1772     1
   1763   4158     1
   1763   4160     1
   1764   1784     1
   1764   4230     1
   1765   1773     1
   1765   1774     1
   1765   4232     1
   1765   4234     1
   1766   1771     1
   1766   1772     1
   1766   1773     1
   1766   1774     1
   1766   1783     1
   1767   1784     1
   1768   1779     1
   1768   1780     1
   1769   1775     1
   1769   1776     1
   1769   4156     1
   1770   1777     1
   1770   1778     1
   1770   4230     1
   1771   1784     1
   1771   1775     1
   1771   1776     1
   1772   1784     1
   1772   1775     1
   1772   1776     1
   1773   1784     1
   1773   1777     1
   1773   1778     1
   1774   1784     1
   1774   1777     1
   1774   1778     1
   1775   4155     1
   1776   4155     1
   1777   4229     1
   1778   4229     1
   1779   1784     1
   1779   1781     1
   1779   1782     1
   1780   1784     1
   1780   1781     1
   1780   1782     1
   1781   1783     1
   1782   1783     1
   1785   1801     1
   1785   1802     1
   1785   1803     1
   1785   1804     1
   1785   1807     1
   1785   1808     1
   1786   1799     1
   1786   1800     1
   1786   1805     1
   1786   1806     1
   1787   1797     1
   1787   1798     1
   1787   1805     1
   1787   1806     1
   1788   1810     1
   1788   4304     1
   1789   1797     1
   1789   1798     1
   1789   4306     1
   1789   4308     1
   1790   1810     1
   1790   4378     1
   1791   1799     1
   1791   1800     1
   1791   4380     1
   1791   4382     1
   1792   1797     1
   1792   1798     1
   1792   1799     1
   1792   1800     1
   1792   1809     1
   1793   1810     1
   1794   1805     1
   1794   1806     1
   1795   1801     1
   1795   1802     1
   1795   4304     1
   1796   1803     1
   1796   1804     1
   1796   4378     1
   1797   1810     1
   1797   1801     1
   1797   1802     1
   1798   1810     1
   1798   1801     1
   1798   1802     1
   1799   1810     1
   1799   1803     1
   1799   1804     1
   1800   1810     1
   1800   1803     1
   1800   1804     1
   1801   4303     1
   1802   4303     1
   1803   4377     1
   1804   4377     1
   1805   1810     1
   1805   1807     1
   1805   1808     1
   1806   1810     1
   1806   1807     1
   1806   1808     1
   1807   1809     1
   1808   1809     1
   1811   1827     1
   1811   1828     1
   1811   1829     1
   1811   1830     1
   1811   1833     1
   1811   1834     1
   1812   1825     1
   1812   1826     1
   1812   1831     1
   1812   1832     1
   1813   1823     1
   1813   1824     1
   1813   1831     1
   1813   1832     1
   1814   1836     1
   1814   4452     1
   1815   1823     1
   1815   1824     1
   1815   4454     1
   1815   4456     1
   1816   1836     1
   1816   4526     1
   1817   1825     1
   1817   1826     1
   1817   4528     1
   1817   4530     1
   1818   1823     1
   1818   1824     1
   1818   1825     1
   1818   1826     1
   1818   1835     1
   1819   1836     1
   1820   1831     1
   1820   1832     1
   1821   1827     1
   1821   1828     1
   1821   4452     1
   1822   1829     1
   1822   1830     1
   1822   4526     1
   1823   1836     1
   1823   1827     1
   1823   1828     1
   1824   1836     1
   1824   1827     1
   1824   1828     1
   1825   1836     1
   1825   1829     1
   1825   1830     1
   1826   1836     1
   1826   1829     1
   1826   1830     1
   1827   4451     1
   1828   4451     1
   1829   4525     1
   1830   4525     1
   1831   1836     1
   1831   1833     1
   1831   1834     1
   1832   1836     1
   1832   1833     1
   1832   1834     1
   1833   1835     1
   1834   1835     1
   1837   1853     1
   1837   1854     1
   1837   1855     1
   1837   1856     1
   1837   1859     1
   1837   1860     1
   1838   1851     1
   1838   1852     1
   1838   1857     1
   1838   1858     1
   1839   1849     1
   1839   1850     1
   1839   1857     1
   1839   1858     1
   1840   1862     1
   1840   4600     1
   1841   1849     1
   1841   1850     1
   1841   4602     1
   1841   4604     1
   1842   1862     1
   1842   4674     1
   1843   1851     1
   1843   1852     1
   1843   4676     1
   1843   4678     1
   1844   1849     1
   1844   1850     1
   1844   1851     1
   1844   1852     1
   1844   1861     1
   1845   1862     1
   1846   1857     1
   1846   1858     1
   1847   1853     1
   1847   1854     1
   1847   4600     1
   1848   1855     1
   1848   1856     1
   1848   4674     1
   1849   1862     1
   1849   1853     1
   1849   1854     1
   1850   1862     1
   1850   1853     1
   1850   1854     1
   1851   1862     1
   1851   1855     1
   1851   1856     1
   1852   1862     1
   1852   1855     1
   1852   1856     1
   1853   4599     1
   1854   4599     1
   1855   4673     1
   1856   4673     1
   1857   1862     1
   1857   1859     1
   1857   1860     1
   1858   1862     1
   1858   1859     1
   1858   1860     1
   1859   1861     1
   1860   1861     1
   1863   1879     1
   1863   1880     1
   1863   1881     1
   1863   1882     1
   1863   1885     1
   1863   1886     1
   1864   1877     1
   1864   1878     1
   1864   1883     1
   1864   1884     1
   1865   1875     1
   1865   1876     1
   1865   1883     1
   1865   1884     1
   1866   1888     1
   1866   4748     1
   1867   1875     1
   1867   1876     1
   1867   4750     1
   1867   4752     1
   1868   1888     1
   1868   4822     1
   1869   1877     1
   1869   1878     1
   1869   4824     1
   1869   4826     1
   1870   1875     1
   1870   1876     1
   1870   1877     1
   1870   1878     1
   1870   1887     1
   1871   1888     1
   1872   1883     1
   1872   1884     1
   1873   1879     1
   1873   1880     1
   1873   4748     1
   1874   1881     1
   1874   1882     1
   1874   4822     1
   1875   1888     1
   1875   1879     1
   1875   1880     1
   1876   1888     1
   1876   1879     1
   1876   1880     1
   1877   1888     1
   1877   1881     1
   1877   1882     1
   1878   1888     1
   1878   1881     1
   1878   1882     1
   1879   4747     1
   1880   4747     1
   1881   4821     1
   1882   4821     1
   1883   1888     1
   1883   1885     1
   1883   1886     1
   1884   1888     1
   1884   1885     1
   1884   1886     1
   1885   1887     1
   1886   1887     1
   1889   1905     1
   1889   1906     1
   1889   1907     1
   1889   1908     1
   1889   1911     1
   1889   1912     1
   1890   1903     1
   1890   1904     1
   1890   1909     1
   1890   1910     1
   1891   1901     1
   1891   1902     1
   1891   1909     1
   1891   1910     1
   1892   1914     1
   1892   4896     1
   1893   1901     1
   1893   1902     1
   1893   4898     1
   1893   4900     1
   1894   1914     1
   1894   4970     1
   1895   1903     1
   1895   1904     1
   1895   4972     1
   1895   4974     1
   1896   1901     1
   1896   1902     1
   1896   1903     1
   1896   1904     1
   1896   1913     1
   1897   1914     1
   1898   1909     1
   1898   1910     1
   1899   1905     1
   1899   1906     1
   1899   4896     1
   1900   1907     1
   1900   1908     1
   1900   4970     1
   1901   1914     1
   1901   1905     1
   1901   1906     1
   1902   1914     1
   1902   1905     1
   1902   1906     1
   1903   1914     1
   1903   1907     1
   1903   1908     1
   1904   1914     1
   1904   1907     1
   1904   1908     1
   1905   4895     1
   1906   4895     1
   1907   4969     1
   1908   4969     1
   1909   1914     1
   1909   1911     1
   1909   1912     1
   1910   1914     1
   1910   1911     1
   1910   1912     1
   1911   1913     1
   1912   1913     1
   1915   1931     1
   1915   1932     1
   1915   1933     1
   1915   1934     1
   1915   1937     1
   1915   1938     1
   1916   1929     1
   1916   1930     1
   1916   1935     1
   1916   1936     1
   1917   1927     1
   1917   1928     1
   1917   1935     1
   1917   1936     1
   1918   1940     1
   1918   5044     1
   1919   1927     1
   1919   1928     1
   1919   5046     1
   1919   5048     1
   1920   1940     1
   1920   5118     1
   1921   1929     1
   1921   1930     1
   1921   5120     1
   1921   5122     1
   1922   1927     1
   1922   1928     1
   1922   1929     1
   1922   1930     1
   1922   1939     1
   1923   1940     1
   1924   1935     1
   1924   1936     1
   1925   1931     1
   1925   1932     1
   1925   5044     1
   1926   1933     1
   1926   1934     1
   1926   5118     1
   1927   1940     1
   1927   1931     1
   1927   1932     1
   1928   1940     1
   1928   1931     1
   1928   1932     1
   1929   1940     1
   1929   1933     1
   1929   1934     1
   1930   1940     1
   1930   1933     1
   1930   1934     1
   1931   5043     1
   1932   5043     1
   1933   5117     1
   1934   5117     1
   1935   1940     1
   1935   1937     1
   1935   1938     1
   1936   1940     1
   1936   1937     1
   1936   1938     1
   1937   1939     1
   1938   1939     1
   1941   1957     1
   1941   1958     1
   1941   1959     1
   1941   1960     1
   1941   1963     1
   1941   1964     1
   1942   1955     1
   1942   1956     1
   1942   1961     1
   1942   1962     1
   1943   1953     1
   1943   1954     1
   1943   1961     1
   1943   1962     1
   1944   1966     1
   1944   5192     1
   1945   1953     1
   1945   1954     1
   1945   5194     1
   1945   5196     1
   1946   1966     1
   1946   5266     1
   1947   1955     1
   1947   1956     1
   1947   5268     1
   1947   5270     1
   1948   1953     1
   1948   1954     1
   1948   1955     1
   1948   1956     1
   1948   1965     1
   1949   1966     1
   1950   1961     1
   1950   1962     1
   1951   1957     1
   1951   1958     1
   1951   5192     1
   1952   1959     1
   1952   1960     1
   1952   5266     1
   1953   1966     1
   1953   1957     1
   1953   1958     1
   1954   1966     1
   1954   1957     1
   1954   1958     1
   1955   1966     1
   1955   1959     1
   1955   1960     1
   1956   1966     1
   1956   1959     1
   1956   1960     1
   1957   5191     1
   1958   5191     1
   1959   5265     1
   1960   5265     1
   1961   1966     1
   1961   1963     1
   1961   1964     1
   1962   1966     1
   1962   1963     1
   1962   1964     1
   1963   1965     1
   1964   1965     1
   1967   1983     1
   1967   1984     1
   1967   1985     1
   1967   1986     1
   1967   1989     1
   1967   1990     1
   1968   1981     1
   1968   1982     1
   1968   1987     1
   1968   1988     1
   1969   1979     1
   1969   1980     1
   1969   1987     1
   1969   1988     1
   1970   1992     1
   1970   5340     1
   1971   1979     1
   1971   1980     1
   1971   5342     1
   1971   5344     1
   1972   1992     1
   1972   5414     1
   1973   1981     1
   1973   1982     1
   1973   5416     1
   1973   5418     1
   1974   1979     1
   1974   1980     1
   1974   1981     1
   1974   1982     1
   1974   1991     1
   1975   1992     1
   1976   1987     1
   1976   1988     1
   1977   1983     1
   1977   1984     1
   1977   5340     1
   1978   1985     1
   1978   1986     1
   1978   5414     1
   1979   1992     1
   1979   1983     1
   1979   1984     1
   1980   1992     1
   1980   1983     1
   1980   1984     1
   1981   1992     1
   1981   1985     1
   1981   1986     1
   1982   1992     1
   1982   1985     1
   1982   1986     1
   1983   5339     1
   1984   5339     1
   1985   5413     1
   1986   5413     1
   1987   1992     1
   1987   1989     1
   1987   1990     1
   1988   1992     1
   1988   1989     1
   1988   1990     1
   1989   1991     1
   1990   1991     1
   1993   2009     1
   1993   2010     1
   1993   2011     1
   1993   2012     1
   1993   2015     1
   1993   2016     1
   1994   2007     1
   1994   2008     1
   1994   2013     1
   1994   2014     1
   1995   2005     1
   1995   2006     1
   1995   2013     1
   1995   2014     1
   1996   2018     1
   1996   5488     1
   1997   2005     1
   1997   2006     1
   1997   5490     1
   1997   5492     1
   1998   2018     1
   1998   5562     1
   1999   2007     1
   1999   2008     1
   1999   5564     1
   1999   5566     1
   2000   2005     1
   2000   2006     1
   2000   2007     1
   2000   2008     1
   2000   2017     1
   2001   2018     1
   2002   2013     1
   2002   2014     1
   2003   2009     1
   2003   2010     1
   2003   5488     1
   2004   2011     1
   2004   2012     1
   2004   5562     1
   2005   2018     1
   2005   2009     1
   2005   2010     1
   2006   2018     1
   2006   2009     1
   2006   2010     1
   2007   2018     1
   2007   2011     1
   2007   2012     1
   2008   2018     1
   2008   2011     1
   2008   2012     1
   2009   5487     1
   2010   5487     1
   2011   5561     1
   2012   5561     1
   2013   2018     1
   2013   2015     1
   2013   2016     1
   2014   2018     1
   2014   2015     1
   2014   2016     1
   2015   2017     1
   2016   2017     1
   2019   2035     1
   2019   2036     1
   2019   2037     1
   2019   2038     1
   2019   2041     1
   2019   2042     1
   2020   2033     1
   2020   2034     1
   2020   2039     1
   2020   2040     1
   2021   2031     1
   2021   2032     1
   2021   2039     1
   2021   2040     1
   2022   2044     1
   2022   5636     1
   2023   2031     1
   2023   2032     1
   2023   5638     1
   2023   5640     1
   2024   2044     1
   2024   5710     1
   2025   2033     1
   2025   2034     1
   2025   5712     1
   2025   5714     1
   2026   2031     1
   2026   2032     1
   2026   2033     1
   2026   2034     1
   2026   2043     1
   2027   2044     1
   2028   2039     1
   2028   2040     1
   2029   2035     1
   2029   2036     1
   2029   5636     1
   2030   2037     1
   2030   2038     1
   2030   5710     1
   2031   2044     1
   2031   2035     1
   2031   2036     1
   2032   2044     1
   2032   2035     1
   2032   2036     1
   2033   2044     1
   2033   2037     1
   2033   2038     1
   2034   2044     1
   2034   2037     1
   2034   2038     1
   2035   5635     1
   2036   5635     1
   2037   5709     1
   2038   5709     1
   2039   2044     1
   2039   2041     1
   2039   2042     1
   2040   2044     1
   2040   2041     1
   2040   2042     1
   2041   2043     1
   2042   2043     1
   2045   2061     1
   2045   2062     1
   2045   2063     1
   2045   2064     1
   2045   2067     1
   2045   2068     1
   2046   2059     1
   2046   2060     1
   2046   2065     1
   2046   2066     1
   2047   2057     1
   2047   2058     1
   2047   2065     1
   2047   2066     1
   2048   2070     1
   2048   5784     1
   2049   2057     1
   2049   2058     1
   2049   5786     1
   2049   5788     1
   2050   2070     1
   2050   5858     1
   2051   2059     1
   2051   2060     1
   2051   5860     1
   2051   5862     1
   2052   2057     1
   2052   2058     1
   2052   2059     1
   2052   2060     1
   2052   2069     1
   2053   2070     1
   2054   2065     1
   2054   2066     1
   2055   2061     1
   2055   2062     1
   2055   5784     1
   2056   2063     1
   2056   2064     1
   2056   5858     1
   2057   2070     1
   2057   2061     1
   2057   2062     1
   2058   2070     1
   2058   2061     1
   2058   2062     1
   2059   2070     1
   2059   2063     1
   2059   2064     1
   2060   2070     1
   2060   2063     1
   2060   2064     1
   2061   5783     1
   2062   5783     1
   2063   5857     1
   2064   5857     1
   2065   2070     1
   2065   2067     1
   2065   2068     1
   2066   2070     1
   2066   2067     1
   2066   2068     1
   2067   2069     1
   2068   2069     1
   2071   2087     1
   2071   2088     1
   2071   2089     1
   2071   2090     1
   2071   2093     1
   2071   2094     1
   2072   2085     1
   2072   2086     1
   2072   2091     1
   2072   2092     1
   2073   2083     1
   2073   2084     1
   2073   2091     1
   2073   2092     1
   2074   2096     1
   2074   5932     1
   2075   2083     1
   2075   2084     1
   2075   5934     1
   2075   5936     1
   2076   2096     1
   2076   6006     1
   2077   2085     1
   2077   2086     1
   2077   6008     1
   2077   6010     1
   2078   2083     1
   2078   2084     1
   2078   2085     1
   2078   2086     1
   2078   2095     1
   2079   2096     1
   2080   2091     1
   2080   2092     1
   2081   2087     1
   2081   2088     1
   2081   5932     1
   2082   2089     1
   2082   2090     1
   2082   6006     1
   2083   2096     1
   2083   2087     1
   2083   2088     1
   2084   2096     1
   2084   2087     1
   2084   2088     1
   2085   2096     1
   2085   2089     1
   2085   2090     1
   2086   2096     1
   2086   2089     1
   2086   2090     1
   2087   5931     1
   2088   5931     1
   2089   6005     1
   2090   6005     1
   2091   2096     1
   2091   2093     1
   2091   2094     1
   2092   2096     1
   2092   2093     1
   2092   2094     1
   2093   2095     1
   2094   2095     1
   2097   2113     1
   2097   2114     1
   2097   2115     1
   2097   2116     1
   2097   2119     1
   2097   2120     1
   2098   2111     1
   2098   2112     1
   2098   2117     1
   2098   2118     1
   2099   2109     1
   2099   2110     1
   2099   2117     1
   2099   2118     1
   2100   2122     1
   2100   6080     1
   2101   2109     1
   2101   2110     1
   2101   6082     1
   2101   6084     1
   2102   2122     1
   2102   6154     1
   2103   2111     1
   2103   2112     1
   2103   6156     1
   2103   6158     1
   2104   2109     1
   2104   2110     1
   2104   2111     1
   2104   2112     1
   2104   2121     1
   2105   2122     1
   2106   2117     1
   2106   2118     1
   2107   2113     1
   2107   2114     1
   2107   6080     1
   2108   2115     1
   2108   2116     1
   2108   6154     1
   2109   2122     1
   2109   2113     1
   2109   2114     1
   2110   2122     1
   2110   2113     1
   2110   2114     1
   2111   2122     1
   2111   2115     1
   2111   2116     1
   2112   2122     1
   2112   2115     1
   2112   2116     1
   2113   6079     1
   2114   6079     1
   2115   6153     1
   2116   6153     1
   2117   2122     1
   2117   2119     1
   2117   2120     1
   2118   2122     1
   2118   2119     1
   2118   2120     1
   2119   2121     1
   2120   2121     1
   2123   2139     1
   2123   2140     1
   2123   2141     1
   2123   2142     1
   2123   2145     1
   2123   2146     1
   2124   2137     1
   2124   2138     1
   2124   2143     1
   2124   2144     1
   2125   2135     1
   2125   2136     1
   2125   2143     1
   2125   2144     1
   2126   2148     1
   2126   6228     1
   2127   2135     1
   2127   2136     1
   2127   6230     1
   2127   6232     1
   2128   2148     1
   2128   6302     1
   2129   2137     1
   2129   2138     1
   2129   6304     1
   2129   6306     1
   2130   2135     1
   2130   2136     1
   2130   2137     1
   2130   2138     1
   2130   2147     1
   2131   2148     1
   2132   2143     1
   2132   2144     1
   2133   2139     1
   2133   2140     1
   2133   6228     1
   2134   2141     1
   2134   2142     1
   2134   6302     1
   2135   2148     1
   2135   2139     1
   2135   2140     1
   2136   2148     1
   2136   2139     1
   2136   2140     1
   2137   2148     1
   2137   2141     1
   2137   2142     1
   2138   2148     1
   2138   2141     1
   2138   2142     1
   2139   6227     1
   2140   6227     1
   2141   6301     1
   2142   6301     1
   2143   2148     1
   2143   2145     1
   2143   2146     1
   2144   2148     1
   2144   2145     1
   2144   2146     1
   2145   2147     1
   2146   2147     1
   2149   2165     1
   2149   2166     1
   2149   2167     1
   2149   2168     1
   2149   2171     1
   2149   2172     1
   2150   2163     1
   2150   2164     1
   2150   2169     1
   2150   2170     1
   2151   2161     1
   2151   2162     1
   2151   2169     1
   2151   2170     1
   2152   2174     1
   2152   6376     1
   2153   2161     1
   2153   2162     1
   2153   6378     1
   2153   6380     1
   2154   2174     1
   2154   6450     1
   2155   2163     1
   2155   2164     1
   2155   6452     1
   2155   6454     1
   2156   2161     1
   2156   2162     1
   2156   2163     1
   2156   2164     1
   2156   2173     1
   2157   2174     1
   2158   2169     1
   2158   2170     1
   2159   2165     1
   2159   2166     1
   2159   6376     1
   2160   2167     1
   2160   2168     1
   2160   6450     1
   2161   2174     1
   2161   2165     1
   2161   2166     1
   2162   2174     1
   2162   2165     1
   2162   2166     1
   2163   2174     1
   2163   2167     1
   2163   2168     1
   2164   2174     1
   2164   2167     1
   2164   2168     1
   2165   6375     1
   2166   6375     1
   2167   6449     1
   2168   6449     1
   2169   2174     1
   2169   2171     1
   2169   2172     1
   2170   2174     1
   2170   2171     1
   2170   2172     1
   2171   2173     1
   2172   2173     1
   2175   2191     1
   2175   2192     1
   2175   2193     1
   2175   2194     1
   2175   2197     1
   2175   2198     1
   2176   2189     1
   2176   2190     1
   2176   2195     1
   2176   2196     1
   2177   2187     1
   2177   2188     1
   2177   2195     1
   2177   2196     1
   2178   2200     1
   2178   6524     1
   2179   2187     1
   2179   2188     1
   2179   6526     1
   2179   6528     1
   2180   2200     1
   2180   6598     1
   2181   2189     1
   2181   2190     1
   2181   6600     1
   2181   6602     1
   2182   2187     1
   2182   2188     1
   2182   2189     1
   2182   2190     1
   2182   2199     1
   2183   2200     1
   2184   2195     1
   2184   2196     1
   2185   2191     1
   2185   2192     1
   2185   6524     1
   2186   2193     1
   2186   2194     1
   2186   6598     1
   2187   2200     1
   2187   2191     1
   2187   2192     1
   2188   2200     1
   2188   2191     1
   2188   2192     1
   2189   2200     1
   2189   2193     1
   2189   2194     1
   2190   2200     1
   2190   2193     1
   2190   2194     1
   2191   6523     1
   2192   6523     1
   2193   6597     1
   2194   6597     1
   2195   2200     1
   2195   2197     1
   2195   2198     1
   2196   2200     1
   2196   2197     1
   2196   2198     1
   2197   2199     1
   2198   2199     1
   2201   2217     1
   2201   2218     1
   2201   2219     1
   2201   2220     1
   2201   2223     1
   2201   2224     1
   2202   2215     1
   2202   2216     1
   2202   2221     1
   2202   2222     1
   2203   2213     1
   2203   2214     1
   2203   2221     1
   2203   2222     1
   2204   2226     1
   2204   6672     1
   2205   2213     1
   2205   2214     1
   2205   6674     1
   2205   6676     1
   2206   2226     1
   2206   6746     1
   2207   2215     1
   2207   2216     1
   2207   6748     1
   2207   6750     1
   2208   2213     1
   2208   2214     1
   2208   2215     1
   2208   2216     1
   2208   2225     1
   2209   2226     1
   2210   2221     1
   2210   2222     1
   2211   2217     1
   2211   2218     1
   2211   6672     1
   2212   2219     1
   2212   2220     1
   2212   6746     1
   2213   2226     1
   2213   2217     1
   2213   2218     1
   2214   2226     1
   2214   2217     1
   2214   2218     1
   2215   2226     1
   2215   2219     1
   2215   2220     1
   2216   2226     1
   2216   2219     1
   2216   2220     1
   2217   6671     1
   2218   6671     1
   2219   6745     1
   2220   6745     1
   2221   2226     1
   2221   2223     1
   2221   2224     1
   2222   2226     1
   2222   2223     1
   2222   2224     1
   2223   2225     1
   2224   2225     1
   2227   2243     1
   2227   2244     1
   2227   2245     1
   2227   2246     1
   2227   2249     1
   2227   2250     1
   2228   2241     1
   2228   2242     1
   2228   2247     1
   2228   2248     1
   2229   2239     1
   2229   2240     1
   2229   2247     1
   2229   2248     1
   2230   2252     1
   2230   6820     1
   2231   2239     1
   2231   2240     1
   2231   6822     1
   2231   6824     1
   2232   2252     1
   2232   6894     1
   2233   2241     1
   2233   2242     1
   2233   6896     1
   2233   6898     1
   2234   2239     1
   2234   2240     1
   2234   2241     1
   2234   2242     1
   2234   2251     1
   2235   2252     1
   2236   2247     1
   2236   2248     1
   2237   2243     1
   2237   2244     1
   2237   6820     1
   2238   2245     1
   2238   2246     1
   2238   6894     1
   2239   2252     1
   2239   2243     1
   2239   2244     1
   2240   2252     1
   2240   2243     1
   2240   2244     1
   2241   2252     1
   2241   2245     1
   2241   2246     1
   2242   2252     1
   2242   2245     1
   2242   2246     1
   2243   6819     1
   2244   6819     1
   2245   6893     1
   2246   6893     1
   2247   2252     1
   2247   2249     1
   2247   2250     1
   2248   2252     1
   2248   2249     1
   2248   2250     1
   2249   2251     1
   2250   2251     1
   2253   2269     1
   2253   2270     1
   2253   2271     1
   2253   2272     1
   2253   2275     1
   2253   2276     1
   2254   2267     1
   2254   2268     1
   2254   2273     1
   2254   2274     1
   2255   2265     1
   2255   2266     1
   2255   2273     1
   2255   2274     1
   2256   2278     1
   2256   6968     1
   2257   2265     1
   2257   2266     1
   2257   6970     1
   2257   6972     1
   2258   2278     1
   2258   7042     1
   2259   2267     1
   2259   2268     1
   2259   7044     1
   2259   7046     1
   2260   2265     1
   2260   2266     1
   2260   2267     1
   2260   2268     1
   2260   2277     1
   2261   2278     1
   2262   2273     1
   2262   2274     1
   2263   2269     1
   2263   2270     1
   2263   6968     1
   2264   2271     1
   2264   2272     1
   2264   7042     1
   2265   2278     1
   2265   2269     1
   2265   2270     1
   2266   2278     1
   2266   2269     1
   2266   2270     1
   2267   2278     1
   2267   2271     1
   2267   2272     1
   2268   2278     1
   2268   2271     1
   2268   2272     1
   2269   6967     1
   2270   6967     1
   2271   7041     1
   2272   7041     1
   2273   2278     1
   2273   2275     1
   2273   2276     1
   2274   2278     1
   2274   2275     1
   2274   2276     1
   2275   2277     1
   2276   2277     1
   2279   2295     1
   2279   2296     1
   2279   2297     1
   2279   2298     1
   2279   2301     1
   2279   2302     1
   2280   2293     1
   2280   2294     1
   2280   2299     1
   2280   2300     1
   2281   2291     1
   2281   2292     1
   2281   2299     1
   2281   2300     1
   2282   2304     1
   2282   7116     1
   2283   2291     1
   2283   2292     1
   2283   7118     1
   2283   7120     1
   2284   2304     1
   2284   7190     1
   2285   2293     1
   2285   2294     1
   2285   7192     1
   2285   7194     1
   2286   2291     1
   2286   2292     1
   2286   2293     1
   2286   2294     1
   2286   2303     1
   2287   2304     1
   2288   2299     1
   2288   2300     1
   2289   2295     1
   2289   2296     1
   2289   7116     1
   2290   2297     1
   2290   2298     1
   2290   7190     1
   2291   2304     1
   2291   2295     1
   2291   2296     1
   2292   2304     1
   2292   2295     1
   2292   2296     1
   2293   2304     1
   2293   2297     1
   2293   2298     1
   2294   2304     1
   2294   2297     1
   2294   2298     1
   2295   7115     1
   2296   7115     1
   2297   7189     1
   2298   7189     1
   2299   2304     1
   2299   2301     1
   2299   2302     1
   2300   2304     1
   2300   2301     1
   2300   2302     1
   2301   2303     1
   2302   2303     1
   2305   2321     1
   2305   2322     1
   2305   2323     1
   2305   2324     1
   2305   2327     1
   2305   2328     1
   2306   2319     1
   2306   2320     1
   2306   2325     1
   2306   2326     1
   2307   2317     1
   2307   2318     1
   2307   2325     1
   2307   2326     1
   2308   2330     1
   2308   7264     1
   2309   2317     1
   2309   2318     1
   2309   7266     1
   2309   7268     1
   2310   2330     1
   2310   7338     1
   2311   2319     1
   2311   2320     1
   2311   7340     1
   2311   7342     1
   2312   2317     1
   2312   2318     1
   2312   2319     1
   2312   2320     1
   2312   2329     1
   2313   2330     1
   2314   2325     1
   2314   2326     1
   2315   2321     1
   2315   2322     1
   2315   7264     1
   2316   2323     1
   2316   2324     1
   2316   7338     1
   2317   2330     1
   2317   2321     1
   2317   2322     1
   2318   2330     1
   2318   2321     1
   2318   2322     1
   2319   2330     1
   2319   2323     1
   2319   2324     1
   2320   2330     1
   2320   2323     1
   2320   2324     1
   2321   7263     1
   2322   7263     1
   2323   7337     1
   2324   7337     1
   2325   2330     1
   2325   2327     1
   2325   2328     1
   2326   2330     1
   2326   2327     1
   2326   2328     1
   2327   2329     1
   2328   2329     1
   2331   2347     1
   2331   2348     1
   2331   2349     1
   2331   2350     1
   2331   2353     1
   2331   2354     1
   2332   2345     1
   2332   2346     1
   2332   2351     1
   2332   2352     1
   2333   2343     1
   2333   2344     1
   2333   2351     1
   2333   2352     1
   2334   2356     1
   2334   7412     1
   2335   2343     1
   2335   2344     1
   2335   7414     1
   2335   7416     1
   2336   2356     1
   2336   7486     1
   2337   2345     1
   2337   2346     1
   2337   7488     1
   2337   7490     1
   2338   2343     1
   2338   2344     1
   2338   2345     1
   2338   2346     1
   2338   2355     1
   2339   2356     1
   2340   2351     1
   2340   2352     1
   2341   2347     1
   2341   2348     1
   2341   7412     1
   2342   2349     1
   2342   2350     1
   2342   7486     1
   2343   2356     1
   2343   2347     1
   2343   2348     1
   2344   2356     1
   2344   2347     1
   2344   2348     1
   2345   2356     1
   2345   2349     1
   2345   2350     1
   2346   2356     1
   2346   2349     1
   2346   2350     1
   2347   7411     1
   2348   7411     1
   2349   7485     1
   2350   7485     1
   2351   2356     1
   2351   2353     1
   2351   2354     1
   2352   2356     1
   2352   2353     1
   2352   2354     1
   2353   2355     1
   2354   2355     1
   2357   2373     1
   2357   2374     1
   2357   2375     1
   2357   2376     1
   2357   2379     1
   2357   2380     1
   2358   2371     1
   2358   2372     1
   2358   2377     1
   2358   2378     1
   2359   2369     1
   2359   2370     1
   2359   2377     1
   2359   2378     1
   2360   2382     1
   2360   7560     1
   2361   2369     1
   2361   2370     1
   2361   7562     1
   2361   7564     1
   2362   2382     1
   2362   7634     1
   2363   2371     1
   2363   2372     1
   2363   7636     1
   2363   7638     1
   2364   2369     1
   2364   2370     1
   2364   2371     1
   2364   2372     1
   2364   2381     1
   2365   2382     1
   2366   2377     1
   2366   2378     1
   2367   2373     1
   2367   2374     1
   2367   7560     1
   2368   2375     1
   2368   2376     1
   2368   7634     1
   2369   2382     1
   2369   2373     1
   2369   2374     1
   2370   2382     1
   2370   2373     1
   2370   2374     1
   2371   2382     1
   2371   2375     1
   2371   2376     1
   2372   2382     1
   2372   2375     1
   2372   2376     1
   2373   7559     1
   2374   7559     1
   2375   7633     1
   2376   7633     1
   2377   2382     1
   2377   2379     1
   2377   2380     1
   2378   2382     1
   2378   2379     1
   2378   2380     1
   2379   2381     1
   2380   2381     1
   2383   2399     1
   2383   2400     1
   2383   2401     1
   2383   2402     1
   2383   2405     1
   2383   2406     1
   2384   2397     1
   2384   2398     1
   2384   2403     1
   2384   2404     1
   2385   2395     1
   2385   2396     1
   2385   2403     1
   2385   2404     1
   2386   2408     1
   2386   7708     1
   2387   2395     1
   2387   2396     1
   2387   7710     1
   2387   7712     1
   2388   2408     1
   2388   7782     1
   2389   2397     1
   2389   2398     1
   2389   7784     1
   2389   7786     1
   2390   2395     1
   2390   2396     1
   2390   2397     1
   2390   2398     1
   2390   2407     1
   2391   2408     1
   2392   2403     1
   2392   2404     1
   2393   2399     1
   2393   2400     1
   2393   7708     1
   2394   2401     1
   2394   2402     1
   2394   7782     1
   2395   2408     1
   2395   2399     1
   2395   2400     1
   2396   2408     1
   2396   2399     1
   2396   2400     1
   2397   2408     1
   2397   2401     1
   2397   2402     1
   2398   2408     1
   2398   2401     1
   2398   2402     1
   2399   7707     1
   2400   7707     1
   2401   7781     1
   2402   7781     1
   2403   2408     1
   2403   2405     1
   2403   2406     1
   2404   2408     1
   2404   2405     1
   2404   2406     1
   2405   2407     1
   2406   2407     1
   2409   2425     1
   2409   2426     1
   2409   2427     1
   2409   2428     1
   2409   2431     1
   2409   2432     1
   2410   2423     1
   2410   2424     1
   2410   2429     1
   2410   2430     1
   2411   2421     1
   2411   2422     1
   2411   2429     1
   2411   2430     1
   2412   2434     1
   2412   7856     1
   2413   2421     1
   2413   2422     1
   2413   7858     1
   2413   7860     1
   2414   2434     1
   2414   7930     1
   2415   2423     1
   2415   2424     1
   2415   7932     1
   2415   7934     1
   2416   2421     1
   2416   2422     1
   2416   2423     1
   2416   2424     1
   2416   2433     1
   2417   2434     1
   2418   2429     1
   2418   2430     1
   2419   2425     1
   2419   2426     1
   2419   7856     1
   2420   2427     1
   2420   2428     1
   2420   7930     1
   2421   2434     1
   2421   2425     1
   2421   2426     1
   2422   2434     1
   2422   2425     1
   2422   2426     1
   2423   2434     1
   2423   2427     1
   2423   2428     1
   2424   2434     1
   2424   2427     1
   2424   2428     1
   2425   7855     1
   2426   7855     1
   2427   7929     1
   2428   7929     1
   2429   2434     1
   2429   2431     1
   2429   2432     1
   2430   2434     1
   2430   2431     1
   2430   2432     1
   2431   2433     1
   2432   2433     1
   2435   2451     1
   2435   2452     1
   2435   2453     1
   2435   2454     1
   2435   2457     1
   2435   2458     1
   2436   2449     1
   2436   2450     1
   2436   2455     1
   2436   2456     1
   2437   2447     1
   2437   2448     1
   2437   2455     1
   2437   2456     1
   2438   2460     1
   2438   8004     1
   2439   2447     1
   2439   2448     1
   2439   8006     1
   2439   8008     1
   2440   2460     1
   2440   8078     1
   2441   2449     1
   2441   2450     1
   2441   8080     1
   2441   8082     1
   2442   2447     1
   2442   2448     1
   2442   2449     1
   2442   2450     1
   2442   2459     1
   2443   2460     1
   2444   2455     1
   2444   2456     1
   2445   2451     1
   2445   2452     1
   2445   8004     1
   2446   2453     1
   2446   2454     1
   2446   8078     1
   2447   2460     1
   2447   2451     1
   2447   2452     1
   2448   2460     1
   2448   2451     1
   2448   2452     1
   2449   2460     1
   2449   2453     1
   2449   2454     1
   2450   2460     1
   2450   2453     1
   2450   2454     1
   2451   8003     1
   2452   8003     1
   2453   8077     1
   2454   8077     1
   2455   2460     1
   2455   2457     1
   2455   2458     1
   2456   2460     1
   2456   2457     1
   2456   2458     1
   2457   2459     1
   2458   2459     1
   2461   2477     1
   2461   2478     1
   2461   2479     1
   2461   2480     1
   2461   2483     1
   2461   2484     1
   2462   2475     1
   2462   2476     1
   2462   2481     1
   2462   2482     1
   2463   2473     1
   2463   2474     1
   2463   2481     1
   2463   2482     1
   2464   2486     1
   2464   8152     1
   2465   2473     1
   2465   2474     1
   2465   8154     1
   2465   8156     1
   2466   2486     1
   2466   8226     1
   2467   2475     1
   2467   2476     1
   2467   8228     1
   2467   8230     1
   2468   2473     1
   2468   2474     1
   2468   2475     1
   2468   2476     1
   2468   2485     1
   2469   2486     1
   2470   2481     1
   2470   2482     1
   2471   2477     1
   2471   2478     1
   2471   8152     1
   2472   2479     1
   2472   2480     1
   2472   8226     1
   2473   2486     1
   2473   2477     1
   2473   2478     1
   2474   2486     1
   2474   2477     1
   2474   2478     1
   2475   2486     1
   2475   2479     1
   2475   2480     1
   2476   2486     1
   2476   2479     1
   2476   2480     1
   2477   8151     1
   2478   8151     1
   2479   8225     1
   2480   8225     1
   2481   2486     1
   2481   2483     1
   2481   2484     1
   2482   2486     1
   2482   2483     1
   2482   2484     1
   2483   2485     1
   2484   2485     1
   2487   2503     1
   2487   2504     1
   2487   2505     1
   2487   2506     1
   2487   2509     1
   2487   2510     1
   2488   2501     1
   2488   2502     1
   2488   2507     1
   2488   2508     1
   2489   2499     1
   2489   2500     1
   2489   2507     1
   2489   2508     1
   2490   2512     1
   2490   8300     1
   2491   2499     1
   2491   2500     1
   2491   8302     1
   2491   8304     1
   2492   2512     1
   2492   8374     1
   2493   2501     1
   2493   2502     1
   2493   8376     1
   2493   8378     1
   2494   2499     1
   2494   2500     1
   2494   2501     1
   2494   2502     1
   2494   2511     1
   2495   2512     1
   2496   2507     1
   2496   2508     1
   2497   2503     1
   2497   2504     1
   2497   8300     1
   2498   2505     1
   2498   2506     1
   2498   8374     1
   2499   2512     1
   2499   2503     1
   2499   2504     1
   2500   2512     1
   2500   2503     1
   2500   2504     1
   2501   2512     1
   2501   2505     1
   2501   2506     1
   2502   2512     1
   2502   2505     1
   2502   2506     1
   2503   8299     1
   2504   8299     1
   2505   8373     1
   2506   8373     1
   2507   2512     1
   2507   2509     1
   2507   2510     1
   2508   2512     1
   2508   2509     1
   2508   2510     1
   2509   2511     1
   2510   2511     1
   2513   2529     1
   2513   2530     1
   2513   2531     1
   2513   2532     1
   2513   2535     1
   2513   2536     1
   2514   2527     1
   2514   2528     1
   2514   2533     1
   2514   2534     1
   2515   2525     1
   2515   2526     1
   2515   2533     1
   2515   2534     1
   2516   2538     1
   2516   8448     1
   2517   2525     1
   2517   2526     1
   2517   8450     1
   2517   8452     1
   2518   2538     1
   2518   8522     1
   2519   2527     1
   2519   2528     1
   2519   8524     1
   2519   8526     1
   2520   2525     1
   2520   2526     1
   2520   2527     1
   2520   2528     1
   2520   2537     1
   2521   2538     1
   2522   2533     1
   2522   2534     1
   2523   2529     1
   2523   2530     1
   2523   8448     1
   2524   2531     1
   2524   2532     1
   2524   8522     1
   2525   2538     1
   2525   2529     1
   2525   2530     1
   2526   2538     1
   2526   2529     1
   2526   2530     1
   2527   2538     1
   2527   2531     1
   2527   2532     1
   2528   2538     1
   2528   2531     1
   2528   2532     1
   2529   8447     1
   2530   8447     1
   2531   8521     1
   2532   8521     1
   2533   2538     1
   2533   2535     1
   2533   2536     1
   2534   2538     1
   2534   2535     1
   2534   2536     1
   2535   2537     1
   2536   2537     1
   2539   2555     1
   2539   2556     1
   2539   2557     1
   2539   2558     1
   2539   2561     1
   2539   2562     1
   2540   2553     1
   2540   2554     1
   2540   2559     1
   2540   2560     1
   2541   2551     1
   2541   2552     1
   2541   2559     1
   2541   2560     1
   2542   2564     1
   2542   8596     1
   2543   2551     1
   2543   2552     1
   2543   8598     1
   2543   8600     1
   2544   2564     1
   2544   8670     1
   2545   2553     1
   2545   2554     1
   2545   8672     1
   2545   8674     1
   2546   2551     1
   2546   2552     1
   2546   2553     1
   2546   2554     1
   2546   2563     1
   2547   2564     1
   2548   2559     1
   2548   2560     1
   2549   2555     1
   2549   2556     1
   2549   8596     1
   2550   2557     1
   2550   2558     1
   2550   8670     1
   2551   2564     1
   2551   2555     1
   2551   2556     1
   2552   2564     1
   2552   2555     1
   2552   2556     1
   2553   2564     1
   2553   2557     1
   2553   2558     1
   2554   2564     1
   2554   2557     1
   2554   2558     1
   2555   8595     1
   2556   8595     1
   2557   8669     1
   2558   8669     1
   2559   2564     1
   2559   2561     1
   2559   2562     1
   2560   2564     1
   2560   2561     1
   2560   2562     1
   2561   2563     1
   2562   2563     1
   2565   2581     1
   2565   2582     1
   2565   2583     1
   2565   2584     1
   2565   2587     1
   2565   2588     1
   2566   2579     1
   2566   2580     1
   2566   2585     1
   2566   2586     1
   2567   2577     1
   2567   2578     1
   2567   2585     1
   2567   2586     1
   2568   2590     1
   2568   8744     1
   2569   2577     1
   2569   2578     1
   2569   8746     1
   2569   8748     1
   2570   2590     1
   2570   8818     1
   2571   2579     1
   2571   2580     1
   2571   8820     1
   2571   8822     1
   2572   2577     1
   2572   2578     1
   2572   2579     1
   2572   2580     1
   2572   2589     1
   2573   2590     1
   2574   2585     1
   2574   2586     1
   2575   2581     1
   2575   2582     1
   2575   8744     1
   2576   2583     1
   2576   2584     1
   2576   8818     1
   2577   2590     1
   2577   2581     1
   2577   2582     1
   2578   2590     1
   2578   2581     1
   2578   2582     1
   2579   2590     1
   2579   2583     1
   2579   2584     1
   2580   2590     1
   2580   2583     1
   2580   2584     1
   2581   8743     1
   2582   8743     1
   2583   8817     1
   2584   8817     1
   2585   2590     1
   2585   2587     1
   2585   2588     1
   2586   2590     1
   2586   2587     1
   2586   2588     1
   2587   2589     1
   2588   2589     1
   2591   2607     1
   2591   2608     1
   2591   2609     1
   2591   2610     1
   2591   2613     1
   2591   2614     1
   2592   2605     1
   2592   2606     1
   2592   2611     1
   2592   2612     1
   2593   2603     1
   2593   2604     1
   2593   2611     1
   2593   2612     1
   2594   2616     1
   2594   8892     1
   2595   2603     1
   2595   2604     1
   2595   8894     1
   2595   8896     1
   2596   2616     1
   2596   8966     1
   2597   2605     1
   2597   2606     1
   2597   8968     1
   2597   8970     1
   2598   2603     1
   2598   2604     1
   2598   2605     1
   2598   2606     1
   2598   2615     1
   2599   2616     1
   2600   2611     1
   2600   2612     1
   2601   2607     1
   2601   2608     1
   2601   8892     1
   2602   2609     1
   2602   2610     1
   2602   8966     1
   2603   2616     1
   2603   2607     1
   2603   2608     1
   2604   2616     1
   2604   2607     1
   2604   2608     1
   2605   2616     1
   2605   2609     1
   2605   2610     1
   2606   2616     1
   2606   2609     1
   2606   2610     1
   2607   8891     1
   2608   8891     1
   2609   8965     1
   2610   8965     1
   2611   2616     1
   2611   2613     1
   2611   2614     1
   2612   2616     1
   2612   2613     1
   2612   2614     1
   2613   2615     1
   2614   2615     1
   2617   2633     1
   2617   2634     1
   2617   2635     1
   2617   2636     1
   2617   2639     1
   2617   2640     1
   2618   2631     1
   2618   2632     1
   2618   2637     1
   2618   2638     1
   2619   2629     1
   2619   2630     1
   2619   2637     1
   2619   2638     1
   2620   2642     1
   2620   9040     1
   2621   2629     1
   2621   2630     1
   2621   9042     1
   2621   9044     1
   2622   2642     1
   2622   9114     1
   2623   2631     1
   2623   2632     1
   2623   9116     1
   2623   9118     1
   2624   2629     1
   2624   2630     1
   2624   2631     1
   2624   2632     1
   2624   2641     1
   2625   2642     1
   2626   2637     1
   2626   2638     1
   2627   2633     1
   2627   2634     1
   2627   9040     1
   2628   2635     1
   2628   2636     1
   2628   9114     1
   2629   2642     1
   2629   2633     1
   2629   2634     1
   2630   2642     1
   2630   2633     1
   2630   2634     1
   2631   2642     1
   2631   2635     1
   2631   2636     1
   2632   2642     1
   2632   2635     1
   2632   2636     1
   2633   9039     1
   2634   9039     1
   2635   9113     1
   2636   9113     1
   2637   2642     1
   2637   2639     1
   2637   2640     1
   2638   2642     1
   2638   2639     1
   2638   2640     1
   2639   2641     1
   2640   2641     1
   2643   2659     1
   2643   2660     1
   2643   2661     1
   2643   2662     1
   2643   2665     1
   2643   2666     1
   2644   2657     1
   2644   2658     1
   2644   2663     1
   2644   2664     1
   2645   2655     1
   2645   2656     1
   2645   2663     1
   2645   2664     1
   2646   2668     1
   2646   9188     1
   2647   2655     1
   2647   2656     1
   2647   9190     1
   2647   9192     1
   2648   2668     1
   2648   9262     1
   2649   2657     1
   2649   2658     1
   2649   9264     1
   2649   9266     1
   2650   2655     1
   2650   2656     1
   2650   2657     1
   2650   2658     1
   2650   2667     1
   2651   2668     1
   2652   2663     1
   2652   2664     1
   2653   2659     1
   2653   2660     1
   2653   9188     1
   2654   2661     1
   2654   2662     1
   2654   9262     1
   2655   2668     1
   2655   2659     1
   2655   2660     1
   2656   2668     1
   2656   2659     1
   2656   2660     1
   2657   2668     1
   2657   2661     1
   2657   2662     1
   2658   2668     1
   2658   2661     1
   2658   2662     1
   2659   9187     1
   2660   9187     1
   2661   9261     1
   2662   9261     1
   2663   2668     1
   2663   2665     1
   2663   2666     1
   2664   2668     1
   2664   2665     1
   2664   2666     1
   2665   2667     1
   2666   2667     1
   2669   2685     1
   2669   2686     1
   2669   2687     1
   2669   2688     1
   2669   2691     1
   2669   2692     1
   2670   2683     1
   2670   2684     1
   2670   2689     1
   2670   2690     1
   2671   2681     1
   2671   2682     1
   2671   2689     1
   2671   2690     1
   2672   2694     1
   2672   9336     1
   2673   2681     1
   2673   2682     1
   2673   9338     1
   2673   9340     1
   2674   2694     1
   2674   9410     1
   2675   2683     1
   2675   2684     1
   2675   9412     1
   2675   9414     1
   2676   2681     1
   2676   2682     1
   2676   2683     1
   2676   2684     1
   2676   2693     1
   2677   2694     1
   2678   2689     1
   2678   2690     1
   2679   2685     1
   2679   2686     1
   2679   9336     1
   2680   2687     1
   2680   2688     1
   2680   9410     1
   2681   2694     1
   2681   2685     1
   2681   2686     1
   2682   2694     1
   2682   2685     1
   2682   2686     1
   2683   2694     1
   2683   2687     1
   2683   2688     1
   2684   2694     1
   2684   2687     1
   2684   2688     1
   2685   9335     1
   2686   9335     1
   2687   9409     1
   2688   9409     1
   2689   2694     1
   2689   2691     1
   2689   2692     1
   2690   2694     1
   2690   2691     1
   2690   2692     1
   2691   2693     1
   2692   2693     1
   2695   2711     1
   2695   2712     1
   2695   2713     1
   2695   2714     1
   2695   2717     1
   2695   2718     1
   2696   2709     1
   2696   2710     1
   2696   2715     1
   2696   2716     1
   2697   2707     1
   2697   2708     1
   2697   2715     1
   2697   2716     1
   2698   2720     1
   2698   9484     1
   2699   2707     1
   2699   2708     1
   2699   9486     1
   2699   9488     1
   2700   2720     1
   2700   9558     1
   2701   2709     1
   2701   2710     1
   2701   9560     1
   2701   9562     1
   2702   2707     1
   2702   2708     1
   2702   2709     1
   2702   2710     1
   2702   2719     1
   2703   2720     1
   2704   2715     1
   2704   2716     1
   2705   2711     1
   2705   2712     1
   2705   9484     1
   2706   2713     1
   2706   2714     1
   2706   9558     1
   2707   2720     1
   2707   2711     1
   2707   2712     1
   2708   2720     1
   2708   2711     1
   2708   2712     1
   2709   2720     1
   2709   2713     1
   2709   2714     1
   2710   2720     1
   2710   2713     1
   2710   2714     1
   2711   9483     1
   2712   9483     1
   2713   9557     1
   2714   9557     1
   2715   2720     1
   2715   2717     1
   2715   2718     1
   2716   2720     1
   2716   2717     1
   2716   2718     1
   2717   2719     1
   2718   2719     1
   2721   2737     1
   2721   2738     1
   2721   2739     1
   2721   2740     1
   2721   2743     1
   2721   2744     1
   2722   2735     1
   2722   2736     1
   2722   2741     1
   2722   2742     1
   2723   2733     1
   2723   2734     1
   2723   2741     1
   2723   2742     1
   2724   2746     1
   2724   9632     1
   2725   2733     1
   2725   2734     1
   2725   9634     1
   2725   9636     1
   2726   2746     1
   2726   9706     1
   2727   2735     1
   2727   2736     1
   2727   9708     1
   2727   9710     1
   2728   2733     1
   2728   2734     1
   2728   2735     1
   2728   2736     1
   2728   2745     1
   2729   2746     1
   2730   2741     1
   2730   2742     1
   2731   2737     1
   2731   2738     1
   2731   9632     1
   2732   2739     1
   2732   2740     1
   2732   9706     1
   2733   2746     1
   2733   2737     1
   2733   2738     1
   2734   2746     1
   2734   2737     1
   2734   2738     1
   2735   2746     1
   2735   2739     1
   2735   2740     1
   2736   2746     1
   2736   2739     1
   2736   2740     1
   2737   9631     1
   2738   9631     1
   2739   9705     1
   2740   9705     1
   2741   2746     1
   2741   2743     1
   2741   2744     1
   2742   2746     1
   2742   2743     1
   2742   2744     1
   2743   2745     1
   2744   2745     1
   2747   2763     1
   2747   2764     1
   2747   2765     1
   2747   2766     1
   2747   2769     1
   2747   2770     1
   2748   2761     1
   2748   2762     1
   2748   2767     1
   2748   2768     1
   2749   2759     1
   2749   2760     1
   2749   2767     1
   2749   2768     1
   2750   2772     1
   2750   9780     1
   2751   2759     1
   2751   2760     1
   2751   9782     1
   2751   9784     1
   2752   2772     1
   2752   9854     1
   2753   2761     1
   2753   2762     1
   2753   9856     1
   2753   9858     1
   2754   2759     1
   2754   2760     1
   2754   2761     1
   2754   2762     1
   2754   2771     1
   2755   2772     1
   2756   2767     1
   2756   2768     1
   2757   2763     1
   2757   2764     1
   2757   9780     1
   2758   2765     1
   2758   2766     1
   2758   9854     1
   2759   2772     1
   2759   2763     1
   2759   2764     1
   2760   2772     1
   2760   2763     1
   2760   2764     1
   2761   2772     1
   2761   2765     1
   2761   2766     1
   2762   2772     1
   2762   2765     1
   2762   2766     1
   2763   9779     1
   2764   9779     1
   2765   9853     1
   2766   9853     1
   2767   2772     1
   2767   2769     1
   2767   2770     1
   2768   2772     1
   2768   2769     1
   2768   2770     1
   2769   2771     1
   2770   2771     1
   2773   2789     1
   2773   2790     1
   2773   2791     1
   2773   2792     1
   2773   2795     1
   2773   2796     1
   2774   2787     1
   2774   2788     1
   2774   2793     1
   2774   2794     1
   2775   2785     1
   2775   2786     1
   2775   2793     1
   2775   2794     1
   2776   2798     1
   2776   9928     1
   2777   2785     1
   2777   2786     1
   2777   9930     1
   2777   9932     1
   2778   2798     1
   2778  10002     1
   2779   2787     1
   2779   2788     1
   2779  10004     1
   2779  10006     1
   2780   2785     1
   2780   2786     1
   2780   2787     1
   2780   2788     1
   2780   2797     1
   2781   2798     1
   2782   2793     1
   2782   2794     1
   2783   2789     1
   2783   2790     1
   2783   9928     1
   2784   2791     1
   2784   2792     1
   2784  10002     1
   2785   2798     1
   2785   2789     1
   2785   2790     1
   2786   2798     1
   2786   2789     1
   2786   2790     1
   2787   2798     1
   2787   2791     1
   2787   2792     1
   2788   2798     1
   2788   2791     1
   2788   2792     1
   2789   9927     1
   2790   9927     1
   2791  10001     1
   2792  10001     1
   2793   2798     1
   2793   2795     1
   2793   2796     1
   2794   2798     1
   2794   2795     1
   2794   2796     1
   2795   2797     1
   2796   2797     1
   2799   2815     1
   2799   2816     1
   2799   2817     1
   2799   2818     1
   2799   2821     1
   2799   2822     1
   2800   2813     1
   2800   2814     1
   2800   2819     1
   2800   2820     1
   2801   2811     1
   2801   2812     1
   2801   2819     1
   2801   2820     1
   2802   2824     1
   2802  10076     1
   2803   2811     1
   2803   2812     1
   2803  10078     1
   2803  10080     1
   2804   2824     1
   2804  10150     1
   2805   2813     1
   2805   2814     1
   2805  10152     1
   2805  10154     1
   2806   2811     1
   2806   2812     1
   2806   2813     1
   2806   2814     1
   2806   2823     1
   2807   2824     1
   2808   2819     1
   2808   2820     1
   2809   2815     1
   2809   2816     1
   2809  10076     1
   2810   2817     1
   2810   2818     1
   2810  10150     1
   2811   2824     1
   2811   2815     1
   2811   2816     1
   2812   2824     1
   2812   2815     1
   2812   2816     1
   2813   2824     1
   2813   2817     1
   2813   2818     1
   2814   2824     1
   2814   2817     1
   2814   2818     1
   2815  10075     1
   2816  10075     1
   2817  10149     1
   2818  10149     1
   2819   2824     1
   2819   2821     1
   2819   2822     1
   2820   2824     1
   2820   2821     1
   2820   2822     1
   2821   2823     1
   2822   2823     1
   2825   2841     1
   2825   2842     1
   2825   2843     1
   2825   2844     1
   2825   2847     1
   2825   2848     1
   2826   2839     1
   2826   2840     1
   2826   2845     1
   2826   2846     1
   2827   2837     1
   2827   2838     1
   2827   2845     1
   2827   2846     1
   2828   2850     1
   2828  10224     1
   2829   2837     1
   2829   2838     1
   2829  10226     1
   2829  10228     1
   2830   2850     1
   2830  10298     1
   2831   2839     1
   2831   2840     1
   2831  10300     1
   2831  10302     1
   2832   2837     1
   2832   2838     1
   2832   2839     1
   2832   2840     1
   2832   2849     1
   2833   2850     1
   2834   2845     1
   2834   2846     1
   2835   2841     1
   2835   2842     1
   2835  10224     1
   2836   2843     1
   2836   2844     1
   2836  10298     1
   2837   2850     1
   2837   2841     1
   2837   2842     1
   2838   2850     1
   2838   2841     1
   2838   2842     1
   2839   2850     1
   2839   2843     1
   2839   2844     1
   2840   2850     1
   2840   2843     1
   2840   2844     1
   2841  10223     1
   2842  10223     1
   2843  10297     1
   2844  10297     1
   2845   2850     1
   2845   2847     1
   2845   2848     1
   2846   2850     1
   2846   2847     1
   2846   2848     1
   2847   2849     1
   2848   2849     1
   2851   2867     1
   2851   2868     1
   2851   2869     1
   2851   2870     1
   2851   2873     1
   2851   2874     1
   2852   2865     1
   2852   2866     1
   2852   2871     1
   2852   2872     1
   2853   2863     1
   2853   2864     1
   2853   2871     1
   2853   2872     1
   2854   2876     1
   2854  10372     1
   2855   2863     1
   2855   2864     1
   2855  10374     1
   2855  10376     1
   2856   2876     1
   2856  10446     1
   2857   2865     1
   2857   2866     1
   2857  10448     1
   2857  10450     1
   2858   2863     1
   2858   2864     1
   2858   2865     1
   2858   2866     1
   2858   2875     1
   2859   2876     1
   2860   2871     1
   2860   2872     1
   2861   2867     1
   2861   2868     1
   2861  10372     1
   2862   2869     1
   2862   2870     1
   2862  10446     1
   2863   2876     1
   2863   2867     1
   2863   2868     1
   2864   2876     1
   2864   2867     1
   2864   2868     1
   2865   2876     1
   2865   2869     1
   2865   2870     1
   2866   2876     1
   2866   2869     1
   2866   2870     1
   2867  10371     1
   2868  10371     1
   2869  10445     1
   2870  10445     1
   2871   2876     1
   2871   2873     1
   2871   2874     1
   2872   2876     1
   2872   2873     1
   2872   2874     1
   2873   2875     1
   2874   2875     1
   2877   2893     1
   2877   2894     1
   2877   2895     1
   2877   2896     1
   2877   2899     1
   2877   2900     1
   2878   2891     1
   2878   2892     1
   2878   2897     1
   2878   2898     1
   2879   2889     1
   2879   2890     1
   2879   2897     1
   2879   2898     1
   2880   2902     1
   2880  10520     1
   2881   2889     1
   2881   2890     1
   2881  10522     1
   2881  10524     1
   2882   2902     1
   2882  10594     1
   2883   2891     1
   2883   2892     1
   2883  10596     1
   2883  10598     1
   2884   2889     1
   2884   2890     1
   2884   2891     1
   2884   2892     1
   2884   2901     1
   2885   2902     1
   2886   2897     1
   2886   2898     1
   2887   2893     1
   2887   2894     1
   2887  10520     1
   2888   2895     1
   2888   2896     1
   2888  10594     1
   2889   2902     1
   2889   2893     1
   2889   2894     1
   2890   2902     1
   2890   2893     1
   2890   2894     1
   2891   2902     1
   2891   2895     1
   2891   2896     1
   2892   2902     1
   2892   2895     1
   2892   2896     1
   2893  10519     1
   2894  10519     1
   2895  10593     1
   2896  10593     1
   2897   2902     1
   2897   2899     1
   2897   2900     1
   2898   2902     1
   2898   2899     1
   2898   2900     1
   2899   2901     1
   2900   2901     1
   2903   2919     1
   2903   2920     1
   2903   2921     1
   2903   2922     1
   2903   2925     1
   2903   2926     1
   2904   2917     1
   2904   2918     1
   2904   2923     1
   2904   2924     1
   2905   2915     1
   2905   2916     1
   2905   2923     1
   2905   2924     1
   2906   2928     1
   2906  10668     1
   2907   2915     1
   2907   2916     1
   2907  10670     1
   2907  10672     1
   2908   2928     1
   2908  10742     1
   2909   2917     1
   2909   2918     1
   2909  10744     1
   2909  10746     1
   2910   2915     1
   2910   2916     1
   2910   2917     1
   2910   2918     1
   2910   2927     1
   2911   2928     1
   2912   2923     1
   2912   2924     1
   2913   2919     1
   2913   2920     1
   2913  10668     1
   2914   2921     1
   2914   2922     1
   2914  10742     1
   2915   2928     1
   2915   2919     1
   2915   2920     1
   2916   2928     1
   2916   2919     1
   2916   2920     1
   2917   2928     1
   2917   2921     1
   2917   2922     1
   2918   2928     1
   2918   2921     1
   2918   2922     1
   2919  10667     1
   2920  10667     1
   2921  10741     1
   2922  10741     1
   2923   2928     1
   2923   2925     1
   2923   2926     1
   2924   2928     1
   2924   2925     1
   2924   2926     1
   2925   2927     1
   2926   2927     1
   2929   2945     1
   2929   2946     1
   2929   2947     1
   2929   2948     1
   2929   2951     1
   2929   2952     1
   2930   2943     1
   2930   2944     1
   2930   2949     1
   2930   2950     1
   2931   2941     1
   2931   2942     1
   2931   2949     1
   2931   2950     1
   2932   2954     1
   2932  10816     1
   2933   2941     1
   2933   2942     1
   2933  10818     1
   2933  10820     1
   2934   2954     1
   2934  10890     1
   2935   2943     1
   2935   2944     1
   2935  10892     1
   2935  10894     1
   2936   2941     1
   2936   2942     1
   2936   2943     1
   2936   2944     1
   2936   2953     1
   2937   2954     1
   2938   2949     1
   2938   2950     1
   2939   2945     1
   2939   2946     1
   2939  10816     1
   2940   2947     1
   2940   2948     1
   2940  10890     1
   2941   2954     1
   2941   2945     1
   2941   2946     1
   2942   2954     1
   2942   2945     1
   2942   2946     1
   2943   2954     1
   2943   2947     1
   2943   2948     1
   2944   2954     1
   2944   2947     1
   2944   2948     1
   2945  10815     1
   2946  10815     1
   2947  10889     1
   2948  10889     1
   2949   2954     1
   2949   2951     1
   2949   2952     1
   2950   2954     1
   2950   2951     1
   2950   2952     1
   2951   2953     1
   2952   2953     1
   2955   2971     1
   2955   2972     1
   2955   2973     1
   2955   2974     1
   2955   2977     1
   2955   2978     1
   2956   2969     1
   2956   2970     1
   2956   2975     1
   2956   2976     1
   2957   2967     1
   2957   2968     1
   2957   2975     1
   2957   2976     1
   2958   2980     1
   2958  10964     1
   2959   2967     1
   2959   2968     1
   2959  10966     1
   2959  10968     1
   2960   2980     1
   2960  11038     1
   2961   2969     1
   2961   2970     1
   2961  11040     1
   2961  11042     1
   2962   2967     1
   2962   2968     1
   2962   2969     1
   2962   2970     1
   2962   2979     1
   2963   2980     1
   2964   2975     1
   2964   2976     1
   2965   2971     1
   2965   2972     1
   2965  10964     1
   2966   2973     1
   2966   2974     1
   2966  11038     1
   2967   2980     1
   2967   2971     1
   2967   2972     1
   2968   2980     1
   2968   2971     1
   2968   2972     1
   2969   2980     1
   2969   2973     1
   2969   2974     1
   2970   2980     1
   2970   2973     1
   2970   2974     1
   2971  10963     1
   2972  10963     1
   2973  11037     1
   2974  11037     1
   2975   2980     1
   2975   2977     1
   2975   2978     1
   2976   2980     1
   2976   2977     1
   2976   2978     1
   2977   2979     1
   2978   2979     1
   2981   2997     1
   2981   2998     1
   2981   2999     1
   2981   3000     1
   2981   3003     1
   2981   3004     1
   2982   2995     1
   2982   2996     1
   2982   3001     1
   2982   3002     1
   2983   2993     1
   2983   2994     1
   2983   3001     1
   2983   3002     1
   2984   3006     1
   2984  11112     1
   2985   2993     1
   2985   2994     1
   2985  11114     1
   2985  11116     1
   2986   3006     1
   2986  11186     1
   2987   2995     1
   2987   2996     1
   2987  11188     1
   2987  11190     1
   2988   2993     1
   2988   2994     1
   2988   2995     1
   2988   2996     1
   2988   3005     1
   2989   3006     1
   2990   3001     1
   2990   3002     1
   2991   2997     1
   2991   2998     1
   2991  11112     1
   2992   2999     1
   2992   3000     1
   2992  11186     1
   2993   3006     1
   2993   2997     1
   2993   2998     1
   2994   3006     1
   2994   2997     1
   2994   2998     1
   2995   3006     1
   2995   2999     1
   2995   3000     1
   2996   3006     1
   2996   2999     1
   2996   3000     1
   2997  11111     1
   2998  11111     1
   2999  11185     1
   3000  11185     1
   3001   3006     1
   3001   3003     1
   3001   3004     1
   3002   3006     1
   3002   3003     1
   3002   3004     1
   3003   3005     1
   3004   3005     1
   3007   3023     1
   3007   3024     1
   3007   3025     1
   3007   3026     1
   3007   3029     1
   3007   3030     1
   3008   3021     1
   3008   3022     1
   3008   3027     1
   3008   3028     1
   3009   3019     1
   3009   3020     1
   3009   3027     1
   3009   3028     1
   3010   3032     1
   3010  11260     1
   3011   3019     1
   3011   3020     1
   3011  11262     1
   3011  11264     1
   3012   3032     1
   3012  11334     1
   3013   3021     1
   3013   3022     1
   3013  11336     1
   3013  11338     1
   3014   3019     1
   3014   3020     1
   3014   3021     1
   3014   3022     1
   3014   3031     1
   3015   3032     1
   3016   3027     1
   3016   3028     1
   3017   3023     1
   3017   3024     1
   3017  11260     1
   3018   3025     1
   3018   3026     1
   3018  11334     1
   3019   3032     1
   3019   3023     1
   3019   3024     1
   3020   3032     1
   3020   3023     1
   3020   3024     1
   3021   3032     1
   3021   3025     1
   3021   3026     1
   3022   3032     1
   3022   3025     1
   3022   3026     1
   3023  11259     1
   3024  11259     1
   3025  11333     1
   3026  11333     1
   3027   3032     1
   3027   3029     1
   3027   3030     1
   3028   3032     1
   3028   3029     1
   3028   3030     1
   3029   3031     1
   3030   3031     1
   3033   3049     1
   3033   3050     1
   3033   3051     1
   3033   3052     1
   3033   3055     1
   3033   3056     1
   3034   3047     1
   3034   3048     1
   3034   3053     1
   3034   3054     1
   3035   3045     1
   3035   3046     1
   3035   3053     1
   3035   3054     1
   3036   3058     1
   3036  11408     1
   3037   3045     1
   3037   3046     1
   3037  11410     1
   3037  11412     1
   3038   3058     1
   3038  11482     1
   3039   3047     1
   3039   3048     1
   3039  11484     1
   3039  11486     1
   3040   3045     1
   3040   3046     1
   3040   3047     1
   3040   3048     1
   3040   3057     1
   3041   3058     1
   3042   3053     1
   3042   3054     1
   3043   3049     1
   3043   3050     1
   3043  11408     1
   3044   3051     1
   3044   3052     1
   3044  11482     1
   3045   3058     1
   3045   3049     1
   3045   3050     1
   3046   3058     1
   3046   3049     1
   3046   3050     1
   3047   3058     1
   3047   3051     1
   3047   3052     1
   3048   3058     1
   3048   3051     1
   3048   3052     1
   3049  11407     1
   3050  11407     1
   3051  11481     1
   3052  11481     1
   3053   3058     1
   3053   3055     1
   3053   3056     1
   3054   3058     1
   3054   3055     1
   3054   3056     1
   3055   3057     1
   3056   3057     1
   3059   3075     1
   3059   3076     1
   3059   3077     1
   3059   3078     1
   3059   3081     1
   3059   3082     1
   3060   3073     1
   3060   3074     1
   3060   3079     1
   3060   3080     1
   3061   3071     1
   3061   3072     1
   3061   3079     1
   3061   3080     1
   3062   3084     1
   3062  11556     1
   3063   3071     1
   3063   3072     1
   3063  11558     1
   3063  11560     1
   3064   3084     1
   3064  11630     1
   3065   3073     1
   3065   3074     1
   3065  11632     1
   3065  11634     1
   3066   3071     1
   3066   3072     1
   3066   3073     1
   3066   3074     1
   3066   3083     1
   3067   3084     1
   3068   3079     1
   3068   3080     1
   3069   3075     1
   3069   3076     1
   3069  11556     1
   3070   3077     1
   3070   3078     1
   3070  11630     1
   3071   3084     1
   3071   3075     1
   3071   3076     1
   3072   3084     1
   3072   3075     1
   3072   3076     1
   3073   3084     1
   3073   3077     1
   3073   3078     1
   3074   3084     1
   3074   3077     1
   3074   3078     1
   3075  11555     1
   3076  11555     1
   3077  11629     1
   3078  11629     1
   3079   3084     1
   3079   3081     1
   3079   3082     1
   3080   3084     1
   3080   3081     1
   3080   3082     1
   3081   3083     1
   3082   3083     1
   3085   3101     1
   3085   3102     1
   3085   3103     1
   3085   3104     1
   3085   3107     1
   3085   3108     1
   3086   3099     1
   3086   3100     1
   3086   3105     1
   3086   3106     1
   3087   3097     1
   3087   3098     1
   3087   3105     1
   3087   3106     1
   3088   3110     1
   3088  11704     1
   3089   3097     1
   3089   3098     1
   3089  11706     1
   3089  11708     1
   3090   3110     1
   3090  11778     1
   3091   3099     1
   3091   3100     1
   3091  11780     1
   3091  11782     1
   3092   3097     1
   3092   3098     1
   3092   3099     1
   3092   3100     1
   3092   3109     1
   3093   3110     1
   3094   3105     1
   3094   3106     1
   3095   3101     1
   3095   3102     1
   3095  11704     1
   3096   3103     1
   3096   3104     1
   3096  11778     1
   3097   3110     1
   3097   3101     1
   3097   3102     1
   3098   3110     1
   3098   3101     1
   3098   3102     1
   3099   3110     1
   3099   3103     1
   3099   3104     1
   3100   3110     1
   3100   3103     1
   3100   3104     1
   3101  11703     1
   3102  11703     1
   3103  11777     1
   3104  11777     1
   3105   3110     1
   3105   3107     1
   3105   3108     1
   3106   3110     1
   3106   3107     1
   3106   3108     1
   3107   3109     1
   3108   3109     1
   3111   3127     1
   3111   3128     1
   3111   3129     1
   3111   3130     1
   3111   3133     1
   3111   3134     1
   3112   3125     1
   3112   3126     1
   3112   3131     1
   3112   3132     1
   3113   3123     1
   3113   3124     1
   3113   3131     1
   3113   3132     1
   3114   3136     1
   3114  11852     1
   3115   3123     1
   3115   3124     1
   3115  11854     1
   3115  11856     1
   3116   3136     1
   3116  11926     1
   3117   3125     1
   3117   3126     1
   3117  11928     1
   3117  11930     1
   3118   3123     1
   3118   3124     1
   3118   3125     1
   3118   3126     1
   3118   3135     1
   3119   3136     1
   3120   3131     1
   3120   3132     1
   3121   3127     1
   3121   3128     1
   3121  11852     1
   3122   3129     1
   3122   3130     1
   3122  11926     1
   3123   3136     1
   3123   3127     1
   3123   3128     1
   3124   3136     1
   3124   3127     1
   3124   3128     1
   3125   3136     1
   3125   3129     1
   3125   3130     1
   3126   3136     1
   3126   3129     1
   3126   3130     1
   3127  11851     1
   3128  11851     1
   3129  11925     1
   3130  11925     1
   3131   3136     1
   3131   3133     1
   3131   3134     1
   3132   3136     1
   3132   3133     1
   3132   3134     1
   3133   3135     1
   3134   3135     1
   3137   3153     1
   3137   3154     1
   3137   3155     1
   3137   3156     1
   3137   3159     1
   3137   3160     1
   3138   3151     1
   3138   3152     1
   3138   3157     1
   3138   3158     1
   3139   3149     1
   3139   3150     1
   3139   3157     1
   3139   3158     1
   3140   3162     1
   3140  12000     1
   3141   3149     1
   3141   3150     1
   3141  12002     1
   3141  12004     1
   3142   3162     1
   3142  12074     1
   3143   3151     1
   3143   3152     1
   3143  12076     1
   3143  12078     1
   3144   3149     1
   3144   3150     1
   3144   3151     1
   3144   3152     1
   3144   3161     1
   3145   3162     1
   3146   3157     1
   3146   3158     1
   3147   3153     1
   3147   3154     1
   3147  12000     1
   3148   3155     1
   3148   3156     1
   3148  12074     1
   3149   3162     1
   3149   3153     1
   3149   3154     1
   3150   3162     1
   3150   3153     1
   3150   3154     1
   3151   3162     1
   3151   3155     1
   3151   3156     1
   3152   3162     1
   3152   3155     1
   3152   3156     1
   3153  11999     1
   3154  11999     1
   3155  12073     1
   3156  12073     1
   3157   3162     1
   3157   3159     1
   3157   3160     1
   3158   3162     1
   3158   3159     1
   3158   3160     1
   3159   3161     1
   3160   3161     1
   3163   3179     1
   3163   3180     1
   3163   3181     1
   3163   3182     1
   3163   3185     1
   3163   3186     1
   3164   3177     1
   3164   3178     1
   3164   3183     1
   3164   3184     1
   3165   3175     1
   3165   3176     1
   3165   3183     1
   3165   3184     1
   3166   3188     1
   3166  12148     1
   3167   3175     1
   3167   3176     1
   3167  12150     1
   3167  12152     1
   3168   3188     1
   3168  12222     1
   3169   3177     1
   3169   3178     1
   3169  12224     1
   3169  12226     1
   3170   3175     1
   3170   3176     1
   3170   3177     1
   3170   3178     1
   3170   3187     1
   3171   3188     1
   3172   3183     1
   3172   3184     1
   3173   3179     1
   3173   3180     1
   3173  12148     1
   3174   3181     1
   3174   3182     1
   3174  12222     1
   3175   3188     1
   3175   3179     1
   3175   3180     1
   3176   3188     1
   3176   3179     1
   3176   3180     1
   3177   3188     1
   3177   3181     1
   3177   3182     1
   3178   3188     1
   3178   3181     1
   3178   3182     1
   3179  12147     1
   3180  12147     1
   3181  12221     1
   3182  12221     1
   3183   3188     1
   3183   3185     1
   3183   3186     1
   3184   3188     1
   3184   3185     1
   3184   3186     1
   3185   3187     1
   3186   3187     1
   3189   3205     1
   3189   3206     1
   3189   3207     1
   3189   3208     1
   3189   3211     1
   3189   3212     1
   3190   3203     1
   3190   3204     1
   3190   3209     1
   3190   3210     1
   3191   3201     1
   3191   3202     1
   3191   3209     1
   3191   3210     1
   3192   3214     1
   3192  12296     1
   3193   3201     1
   3193   3202     1
   3193  12298     1
   3193  12300     1
   3194   3214     1
   3194  12370     1
   3195   3203     1
   3195   3204     1
   3195  12372     1
   3195  12374     1
   3196   3201     1
   3196   3202     1
   3196   3203     1
   3196   3204     1
   3196   3213     1
   3197   3214     1
   3198   3209     1
   3198   3210     1
   3199   3205     1
   3199   3206     1
   3199  12296     1
   3200   3207     1
   3200   3208     1
   3200  12370     1
   3201   3214     1
   3201   3205     1
   3201   3206     1
   3202   3214     1
   3202   3205     1
   3202   3206     1
   3203   3214     1
   3203   3207     1
   3203   3208     1
   3204   3214     1
   3204   3207     1
   3204   3208     1
   3205  12295     1
   3206  12295     1
   3207  12369     1
   3208  12369     1
   3209   3214     1
   3209   3211     1
   3209   3212     1
   3210   3214     1
   3210   3211     1
   3210   3212     1
   3211   3213     1
   3212   3213     1
   3215   3231     1
   3215   3232     1
   3215   3233     1
   3215   3234     1
   3215   3237     1
   3215   3238     1
   3216   3229     1
   3216   3230     1
   3216   3235     1
   3216   3236     1
   3217   3227     1
   3217   3228     1
   3217   3235     1
   3217   3236     1
   3218   3240     1
   3218  12444     1
   3219   3227     1
   3219   3228     1
   3219  12446     1
   3219  12448     1
   3220   3240     1
   3220  12518     1
   3221   3229     1
   3221   3230     1
   3221  12520     1
   3221  12522     1
   3222   3227     1
   3222   3228     1
   3222   3229     1
   3222   3230     1
   3222   3239     1
   3223   3240     1
   3224   3235     1
   3224   3236     1
   3225   3231     1
   3225   3232     1
   3225  12444     1
   3226   3233     1
   3226   3234     1
   3226  12518     1
   3227   3240     1
   3227   3231     1
   3227   3232     1
   3228   3240     1
   3228   3231     1
   3228   3232     1
   3229   3240     1
   3229   3233     1
   3229   3234     1
   3230   3240     1
   3230   3233     1
   3230   3234     1
   3231  12443     1
   3232  12443     1
   3233  12517     1
   3234  12517     1
   3235   3240     1
   3235   3237     1
   3235   3238     1
   3236   3240     1
   3236   3237     1
   3236   3238     1
   3237   3239     1
   3238   3239     1
   3241   3257     1
   3241   3258     1
   3241   3259     1
   3241   3260     1
   3241   3263     1
   3241   3264     1
   3242   3255     1
   3242   3256     1
   3242   3261     1
   3242   3262     1
   3243   3253     1
   3243   3254     1
   3243   3261     1
   3243   3262     1
   3244   3266     1
   3244  12592     1
   3245   3253     1
   3245   3254     1
   3245  12594     1
   3245  12596     1
   3246   3266     1
   3246  12666     1
   3247   3255     1
   3247   3256     1
   3247  12668     1
   3247  12670     1
   3248   3253     1
   3248   3254     1
   3248   3255     1
   3248   3256     1
   3248   3265     1
   3249   3266     1
   3250   3261     1
   3250   3262     1
   3251   3257     1
   3251   3258     1
   3251  12592     1
   3252   3259     1
   3252   3260     1
   3252  12666     1
   3253   3266     1
   3253   3257     1
   3253   3258     1
   3254   3266     1
   3254   3257     1
   3254   3258     1
   3255   3266     1
   3255   3259     1
   3255   3260     1
   3256   3266     1
   3256   3259     1
   3256   3260     1
   3257  12591     1
   3258  12591     1
   3259  12665     1
   3260  12665     1
   3261   3266     1
   3261   3263     1
   3261   3264     1
   3262   3266     1
   3262   3263     1
   3262   3264     1
   3263   3265     1
   3264   3265     1
   3267   3273     1
   3267   3274     1
   3268   3271     1
   3268   3270     1
   3268   3272     1
   3269   3340     1
   3270   3275     1
   3270   3273     1
   3270   3274     1
   3271   3285     1
   3271   3286     1
   3271   3278     1
   3271   3280     1
   3272   3275     1
   3272   3273     1
   3272   3274     1
   3273   3276     1
   3273   3277     1
   3273   3340     1
   3274   3276     1
   3274   3277     1
   3274   3340     1
   3275   3288     1
   3275   3289     1
   3275   3281     1
   3275   3282     1
   3276   3278     1
   3276   3280     1
   3277   3285     1
   3277   3286     1
   3278   3340     1
   3278   3283     1
   3278   3281     1
   3278   3282     1
   3279   3340     1
   3279   3305     1
   3280   3340     1
   3280   3283     1
   3280   3281     1
   3280   3282     1
   3281   3284     1
   3281   3315     1
   3282   3284     1
   3282   3315     1
   3283   3298     1
   3284   3305     1
   3285   3340     1
   3285   3290     1
   3285   3288     1
   3285   3289     1
   3286   3340     1
   3286   3290     1
   3286   3288     1
   3286   3289     1
   3287   3340     1
   3287   3329     1
   3288   3291     1
   3288   3339     1
   3289   3291     1
   3289   3339     1
   3290   3322     1
   3291   3329     1
   3292   3299     1
   3292   3314     1
   3292   3309     1
   3292   3300     1
   3293   3306     1
   3293   3307     1
   3293   3298     1
   3293   3304     1
   3294   3295     1
   3294   3313     1
   3294   3312     1
   3294   3308     1
   3294   3306     1
   3294   3307     1
   3294   3297     1
   3295   3314     1
   3295   3300     1
   3295   3305     1
   3296   3312     1
   3296   3304     1
   3296   3311     1
   3297   3299     1
   3297   3305     1
   3298   3302     1
   3298   3299     1
   3298   3301     1
   3298   3310     1
   3298   3300     1
   3298   3305     1
   3299   3313     1
   3299   3312     1
   3299   3315     1
   3299   3304     1
   3300   3315     1
   3300   3311     1
   3302   3312     1
   3303   3312     1
   3306   3310     1
   3306   3309     1
   3307   3310     1
   3307   3309     1
   3310   3312     1
   3310   3311     1
   3312   3314     1
   3316   3323     1
   3316   3338     1
   3316   3333     1
   3316   3324     1
   3317   3330     1
   3317   3331     1
   3317   3322     1
   3317   3328     1
   3318   3319     1
   3318   3337     1
   3318   3336     1
   3318   3332     1
   3318   3330     1
   3318   3331     1
   3318   3321     1
   3319   3338     1
   3319   3324     1
   3319   3329     1
   3320   3336     1
   3320   3328     1
   3320   3335     1
   3321   3323     1
   3321   3329     1
   3322   3326     1
   3322   3323     1
   3322   3325     1
   3322   3334     1
   3322   3324     1
   3322   3329     1
   3323   3337     1
   3323   3336     1
   3323   3339     1
   3323   3328     1
   3324   3339     1
   3324   3335     1
   3326   3336     1
   3327   3336     1
   3330   3334     1
   3330   3333     1
   3331   3334     1
   3331   3333     1
   3334   3336     1
   3334   3335     1
   3336   3338     1
   3341   3347     1
   3341   3348     1
   3342   3345     1
   3342   3344     1
   3342   3346     1
   3343   3414     1
   3344   3349     1
   3344   3347     1
   3344   3348     1
   3345   3359     1
   3345   3360     1
   3345   3352     1
   3345   3354     1
   3346   3349     1
   3346   3347     1
   3346   3348     1
   3347   3350     1
   3347   3351     1
   3347   3414     1
   3348   3350     1
   3348   3351     1
   3348   3414     1
   3349   3362     1
   3349   3363     1
   3349   3355     1
   3349   3356     1
   3350   3352     1
   3350   3354     1
   3351   3359     1
   3351   3360     1
   3352   3357     1
   3352   3355     1
   3352   3356     1
   3352   3414     1
   3353   3379     1
   3353   3414     1
   3354   3357     1
   3354   3355     1
   3354   3356     1
   3354   3414     1
   3355   3358     1
   3355   3389     1
   3356   3358     1
   3356   3389     1
   3357   3372     1
   3358   3379     1
   3359   3364     1
   3359   3362     1
   3359   3363     1
   3359   3414     1
   3360   3364     1
   3360   3362     1
   3360   3363     1
   3360   3414     1
   3361   3403     1
   3361   3414     1
   3362   3365     1
   3362   3413     1
   3363   3365     1
   3363   3413     1
   3364   3396     1
   3365   3403     1
   3366   3373     1
   3366   3388     1
   3366   3383     1
   3366   3374     1
   3367   3372     1
   3367   3378     1
   3367   3380     1
   3367   3381     1
   3368   3369     1
   3368   3387     1
   3368   3386     1
   3368   3382     1
   3368   3380     1
   3368   3381     1
   3368   3371     1
   3369   3374     1
   3369   3379     1
   3369   3388     1
   3370   3385     1
   3370   3378     1
   3370   3386     1
   3371   3379     1
   3371   3373     1
   3372   3375     1
   3372   3384     1
   3372   3374     1
   3372   3379     1
   3372   3376     1
   3372   3373     1
   3373   3389     1
   3373   3378     1
   3373   3387     1
   3373   3386     1
   3374   3385     1
   3374   3389     1
   3376   3386     1
   3377   3386     1
   3380   3383     1
   3380   3384     1
   3381   3383     1
   3381   3384     1
   3384   3385     1
   3384   3386     1
   3386   3388     1
   3390   3397     1
   3390   3412     1
   3390   3407     1
   3390   3398     1
   3391   3396     1
   3391   3402     1
   3391   3404     1
   3391   3405     1
   3392   3393     1
   3392   3411     1
   3392   3410     1
   3392   3406     1
   3392   3404     1
   3392   3405     1
   3392   3395     1
   3393   3398     1
   3393   3403     1
   3393   3412     1
   3394   3409     1
   3394   3402     1
   3394   3410     1
   3395   3403     1
   3395   3397     1
   3396   3399     1
   3396   3408     1
   3396   3398     1
   3396   3403     1
   3396   3400     1
   3396   3397     1
   3397   3413     1
   3397   3402     1
   3397   3411     1
   3397   3410     1
   3398   3409     1
   3398   3413     1
   3400   3410     1
   3401   3410     1
   3404   3407     1
   3404   3408     1
   3405   3407     1
   3405   3408     1
   3408   3409     1
   3408   3410     1
   3410   3412     1
   3415   3421     1
   3415   3422     1
   3416   3419     1
   3416   3418     1
   3416   3420     1
   3417   3488     1
   3418   3423     1
   3418   3421     1
   3418   3422     1
   3419   3433     1
   3419   3434     1
   3419   3426     1
   3419   3428     1
   3420   3423     1
   3420   3421     1
   3420   3422     1
   3421   3424     1
   3421   3425     1
   3421   3488     1
   3422   3424     1
   3422   3425     1
   3422   3488     1
   3423   3436     1
   3423   3437     1
   3423   3429     1
   3423   3430     1
   3424   3426     1
   3424   3428     1
   3425   3433     1
   3425   3434     1
   3426   3488     1
   3426   3431     1
   3426   3429     1
   3426   3430     1
   3427   3488     1
   3427   3453     1
   3428   3488     1
   3428   3431     1
   3428   3429     1
   3428   3430     1
   3429   3432     1
   3429   3463     1
   3430   3432     1
   3430   3463     1
   3431   3446     1
   3432   3453     1
   3433   3488     1
   3433   3438     1
   3433   3436     1
   3433   3437     1
   3434   3488     1
   3434   3438     1
   3434   3436     1
   3434   3437     1
   3435   3488     1
   3435   3477     1
   3436   3439     1
   3436   3487     1
   3437   3439     1
   3437   3487     1
   3438   3470     1
   3439   3477     1
   3440   3447     1
   3440   3462     1
   3440   3457     1
   3440   3448     1
   3441   3454     1
   3441   3455     1
   3441   3446     1
   3441   3452     1
   3442   3443     1
   3442   3461     1
   3442   3460     1
   3442   3456     1
   3442   3454     1
   3442   3455     1
   3442   3445     1
   3443   3462     1
   3443   3448     1
   3443   3453     1
   3444   3460     1
   3444   3452     1
   3444   3459     1
   3445   3447     1
   3445   3453     1
   3446   3450     1
   3446   3447     1
   3446   3449     1
   3446   3458     1
   3446   3448     1
   3446   3453     1
   3447   3461     1
   3447   3460     1
   3447   3463     1
   3447   3452     1
   3448   3463     1
   3448   3459     1
   3450   3460     1
   3451   3460     1
   3454   3458     1
   3454   3457     1
   3455   3458     1
   3455   3457     1
   3458   3460     1
   3458   3459     1
   3460   3462     1
   3464   3471     1
   3464   3486     1
   3464   3481     1
   3464   3472     1
   3465   3478     1
   3465   3479     1
   3465   3470     1
   3465   3476     1
   3466   3467     1
   3466   3485     1
   3466   3484     1
   3466   3480     1
   3466   3478     1
   3466   3479     1
   3466   3469     1
   3467   3486     1
   3467   3472     1
   3467   3477     1
   3468   3484     1
   3468   3476     1
   3468   3483     1
   3469   3471     1
   3469   3477     1
   3470   3474     1
   3470   3471     1
   3470   3473     1
   3470   3482     1
   3470   3472     1
   3470   3477     1
   3471   3485     1
   3471   3484     1
   3471   3487     1
   3471   3476     1
   3472   3487     1
   3472   3483     1
   3474   3484     1
   3475   3484     1
   3478   3482     1
   3478   3481     1
   3479   3482     1
   3479   3481     1
   3482   3484     1
   3482   3483     1
   3484   3486     1
   3489   3495     1
   3489   3496     1
   3490   3493     1
   3490   3492     1
   3490   3494     1
   3491   3562     1
   3492   3497     1
   3492   3495     1
   3492   3496     1
   3493   3507     1
   3493   3508     1
   3493   3500     1
   3493   3502     1
   3494   3497     1
   3494   3495     1
   3494   3496     1
   3495   3498     1
   3495   3499     1
   3495   3562     1
   3496   3498     1
   3496   3499     1
   3496   3562     1
   3497   3510     1
   3497   3511     1
   3497   3503     1
   3497   3504     1
   3498   3500     1
   3498   3502     1
   3499   3507     1
   3499   3508     1
   3500   3505     1
   3500   3503     1
   3500   3504     1
   3500   3562     1
   3501   3527     1
   3501   3562     1
   3502   3505     1
   3502   3503     1
   3502   3504     1
   3502   3562     1
   3503   3506     1
   3503   3537     1
   3504   3506     1
   3504   3537     1
   3505   3520     1
   3506   3527     1
   3507   3512     1
   3507   3510     1
   3507   3511     1
   3507   3562     1
   3508   3512     1
   3508   3510     1
   3508   3511     1
   3508   3562     1
   3509   3551     1
   3509   3562     1
   3510   3513     1
   3510   3561     1
   3511   3513     1
   3511   3561     1
   3512   3544     1
   3513   3551     1
   3514   3521     1
   3514   3536     1
   3514   3531     1
   3514   3522     1
   3515   3520     1
   3515   3526     1
   3515   3528     1
   3515   3529     1
   3516   3517     1
   3516   3535     1
   3516   3534     1
   3516   3530     1
   3516   3528     1
   3516   3529     1
   3516   3519     1
   3517   3522     1
   3517   3527     1
   3517   3536     1
   3518   3533     1
   3518   3526     1
   3518   3534     1
   3519   3527     1
   3519   3521     1
   3520   3523     1
   3520   3532     1
   3520   3522     1
   3520   3527     1
   3520   3524     1
   3520   3521     1
   3521   3537     1
   3521   3526     1
   3521   3535     1
   3521   3534     1
   3522   3533     1
   3522   3537     1
   3524   3534     1
   3525   3534     1
   3528   3531     1
   3528   3532     1
   3529   3531     1
   3529   3532     1
   3532   3533     1
   3532   3534     1
   3534   3536     1
   3538   3545     1
   3538   3560     1
   3538   3555     1
   3538   3546     1
   3539   3544     1
   3539   3550     1
   3539   3552     1
   3539   3553     1
   3540   3541     1
   3540   3559     1
   3540   3558     1
   3540   3554     1
   3540   3552     1
   3540   3553     1
   3540   3543     1
   3541   3546     1
   3541   3551     1
   3541   3560     1
   3542   3557     1
   3542   3550     1
   3542   3558     1
   3543   3551     1
   3543   3545     1
   3544   3547     1
   3544   3556     1
   3544   3546     1
   3544   3551     1
   3544   3548     1
   3544   3545     1
   3545   3561     1
   3545   3550     1
   3545   3559     1
   3545   3558     1
   3546   3557     1
   3546   3561     1
   3548   3558     1
   3549   3558     1
   3552   3555     1
   3552   3556     1
   3553   3555     1
   3553   3556     1
   3556   3557     1
   3556   3558     1
   3558   3560     1
   3563   3569     1
   3563   3570     1
   3564   3567     1
   3564   3566     1
   3564   3568     1
   3565   3636     1
   3566   3571     1
   3566   3569     1
   3566   3570     1
   3567   3581     1
   3567   3582     1
   3567   3574     1
   3567   3576     1
   3568   3571     1
   3568   3569     1
   3568   3570     1
   3569   3572     1
   3569   3573     1
   3569   3636     1
   3570   3572     1
   3570   3573     1
   3570   3636     1
   3571   3584     1
   3571   3585     1
   3571   3577     1
   3571   3578     1
   3572   3574     1
   3572   3576     1
   3573   3581     1
   3573   3582     1
   3574   3636     1
   3574   3579     1
   3574   3577     1
   3574   3578     1
   3575   3636     1
   3575   3601     1
   3576   3636     1
   3576   3579     1
   3576   3577     1
   3576   3578     1
   3577   3580     1
   3577   3611     1
   3578   3580     1
   3578   3611     1
   3579   3594     1
   3580   3601     1
   3581   3636     1
   3581   3586     1
   3581   3584     1
   3581   3585     1
   3582   3636     1
   3582   3586     1
   3582   3584     1
   3582   3585     1
   3583   3636     1
   3583   3625     1
   3584   3587     1
   3584   3635     1
   3585   3587     1
   3585   3635     1
   3586   3618     1
   3587   3625     1
   3588   3595     1
   3588   3610     1
   3588   3605     1
   3588   3596     1
   3589   3602     1
   3589   3603     1
   3589   3594     1
   3589   3600     1
   3590   3591     1
   3590   3609     1
   3590   3608     1
   3590   3604     1
   3590   3602     1
   3590   3603     1
   3590   3593     1
   3591   3610     1
   3591   3596     1
   3591   3601     1
   3592   3608     1
   3592   3600     1
   3592   3607     1
   3593   3595     1
   3593   3601     1
   3594   3598     1
   3594   3595     1
   3594   3597     1
   3594   3606     1
   3594   3596     1
   3594   3601     1
   3595   3609     1
   3595   3608     1
   3595   3611     1
   3595   3600     1
   3596   3611     1
   3596   3607     1
   3598   3608     1
   3599   3608     1
   3602   3606     1
   3602   3605     1
   3603   3606     1
   3603   3605     1
   3606   3608     1
   3606   3607     1
   3608   3610     1
   3612   3619     1
   3612   3634     1
   3612   3629     1
   3612   3620     1
   3613   3626     1
   3613   3627     1
   3613   3618     1
   3613   3624     1
   3614   3615     1
   3614   3633     1
   3614   3632     1
   3614   3628     1
   3614   3626     1
   3614   3627     1
   3614   3617     1
   3615   3634     1
   3615   3620     1
   3615   3625     1
   3616   3632     1
   3616   3624     1
   3616   3631     1
   3617   3619     1
   3617   3625     1
   3618   3622     1
   3618   3619     1
   3618   3621     1
   3618   3630     1
   3618   3620     1
   3618   3625     1
   3619   3633     1
   3619   3632     1
   3619   3635     1
   3619   3624     1
   3620   3635     1
   3620   3631     1
   3622   3632     1
   3623   3632     1
   3626   3630     1
   3626   3629     1
   3627   3630     1
   3627   3629     1
   3630   3632     1
   3630   3631     1
   3632   3634     1
   3637   3643     1
   3637   3644     1
   3638   3641     1
   3638   3640     1
   3638   3642     1
   3639   3710     1
   3640   3645     1
   3640   3643     1
   3640   3644     1
   3641   3655     1
   3641   3656     1
   3641   3648     1
   3641   3650     1
   3642   3645     1
   3642   3643     1
   3642   3644     1
   3643   3646     1
   3643   3647     1
   3643   3710     1
   3644   3646     1
   3644   3647     1
   3644   3710     1
   3645   3658     1
   3645   3659     1
   3645   3651     1
   3645   3652     1
   3646   3648     1
   3646   3650     1
   3647   3655     1
   3647   3656     1
   3648   3653     1
   3648   3651     1
   3648   3652     1
   3648   3710     1
   3649   3675     1
   3649   3710     1
   3650   3653     1
   3650   3651     1
   3650   3652     1
   3650   3710     1
   3651   3654     1
   3651   3685     1
   3652   3654     1
   3652   3685     1
   3653   3668     1
   3654   3675     1
   3655   3660     1
   3655   3658     1
   3655   3659     1
   3655   3710     1
   3656   3660     1
   3656   3658     1
   3656   3659     1
   3656   3710     1
   3657   3699     1
   3657   3710     1
   3658   3661     1
   3658   3709     1
   3659   3661     1
   3659   3709     1
   3660   3692     1
   3661   3699     1
   3662   3669     1
   3662   3684     1
   3662   3679     1
   3662   3670     1
   3663   3668     1
   3663   3674     1
   3663   3676     1
   3663   3677     1
   3664   3665     1
   3664   3683     1
   3664   3682     1
   3664   3678     1
   3664   3676     1
   3664   3677     1
   3664   3667     1
   3665   3670     1
   3665   3675     1
   3665   3684     1
   3666   3681     1
   3666   3674     1
   3666   3682     1
   3667   3675     1
   3667   3669     1
   3668   3671     1
   3668   3680     1
   3668   3670     1
   3668   3675     1
   3668   3672     1
   3668   3669     1
   3669   3685     1
   3669   3674     1
   3669   3683     1
   3669   3682     1
   3670   3681     1
   3670   3685     1
   3672   3682     1
   3673   3682     1
   3676   3679     1
   3676   3680     1
   3677   3679     1
   3677   3680     1
   3680   3681     1
   3680   3682     1
   3682   3684     1
   3686   3693     1
   3686   3708     1
   3686   3703     1
   3686   3694     1
   3687   3692     1
   3687   3698     1
   3687   3700     1
   3687   3701     1
   3688   3689     1
   3688   3707     1
   3688   3706     1
   3688   3702     1
   3688   3700     1
   3688   3701     1
   3688   3691     1
   3689   3694     1
   3689   3699     1
   3689   3708     1
   3690   3705     1
   3690   3698     1
   3690   3706     1
   3691   3699     1
   3691   3693     1
   3692   3695     1
   3692   3704     1
   3692   3694     1
   3692   3699     1
   3692   3696     1
   3692   3693     1
   3693   3709     1
   3693   3698     1
   3693   3707     1
   3693   3706     1
   3694   3705     1
   3694   3709     1
   3696   3706     1
   3697   3706     1
   3700   3703     1
   3700   3704     1
   3701   3703     1
   3701   3704     1
   3704   3705     1
   3704   3706     1
   3706   3708     1
   3711   3717     1
   3711   3718     1
   3712   3715     1
   3712   3714     1
   3712   3716     1
   3713   3784     1
   3714   3719     1
   3714   3717     1
   3714   3718     1
   3715   3729     1
   3715   3730     1
   3715   3722     1
   3715   3724     1
   3716   3719     1
   3716   3717     1
   3716   3718     1
   3717   3720     1
   3717   3721     1
   3717   3784     1
   3718   3720     1
   3718   3721     1
   3718   3784     1
   3719   3732     1
   3719   3733     1
   3719   3725     1
   3719   3726     1
   3720   3722     1
   3720   3724     1
   3721   3729     1
   3721   3730     1
   3722   3784     1
   3722   3727     1
   3722   3725     1
   3722   3726     1
   3723   3784     1
   3723   3749     1
   3724   3784     1
   3724   3727     1
   3724   3725     1
   3724   3726     1
   3725   3728     1
   3725   3759     1
   3726   3728     1
   3726   3759     1
   3727   3742     1
   3728   3749     1
   3729   3784     1
   3729   3734     1
   3729   3732     1
   3729   3733     1
   3730   3784     1
   3730   3734     1
   3730   3732     1
   3730   3733     1
   3731   3784     1
   3731   3773     1
   3732   3735     1
   3732   3783     1
   3733   3735     1
   3733   3783     1
   3734   3766     1
   3735   3773     1
   3736   3743     1
   3736   3758     1
   3736   3753     1
   3736   3744     1
   3737   3750     1
   3737   3751     1
   3737   3742     1
   3737   3748     1
   3738   3739     1
   3738   3757     1
   3738   3756     1
   3738   3752     1
   3738   3750     1
   3738   3751     1
   3738   3741     1
   3739   3758     1
   3739   3744     1
   3739   3749     1
   3740   3756     1
   3740   3748     1
   3740   3755     1
   3741   3743     1
   3741   3749     1
   3742   3746     1
   3742   3743     1
   3742   3745     1
   3742   3754     1
   3742   3744     1
   3742   3749     1
   3743   3757     1
   3743   3756     1
   3743   3759     1
   3743   3748     1
   3744   3759     1
   3744   3755     1
   3746   3756     1
   3747   3756     1
   3750   3754     1
   3750   3753     1
   3751   3754     1
   3751   3753     1
   3754   3756     1
   3754   3755     1
   3756   3758     1
   3760   3767     1
   3760   3782     1
   3760   3777     1
   3760   3768     1
   3761   3774     1
   3761   3775     1
   3761   3766     1
   3761   3772     1
   3762   3763     1
   3762   3781     1
   3762   3780     1
   3762   3776     1
   3762   3774     1
   3762   3775     1
   3762   3765     1
   3763   3782     1
   3763   3768     1
   3763   3773     1
   3764   3780     1
   3764   3772     1
   3764   3779     1
   3765   3767     1
   3765   3773     1
   3766   3770     1
   3766   3767     1
   3766   3769     1
   3766   3778     1
   3766   3768     1
   3766   3773     1
   3767   3781     1
   3767   3780     1
   3767   3783     1
   3767   3772     1
   3768   3783     1
   3768   3779     1
   3770   3780     1
   3771   3780     1
   3774   3778     1
   3774   3777     1
   3775   3778     1
   3775   3777     1
   3778   3780     1
   3778   3779     1
   3780   3782     1
   3785   3791     1
   3785   3792     1
   3786   3789     1
   3786   3788     1
   3786   3790     1
   3787   3858     1
   3788   3793     1
   3788   3791     1
   3788   3792     1
   3789   3803     1
   3789   3804     1
   3789   3796     1
   3789   3798     1
   3790   3793     1
   3790   3791     1
   3790   3792     1
   3791   3794     1
   3791   3795     1
   3791   3858     1
   3792   3794     1
   3792   3795     1
   3792   3858     1
   3793   3806     1
   3793   3807     1
   3793   3799     1
   3793   3800     1
   3794   3796     1
   3794   3798     1
   3795   3803     1
   3795   3804     1
   3796   3801     1
   3796   3799     1
   3796   3800     1
   3796   3858     1
   3797   3823     1
   3797   3858     1
   3798   3801     1
   3798   3799     1
   3798   3800     1
   3798   3858     1
   3799   3802     1
   3799   3833     1
   3800   3802     1
   3800   3833     1
   3801   3816     1
   3802   3823     1
   3803   3808     1
   3803   3806     1
   3803   3807     1
   3803   3858     1
   3804   3808     1
   3804   3806     1
   3804   3807     1
   3804   3858     1
   3805   3847     1
   3805   3858     1
   3806   3809     1
   3806   3857     1
   3807   3809     1
   3807   3857     1
   3808   3840     1
   3809   3847     1
   3810   3817     1
   3810   3832     1
   3810   3827     1
   3810   3818     1
   3811   3816     1
   3811   3822     1
   3811   3824     1
   3811   3825     1
   3812   3813     1
   3812   3831     1
   3812   3830     1
   3812   3826     1
   3812   3824     1
   3812   3825     1
   3812   3815     1
   3813   3818     1
   3813   3823     1
   3813   3832     1
   3814   3829     1
   3814   3822     1
   3814   3830     1
   3815   3823     1
   3815   3817     1
   3816   3819     1
   3816   3828     1
   3816   3818     1
   3816   3823     1
   3816   3820     1
   3816   3817     1
   3817   3833     1
   3817   3822     1
   3817   3831     1
   3817   3830     1
   3818   3829     1
   3818   3833     1
   3820   3830     1
   3821   3830     1
   3824   3827     1
   3824   3828     1
   3825   3827     1
   3825   3828     1
   3828   3829     1
   3828   3830     1
   3830   3832     1
   3834   3841     1
   3834   3856     1
   3834   3851     1
   3834   3842     1
   3835   3840     1
   3835   3846     1
   3835   3848     1
   3835   3849     1
   3836   3837     1
   3836   3855     1
   3836   3854     1
   3836   3850     1
   3836   3848     1
   3836   3849     1
   3836   3839     1
   3837   3842     1
   3837   3847     1
   3837   3856     1
   3838   3853     1
   3838   3846     1
   3838   3854     1
   3839   3847     1
   3839   3841     1
   3840   3843     1
   3840   3852     1
   3840   3842     1
   3840   3847     1
   3840   3844     1
   3840   3841     1
   3841   3857     1
   3841   3846     1
   3841   3855     1
   3841   3854     1
   3842   3853     1
   3842   3857     1
   3844   3854     1
   3845   3854     1
   3848   3851     1
   3848   3852     1
   3849   3851     1
   3849   3852     1
   3852   3853     1
   3852   3854     1
   3854   3856     1
   3859   3865     1
   3859   3866     1
   3860   3863     1
   3860   3862     1
   3860   3864     1
   3861   3932     1
   3862   3867     1
   3862   3865     1
   3862   3866     1
   3863   3877     1
   3863   3878     1
   3863   3870     1
   3863   3872     1
   3864   3867     1
   3864   3865     1
   3864   3866     1
   3865   3868     1
   3865   3869     1
   3865   3932     1
   3866   3868     1
   3866   3869     1
   3866   3932     1
   3867   3880     1
   3867   3881     1
   3867   3873     1
   3867   3874     1
   3868   3870     1
   3868   3872     1
   3869   3877     1
   3869   3878     1
   3870   3932     1
   3870   3875     1
   3870   3873     1
   3870   3874     1
   3871   3932     1
   3871   3897     1
   3872   3932     1
   3872   3875     1
   3872   3873     1
   3872   3874     1
   3873   3876     1
   3873   3907     1
   3874   3876     1
   3874   3907     1
   3875   3890     1
   3876   3897     1
   3877   3932     1
   3877   3882     1
   3877   3880     1
   3877   3881     1
   3878   3932     1
   3878   3882     1
   3878   3880     1
   3878   3881     1
   3879   3932     1
   3879   3921     1
   3880   3883     1
   3880   3931     1
   3881   3883     1
   3881   3931     1
   3882   3914     1
   3883   3921     1
   3884   3891     1
   3884   3906     1
   3884   3901     1
   3884   3892     1
   3885   3898     1
   3885   3899     1
   3885   3890     1
   3885   3896     1
   3886   3887     1
   3886   3905     1
   3886   3904     1
   3886   3900     1
   3886   3898     1
   3886   3899     1
   3886   3889     1
   3887   3906     1
   3887   3892     1
   3887   3897     1
   3888   3904     1
   3888   3896     1
   3888   3903     1
   3889   3891     1
   3889   3897     1
   3890   3894     1
   3890   3891     1
   3890   3893     1
   3890   3902     1
   3890   3892     1
   3890   3897     1
   3891   3905     1
   3891   3904     1
   3891   3907     1
   3891   3896     1
   3892   3907     1
   3892   3903     1
   3894   3904     1
   3895   3904     1
   3898   3902     1
   3898   3901     1
   3899   3902     1
   3899   3901     1
   3902   3904     1
   3902   3903     1
   3904   3906     1
   3908   3915     1
   3908   3930     1
   3908   3925     1
   3908   3916     1
   3909   3922     1
   3909   3923     1
   3909   3914     1
   3909   3920     1
   3910   3911     1
   3910   3929     1
   3910   3928     1
   3910   3924     1
   3910   3922     1
   3910   3923     1
   3910   3913     1
   3911   3930     1
   3911   3916     1
   3911   3921     1
   3912   3928     1
   3912   3920     1
   3912   3927     1
   3913   3915     1
   3913   3921     1
   3914   3918     1
   3914   3915     1
   3914   3917     1
   3914   3926     1
   3914   3916     1
   3914   3921     1
   3915   3929     1
   3915   3928     1
   3915   3931     1
   3915   3920     1
   3916   3931     1
   3916   3927     1
   3918   3928     1
   3919   3928     1
   3922   3926     1
   3922   3925     1
   3923   3926     1
   3923   3925     1
   3926   3928     1
   3926   3927     1
   3928   3930     1
   3933   3939     1
   3933   3940     1
   3934   3937     1
   3934   3936     1
   3934   3938     1
   3935   4006     1
   3936   3941     1
   3936   3939     1
   3936   3940     1
   3937   3951     1
   3937   3952     1
   3937   3944     1
   3937   3946     1
   3938   3941     1
   3938   3939     1
   3938   3940     1
   3939   3942     1
   3939   3943     1
   3939   4006     1
   3940   3942     1
   3940   3943     1
   3940   4006     1
   3941   3954     1
   3941   3955     1
   3941   3947     1
   3941   3948     1
   3942   3944     1
   3942   3946     1
   3943   3951     1
   3943   3952     1
   3944   3949     1
   3944   3947     1
   3944   3948     1
   3944   4006     1
   3945   3971     1
   3945   4006     1
   3946   3949     1
   3946   3947     1
   3946   3948     1
   3946   4006     1
   3947   3950     1
   3947   3981     1
   3948   3950     1
   3948   3981     1
   3949   3964     1
   3950   3971     1
   3951   3956     1
   3951   3954     1
   3951   3955     1
   3951   4006     1
   3952   3956     1
   3952   3954     1
   3952   3955     1
   3952   4006     1
   3953   3995     1
   3953   4006     1
   3954   3957     1
   3954   4005     1
   3955   3957     1
   3955   4005     1
   3956   3988     1
   3957   3995     1
   3958   3965     1
   3958   3980     1
   3958   3975     1
   3958   3966     1
   3959   3964     1
   3959   3970     1
   3959   3972     1
   3959   3973     1
   3960   3961     1
   3960   3979     1
   3960   3978     1
   3960   3974     1
   3960   3972     1
   3960   3973     1
   3960   3963     1
   3961   3966     1
   3961   3971     1
   3961   3980     1
   3962   3977     1
   3962   3970     1
   3962   3978     1
   3963   3971     1
   3963   3965     1
   3964   3967     1
   3964   3976     1
   3964   3966     1
   3964   3971     1
   3964   3968     1
   3964   3965     1
   3965   3981     1
   3965   3970     1
   3965   3979     1
   3965   3978     1
   3966   3977     1
   3966   3981     1
   3968   3978     1
   3969   3978     1
   3972   3975     1
   3972   3976     1
   3973   3975     1
   3973   3976     1
   3976   3977     1
   3976   3978     1
   3978   3980     1
   3982   3989     1
   3982   4004     1
   3982   3999     1
   3982   3990     1
   3983   3988     1
   3983   3994     1
   3983   3996     1
   3983   3997     1
   3984   3985     1
   3984   4003     1
   3984   4002     1
   3984   3998     1
   3984   3996     1
   3984   3997     1
   3984   3987     1
   3985   3990     1
   3985   3995     1
   3985   4004     1
   3986   4001     1
   3986   3994     1
   3986   4002     1
   3987   3995     1
   3987   3989     1
   3988   3991     1
   3988   4000     1
   3988   3990     1
   3988   3995     1
   3988   3992     1
   3988   3989     1
   3989   4005     1
   3989   3994     1
   3989   4003     1
   3989   4002     1
   3990   4001     1
   3990   4005     1
   3992   4002     1
   3993   4002     1
   3996   3999     1
   3996   4000     1
   3997   3999     1
   3997   4000     1
   4000   4001     1
   4000   4002     1
   4002   4004     1
   4007   4013     1
   4007   4014     1
   4008   4011     1
   4008   4010     1
   4008   4012     1
   4009   4080     1
   4010   4015     1
   4010   4013     1
   4010   4014     1
   4011   4025     1
   4011   4026     1
   4011   4018     1
   4011   4020     1
   4012   4015     1
   4012   4013     1
   4012   4014     1
   4013   4016     1
   4013   4017     1
   4013   4080     1
   4014   4016     1
   4014   4017     1
   4014   4080     1
   4015   4028     1
   4015   4029     1
   4015   4021     1
   4015   4022     1
   4016   4018     1
   4016   4020     1
   4017   4025     1
   4017   4026     1
   4018   4080     1
   4018   4023     1
   4018   4021     1
   4018   4022     1
   4019   4080     1
   4019   4045     1
   4020   4080     1
   4020   4023     1
   4020   4021     1
   4020   4022     1
   4021   4024     1
   4021   4055     1
   4022   4024     1
   4022   4055     1
   4023   4038     1
   4024   4045     1
   4025   4080     1
   4025   4030     1
   4025   4028     1
   4025   4029     1
   4026   4080     1
   4026   4030     1
   4026   4028     1
   4026   4029     1
   4027   4080     1
   4027   4069     1
   4028   4031     1
   4028   4079     1
   4029   4031     1
   4029   4079     1
   4030   4062     1
   4031   4069     1
   4032   4039     1
   4032   4054     1
   4032   4049     1
   4032   4040     1
   4033   4046     1
   4033   4047     1
   4033   4038     1
   4033   4044     1
   4034   4035     1
   4034   4053     1
   4034   4052     1
   4034   4048     1
   4034   4046     1
   4034   4047     1
   4034   4037     1
   4035   4054     1
   4035   4040     1
   4035   4045     1
   4036   4052     1
   4036   4044     1
   4036   4051     1
   4037   4039     1
   4037   4045     1
   4038   4042     1
   4038   4039     1
   4038   4041     1
   4038   4050     1
   4038   4040     1
   4038   4045     1
   4039   4053     1
   4039   4052     1
   4039   4055     1
   4039   4044     1
   4040   4055     1
   4040   4051     1
   4042   4052     1
   4043   4052     1
   4046   4050     1
   4046   4049     1
   4047   4050     1
   4047   4049     1
   4050   4052     1
   4050   4051     1
   4052   4054     1
   4056   4063     1
   4056   4078     1
   4056   4073     1
   4056   4064     1
   4057   4070     1
   4057   4071     1
   4057   4062     1
   4057   4068     1
   4058   4059     1
   4058   4077     1
   4058   4076     1
   4058   4072     1
   4058   4070     1
   4058   4071     1
   4058   4061     1
   4059   4078     1
   4059   4064     1
   4059   4069     1
   4060   4076     1
   4060   4068     1
   4060   4075     1
   4061   4063     1
   4061   4069     1
   4062   4066     1
   4062   4063     1
   4062   4065     1
   4062   4074     1
   4062   4064     1
   4062   4069     1
   4063   4077     1
   4063   4076     1
   4063   4079     1
   4063   4068     1
   4064   4079     1
   4064   4075     1
   4066   4076     1
   4067   4076     1
   4070   4074     1
   4070   4073     1
   4071   4074     1
   4071   4073     1
   4074   4076     1
   4074   4075     1
   4076   4078     1
   4081   4087     1
   4081   4088     1
   4082   4085     1
   4082   4084     1
   4082   4086     1
   4083   4154     1
   4084   4089     1
   4084   4087     1
   4084   4088     1
   4085   4099     1
   4085   4100     1
   4085   4092     1
   4085   4094     1
   4086   4089     1
   4086   4087     1
   4086   4088     1
   4087   4090     1
   4087   4091     1
   4087   4154     1
   4088   4090     1
   4088   4091     1
   4088   4154     1
   4089   4102     1
   4089   4103     1
   4089   4095     1
   4089   4096     1
   4090   4092     1
   4090   4094     1
   4091   4099     1
   4091   4100     1
   4092   4097     1
   4092   4095     1
   4092   4096     1
   4092   4154     1
   4093   4119     1
   4093   4154     1
   4094   4097     1
   4094   4095     1
   4094   4096     1
   4094   4154     1
   4095   4098     1
   4095   4129     1
   4096   4098     1
   4096   4129     1
   4097   4112     1
   4098   4119     1
   4099   4104     1
   4099   4102     1
   4099   4103     1
   4099   4154     1
   4100   4104     1
   4100   4102     1
   4100   4103     1
   4100   4154     1
   4101   4143     1
   4101   4154     1
   4102   4105     1
   4102   4153     1
   4103   4105     1
   4103   4153     1
   4104   4136     1
   4105   4143     1
   4106   4113     1
   4106   4128     1
   4106   4123     1
   4106   4114     1
   4107   4112     1
   4107   4118     1
   4107   4120     1
   4107   4121     1
   4108   4109     1
   4108   4127     1
   4108   4126     1
   4108   4122     1
   4108   4120     1
   4108   4121     1
   4108   4111     1
   4109   4114     1
   4109   4119     1
   4109   4128     1
   4110   4125     1
   4110   4118     1
   4110   4126     1
   4111   4119     1
   4111   4113     1
   4112   4115     1
   4112   4124     1
   4112   4114     1
   4112   4119     1
   4112   4116     1
   4112   4113     1
   4113   4129     1
   4113   4118     1
   4113   4127     1
   4113   4126     1
   4114   4125     1
   4114   4129     1
   4116   4126     1
   4117   4126     1
   4120   4123     1
   4120   4124     1
   4121   4123     1
   4121   4124     1
   4124   4125     1
   4124   4126     1
   4126   4128     1
   4130   4137     1
   4130   4152     1
   4130   4147     1
   4130   4138     1
   4131   4136     1
   4131   4142     1
   4131   4144     1
   4131   4145     1
   4132   4133     1
   4132   4151     1
   4132   4150     1
   4132   4146     1
   4132   4144     1
   4132   4145     1
   4132   4135     1
   4133   4138     1
   4133   4143     1
   4133   4152     1
   4134   4149     1
   4134   4142     1
   4134   4150     1
   4135   4143     1
   4135   4137     1
   4136   4139     1
   4136   4148     1
   4136   4138     1
   4136   4143     1
   4136   4140     1
   4136   4137     1
   4137   4153     1
   4137   4142     1
   4137   4151     1
   4137   4150     1
   4138   4149     1
   4138   4153     1
   4140   4150     1
   4141   4150     1
   4144   4147     1
   4144   4148     1
   4145   4147     1
   4145   4148     1
   4148   4149     1
   4148   4150     1
   4150   4152     1
   4155   4161     1
   4155   4162     1
   4156   4159     1
   4156   4158     1
   4156   4160     1
   4157   4228     1
   4158   4163     1
   4158   4161     1
   4158   4162     1
   4159   4173     1
   4159   4174     1
   4159   4166     1
   4159   4168     1
   4160   4163     1
   4160   4161     1
   4160   4162     1
   4161   4164     1
   4161   4165     1
   4161   4228     1
   4162   4164     1
   4162   4165     1
   4162   4228     1
   4163   4176     1
   4163   4177     1
   4163   4169     1
   4163   4170     1
   4164   4166     1
   4164   4168     1
   4165   4173     1
   4165   4174     1
   4166   4228     1
   4166   4171     1
   4166   4169     1
   4166   4170     1
   4167   4228     1
   4167   4193     1
   4168   4228     1
   4168   4171     1
   4168   4169     1
   4168   4170     1
   4169   4172     1
   4169   4203     1
   4170   4172     1
   4170   4203     1
   4171   4186     1
   4172   4193     1
   4173   4228     1
   4173   4178     1
   4173   4176     1
   4173   4177     1
   4174   4228     1
   4174   4178     1
   4174   4176     1
   4174   4177     1
   4175   4228     1
   4175   4217     1
   4176   4179     1
   4176   4227     1
   4177   4179     1
   4177   4227     1
   4178   4210     1
   4179   4217     1
   4180   4187     1
   4180   4202     1
   4180   4197     1
   4180   4188     1
   4181   4194     1
   4181   4195     1
   4181   4186     1
   4181   4192     1
   4182   4183     1
   4182   4201     1
   4182   4200     1
   4182   4196     1
   4182   4194     1
   4182   4195     1
   4182   4185     1
   4183   4202     1
   4183   4188     1
   4183   4193     1
   4184   4200     1
   4184   4192     1
   4184   4199     1
   4185   4187     1
   4185   4193     1
   4186   4190     1
   4186   4187     1
   4186   4189     1
   4186   4198     1
   4186   4188     1
   4186   4193     1
   4187   4201     1
   4187   4200     1
   4187   4203     1
   4187   4192     1
   4188   4203     1
   4188   4199     1
   4190   4200     1
   4191   4200     1
   4194   4198     1
   4194   4197     1
   4195   4198     1
   4195   4197     1
   4198   4200     1
   4198   4199     1
   4200   4202     1
   4204   4211     1
   4204   4226     1
   4204   4221     1
   4204   4212     1
   4205   4218     1
   4205   4219     1
   4205   4210     1
   4205   4216     1
   4206   4207     1
   4206   4225     1
   4206   4224     1
   4206   4220     1
   4206   4218     1
   4206   4219     1
   4206   4209     1
   4207   4226     1
   4207   4212     1
   4207   4217     1
   4208   4224     1
   4208   4216     1
   4208   4223     1
   4209   4211     1
   4209   4217     1
   4210   4214     1
   4210   4211     1
   4210   4213     1
   4210   4222     1
   4210   4212     1
   4210   4217     1
   4211   4225     1
   4211   4224     1
   4211   4227     1
   4211   4216     1
   4212   4227     1
   4212   4223     1
   4214   4224     1
   4215   4224     1
   4218   4222     1
   4218   4221     1
   4219   4222     1
   4219   4221     1
   4222   4224     1
   4222   4223     1
   4224   4226     1
   4229   4235     1
   4229   4236     1
   4230   4233     1
   4230   4232     1
   4230   4234     1
   4231   4302     1
   4232   4237     1
   4232   4235     1
   4232   4236     1
   4233   4247     1
   4233   4248     1
   4233   4240     1
   4233   4242     1
   4234   4237     1
   4234   4235     1
   4234   4236     1
   4235   4238     1
   4235   4239     1
   4235   4302     1
   4236   4238     1
   4236   4239     1
   4236   4302     1
   4237   4250     1
   4237   4251     1
   4237   4243     1
   4237   4244     1
   4238   4240     1
   4238   4242     1
   4239   4247     1
   4239   4248     1
   4240   4245     1
   4240   4243     1
   4240   4244     1
   4240   4302     1
   4241   4267     1
   4241   4302     1
   4242   4245     1
   4242   4243     1
   4242   4244     1
   4242   4302     1
   4243   4246     1
   4243   4277     1
   4244   4246     1
   4244   4277     1
   4245   4260     1
   4246   4267     1
   4247   4252     1
   4247   4250     1
   4247   4251     1
   4247   4302     1
   4248   4252     1
   4248   4250     1
   4248   4251     1
   4248   4302     1
   4249   4291     1
   4249   4302     1
   4250   4253     1
   4250   4301     1
   4251   4253     1
   4251   4301     1
   4252   4284     1
   4253   4291     1
   4254   4261     1
   4254   4276     1
   4254   4271     1
   4254   4262     1
   4255   4260     1
   4255   4266     1
   4255   4268     1
   4255   4269     1
   4256   4257     1
   4256   4275     1
   4256   4274     1
   4256   4270     1
   4256   4268     1
   4256   4269     1
   4256   4259     1
   4257   4262     1
   4257   4267     1
   4257   4276     1
   4258   4273     1
   4258   4266     1
   4258   4274     1
   4259   4267     1
   4259   4261     1
   4260   4263     1
   4260   4272     1
   4260   4262     1
   4260   4267     1
   4260   4264     1
   4260   4261     1
   4261   4277     1
   4261   4266     1
   4261   4275     1
   4261   4274     1
   4262   4273     1
   4262   4277     1
   4264   4274     1
   4265   4274     1
   4268   4271     1
   4268   4272     1
   4269   4271     1
   4269   4272     1
   4272   4273     1
   4272   4274     1
   4274   4276     1
   4278   4285     1
   4278   4300     1
   4278   4295     1
   4278   4286     1
   4279   4284     1
   4279   4290     1
   4279   4292     1
   4279   4293     1
   4280   4281     1
   4280   4299     1
   4280   4298     1
   4280   4294     1
   4280   4292     1
   4280   4293     1
   4280   4283     1
   4281   4286     1
   4281   4291     1
   4281   4300     1
   4282   4297     1
   4282   4290     1
   4282   4298     1
   4283   4291     1
   4283   4285     1
   4284   4287     1
   4284   4296     1
   4284   4286     1
   4284   4291     1
   4284   4288     1
   4284   4285     1
   4285   4301     1
   4285   4290     1
   4285   4299     1
   4285   4298     1
   4286   4297     1
   4286   4301     1
   4288   4298     1
   4289   4298     1
   4292   4295     1
   4292   4296     1
   4293   4295     1
   4293   4296     1
   4296   4297     1
   4296   4298     1
   4298   4300     1
   4303   4309     1
   4303   4310     1
   4304   4307     1
   4304   4306     1
   4304   4308     1
   4305   4376     1
   4306   4311     1
   4306   4309     1
   4306   4310     1
   4307   4321     1
   4307   4322     1
   4307   4314     1
   4307   4316     1
   4308   4311     1
   4308   4309     1
   4308   4310     1
   4309   4312     1
   4309   4313     1
   4309   4376     1
   4310   4312     1
   4310   4313     1
   4310   4376     1
   4311   4324     1
   4311   4325     1
   4311   4317     1
   4311   4318     1
   4312   4314     1
   4312   4316     1
   4313   4321     1
   4313   4322     1
   4314   4376     1
   4314   4319     1
   4314   4317     1
   4314   4318     1
   4315   4376     1
   4315   4341     1
   4316   4376     1
   4316   4319     1
   4316   4317     1
   4316   4318     1
   4317   4320     1
   4317   4351     1
   4318   4320     1
   4318   4351     1
   4319   4334     1
   4320   4341     1
   4321   4376     1
   4321   4326     1
   4321   4324     1
   4321   4325     1
   4322   4376     1
   4322   4326     1
   4322   4324     1
   4322   4325     1
   4323   4376     1
   4323   4365     1
   4324   4327     1
   4324   4375     1
   4325   4327     1
   4325   4375     1
   4326   4358     1
   4327   4365     1
   4328   4335     1
   4328   4350     1
   4328   4345     1
   4328   4336     1
   4329   4342     1
   4329   4343     1
   4329   4334     1
   4329   4340     1
   4330   4331     1
   4330   4349     1
   4330   4348     1
   4330   4344     1
   4330   4342     1
   4330   4343     1
   4330   4333     1
   4331   4350     1
   4331   4336     1
   4331   4341     1
   4332   4348     1
   4332   4340     1
   4332   4347     1
   4333   4335     1
   4333   4341     1
   4334   4338     1
   4334   4335     1
   4334   4337     1
   4334   4346     1
   4334   4336     1
   4334   4341     1
   4335   4349     1
   4335   4348     1
   4335   4351     1
   4335   4340     1
   4336   4351     1
   4336   4347     1
   4338   4348     1
   4339   4348     1
   4342   4346     1
   4342   4345     1
   4343   4346     1
   4343   4345     1
   4346   4348     1
   4346   4347     1
   4348   4350     1
   4352   4359     1
   4352   4374     1
   4352   4369     1
   4352   4360     1
   4353   4366     1
   4353   4367     1
   4353   4358     1
   4353   4364     1
   4354   4355     1
   4354   4373     1
   4354   4372     1
   4354   4368     1
   4354   4366     1
   4354   4367     1
   4354   4357     1
   4355   4374     1
   4355   4360     1
   4355   4365     1
   4356   4372     1
   4356   4364     1
   4356   4371     1
   4357   4359     1
   4357   4365     1
   4358   4362     1
   4358   4359     1
   4358   4361     1
   4358   4370     1
   4358   4360     1
   4358   4365     1
   4359   4373     1
   4359   4372     1
   4359   4375     1
   4359   4364     1
   4360   4375     1
   4360   4371     1
   4362   4372     1
   4363   4372     1
   4366   4370     1
   4366   4369     1
   4367   4370     1
   4367   4369     1
   4370   4372     1
   4370   4371     1
   4372   4374     1
   4377   4383     1
   4377   4384     1
   4378   4381     1
   4378   4380     1
   4378   4382     1
   4379   4450     1
   4380   4385     1
   4380   4383     1
   4380   4384     1
   4381   4395     1
   4381   4396     1
   4381   4388     1
   4381   4390     1
   4382   4385     1
   4382   4383     1
   4382   4384     1
   4383   4386     1
   4383   4387     1
   4383   4450     1
   4384   4386     1
   4384   4387     1
   4384   4450     1
   4385   4398     1
   4385   4399     1
   4385   4391     1
   4385   4392     1
   4386   4388     1
   4386   4390     1
   4387   4395     1
   4387   4396     1
   4388   4393     1
   4388   4391     1
   4388   4392     1
   4388   4450     1
   4389   4415     1
   4389   4450     1
   4390   4393     1
   4390   4391     1
   4390   4392     1
   4390   4450     1
   4391   4394     1
   4391   4425     1
   4392   4394     1
   4392   4425     1
   4393   4408     1
   4394   4415     1
   4395   4400     1
   4395   4398     1
   4395   4399     1
   4395   4450     1
   4396   4400     1
   4396   4398     1
   4396   4399     1
   4396   4450     1
   4397   4439     1
   4397   4450     1
   4398   4401     1
   4398   4449     1
   4399   4401     1
   4399   4449     1
   4400   4432     1
   4401   4439     1
   4402   4409     1
   4402   4424     1
   4402   4419     1
   4402   4410     1
   4403   4408     1
   4403   4414     1
   4403   4416     1
   4403   4417     1
   4404   4405     1
   4404   4423     1
   4404   4422     1
   4404   4418     1
   4404   4416     1
   4404   4417     1
   4404   4407     1
   4405   4410     1
   4405   4415     1
   4405   4424     1
   4406   4421     1
   4406   4414     1
   4406   4422     1
   4407   4415     1
   4407   4409     1
   4408   4411     1
   4408   4420     1
   4408   4410     1
   4408   4415     1
   4408   4412     1
   4408   4409     1
   4409   4425     1
   4409   4414     1
   4409   4423     1
   4409   4422     1
   4410   4421     1
   4410   4425     1
   4412   4422     1
   4413   4422     1
   4416   4419     1
   4416   4420     1
   4417   4419     1
   4417   4420     1
   4420   4421     1
   4420   4422     1
   4422   4424     1
   4426   4433     1
   4426   4448     1
   4426   4443     1
   4426   4434     1
   4427   4432     1
   4427   4438     1
   4427   4440     1
   4427   4441     1
   4428   4429     1
   4428   4447     1
   4428   4446     1
   4428   4442     1
   4428   4440     1
   4428   4441     1
   4428   4431     1
   4429   4434     1
   4429   4439     1
   4429   4448     1
   4430   4445     1
   4430   4438     1
   4430   4446     1
   4431   4439     1
   4431   4433     1
   4432   4435     1
   4432   4444     1
   4432   4434     1
   4432   4439     1
   4432   4436     1
   4432   4433     1
   4433   4449     1
   4433   4438     1
   4433   4447     1
   4433   4446     1
   4434   4445     1
   4434   4449     1
   4436   4446     1
   4437   4446     1
   4440   4443     1
   4440   4444     1
   4441   4443     1
   4441   4444     1
   4444   4445     1
   4444   4446     1
   4446   4448     1
   4451   4457     1
   4451   4458     1
   4452   4455     1
   4452   4454     1
   4452   4456     1
   4453   4524     1
   4454   4459     1
   4454   4457     1
   4454   4458     1
   4455   4469     1
   4455   4470     1
   4455   4462     1
   4455   4464     1
   4456   4459     1
   4456   4457     1
   4456   4458     1
   4457   4460     1
   4457   4461     1
   4457   4524     1
   4458   4460     1
   4458   4461     1
   4458   4524     1
   4459   4472     1
   4459   4473     1
   4459   4465     1
   4459   4466     1
   4460   4462     1
   4460   4464     1
   4461   4469     1
   4461   4470     1
   4462   4524     1
   4462   4467     1
   4462   4465     1
   4462   4466     1
   4463   4524     1
   4463   4489     1
   4464   4524     1
   4464   4467     1
   4464   4465     1
   4464   4466     1
   4465   4468     1
   4465   4499     1
   4466   4468     1
   4466   4499     1
   4467   4482     1
   4468   4489     1
   4469   4524     1
   4469   4474     1
   4469   4472     1
   4469   4473     1
   4470   4524     1
   4470   4474     1
   4470   4472     1
   4470   4473     1
   4471   4524     1
   4471   4513     1
   4472   4475     1
   4472   4523     1
   4473   4475     1
   4473   4523     1
   4474   4506     1
   4475   4513     1
   4476   4483     1
   4476   4498     1
   4476   4493     1
   4476   4484     1
   4477   4490     1
   4477   4491     1
   4477   4482     1
   4477   4488     1
   4478   4479     1
   4478   4497     1
   4478   4496     1
   4478   4492     1
   4478   4490     1
   4478   4491     1
   4478   4481     1
   4479   4498     1
   4479   4484     1
   4479   4489     1
   4480   4496     1
   4480   4488     1
   4480   4495     1
   4481   4483     1
   4481   4489     1
   4482   4486     1
   4482   4483     1
   4482   4485     1
   4482   4494     1
   4482   4484     1
   4482   4489     1
   4483   4497     1
   4483   4496     1
   4483   4499     1
   4483   4488     1
   4484   4499     1
   4484   4495     1
   4486   4496     1
   4487   4496     1
   4490   4494     1
   4490   4493     1
   4491   4494     1
   4491   4493     1
   4494   4496     1
   4494   4495     1
   4496   4498     1
   4500   4507     1
   4500   4522     1
   4500   4517     1
   4500   4508     1
   4501   4514     1
   4501   4515     1
   4501   4506     1
   4501   4512     1
   4502   4503     1
   4502   4521     1
   4502   4520     1
   4502   4516     1
   4502   4514     1
   4502   4515     1
   4502   4505     1
   4503   4522     1
   4503   4508     1
   4503   4513     1
   4504   4520     1
   4504   4512     1
   4504   4519     1
   4505   4507     1
   4505   4513     1
   4506   4510     1
   4506   4507     1
   4506   4509     1
   4506   4518     1
   4506   4508     1
   4506   4513     1
   4507   4521     1
   4507   4520     1
   4507   4523     1
   4507   4512     1
   4508   4523     1
   4508   4519     1
   4510   4520     1
   4511   4520     1
   4514   4518     1
   4514   4517     1
   4515   4518     1
   4515   4517     1
   4518   4520     1
   4518   4519     1
   4520   4522     1
   4525   4531     1
   4525   4532     1
   4526   4529     1
   4526   4528     1
   4526   4530     1
   4527   4598     1
   4528   4533     1
   4528   4531     1
   4528   4532     1
   4529   4543     1
   4529   4544     1
   4529   4536     1
   4529   4538     1
   4530   4533     1
   4530   4531     1
   4530   4532     1
   4531   4534     1
   4531   4535     1
   4531   4598     1
   4532   4534     1
   4532   4535     1
   4532   4598     1
   4533   4546     1
   4533   4547     1
   4533   4539     1
   4533   4540     1
   4534   4536     1
   4534   4538     1
   4535   4543     1
   4535   4544     1
   4536   4541     1
   4536   4539     1
   4536   4540     1
   4536   4598     1
   4537   4563     1
   4537   4598     1
   4538   4541     1
   4538   4539     1
   4538   4540     1
   4538   4598     1
   4539   4542     1
   4539   4573     1
   4540   4542     1
   4540   4573     1
   4541   4556     1
   4542   4563     1
   4543   4548     1
   4543   4546     1
   4543   4547     1
   4543   4598     1
   4544   4548     1
   4544   4546     1
   4544   4547     1
   4544   4598     1
   4545   4587     1
   4545   4598     1
   4546   4549     1
   4546   4597     1
   4547   4549     1
   4547   4597     1
   4548   4580     1
   4549   4587     1
   4550   4557     1
   4550   4572     1
   4550   4567     1
   4550   4558     1
   4551   4556     1
   4551   4562     1
   4551   4564     1
   4551   4565     1
   4552   4553     1
   4552   4571     1
   4552   4570     1
   4552   4566     1
   4552   4564     1
   4552   4565     1
   4552   4555     1
   4553   4558     1
   4553   4563     1
   4553   4572     1
   4554   4569     1
   4554   4562     1
   4554   4570     1
   4555   4563     1
   4555   4557     1
   4556   4559     1
   4556   4568     1
   4556   4558     1
   4556   4563     1
   4556   4560     1
   4556   4557     1
   4557   4573     1
   4557   4562     1
   4557   4571     1
   4557   4570     1
   4558   4569     1
   4558   4573     1
   4560   4570     1
   4561   4570     1
   4564   4567     1
   4564   4568     1
   4565   4567     1
   4565   4568     1
   4568   4569     1
   4568   4570     1
   4570   4572     1
   4574   4581     1
   4574   4596     1
   4574   4591     1
   4574   4582     1
   4575   4580     1
   4575   4586     1
   4575   4588     1
   4575   4589     1
   4576   4577     1
   4576   4595     1
   4576   4594     1
   4576   4590     1
   4576   4588     1
   4576   4589     1
   4576   4579     1
   4577   4582     1
   4577   4587     1
   4577   4596     1
   4578   4593     1
   4578   4586     1
   4578   4594     1
   4579   4587     1
   4579   4581     1
   4580   4583     1
   4580   4592     1
   4580   4582     1
   4580   4587     1
   4580   4584     1
   4580   4581     1
   4581   4597     1
   4581   4586     1
   4581   4595     1
   4581   4594     1
   4582   4593     1
   4582   4597     1
   4584   4594     1
   4585   4594     1
   4588   4591     1
   4588   4592     1
   4589   4591     1
   4589   4592     1
   4592   4593     1
   4592   4594     1
   4594   4596     1
   4599   4605     1
   4599   4606     1
   4600   4603     1
   4600   4602     1
   4600   4604     1
   4601   4672     1
   4602   4607     1
   4602   4605     1
   4602   4606     1
   4603   4617     1
   4603   4618     1
   4603   4610     1
   4603   4612     1
   4604   4607     1
   4604   4605     1
   4604   4606     1
   4605   4608     1
   4605   4609     1
   4605   4672     1
   4606   4608     1
   4606   4609     1
   4606   4672     1
   4607   4620     1
   4607   4621     1
   4607   4613     1
   4607   4614     1
   4608   4610     1
   4608   4612     1
   4609   4617     1
   4609   4618     1
   4610   4672     1
   4610   4615     1
   4610   4613     1
   4610   4614     1
   4611   4672     1
   4611   4637     1
   4612   4672     1
   4612   4615     1
   4612   4613     1
   4612   4614     1
   4613   4616     1
   4613   4647     1
   4614   4616     1
   4614   4647     1
   4615   4630     1
   4616   4637     1
   4617   4672     1
   4617   4622     1
   4617   4620     1
   4617   4621     1
   4618   4672     1
   4618   4622     1
   4618   4620     1
   4618   4621     1
   4619   4672     1
   4619   4661     1
   4620   4623     1
   4620   4671     1
   4621   4623     1
   4621   4671     1
   4622   4654     1
   4623   4661     1
   4624   4631     1
   4624   4646     1
   4624   4641     1
   4624   4632     1
   4625   4638     1
   4625   4639     1
   4625   4630     1
   4625   4636     1
   4626   4627     1
   4626   4645     1
   4626   4644     1
   4626   4640     1
   4626   4638     1
   4626   4639     1
   4626   4629     1
   4627   4646     1
   4627   4632     1
   4627   4637     1
   4628   4644     1
   4628   4636     1
   4628   4643     1
   4629   4631     1
   4629   4637     1
   4630   4634     1
   4630   4631     1
   4630   4633     1
   4630   4642     1
   4630   4632     1
   4630   4637     1
   4631   4645     1
   4631   4644     1
   4631   4647     1
   4631   4636     1
   4632   4647     1
   4632   4643     1
   4634   4644     1
   4635   4644     1
   4638   4642     1
   4638   4641     1
   4639   4642     1
   4639   4641     1
   4642   4644     1
   4642   4643     1
   4644   4646     1
   4648   4655     1
   4648   4670     1
   4648   4665     1
   4648   4656     1
   4649   4662     1
   4649   4663     1
   4649   4654     1
   4649   4660     1
   4650   4651     1
   4650   4669     1
   4650   4668     1
   4650   4664     1
   4650   4662     1
   4650   4663     1
   4650   4653     1
   4651   4670     1
   4651   4656     1
   4651   4661     1
   4652   4668     1
   4652   4660     1
   4652   4667     1
   4653   4655     1
   4653   4661     1
   4654   4658     1
   4654   4655     1
   4654   4657     1
   4654   4666     1
   4654   4656     1
   4654   4661     1
   4655   4669     1
   4655   4668     1
   4655   4671     1
   4655   4660     1
   4656   4671     1
   4656   4667     1
   4658   4668     1
   4659   4668     1
   4662   4666     1
   4662   4665     1
   4663   4666     1
   4663   4665     1
   4666   4668     1
   4666   4667     1
   4668   4670     1
   4673   4679     1
   4673   4680     1
   4674   4677     1
   4674   4676     1
   4674   4678     1
   4675   4746     1
   4676   4681     1
   4676   4679     1
   4676   4680     1
   4677   4691     1
   4677   4692     1
   4677   4684     1
   4677   4686     1
   4678   4681     1
   4678   4679     1
   4678   4680     1
   4679   4682     1
   4679   4683     1
   4679   4746     1
   4680   4682     1
   4680   4683     1
   4680   4746     1
   4681   4694     1
   4681   4695     1
   4681   4687     1
   4681   4688     1
   4682   4684     1
   4682   4686     1
   4683   4691     1
   4683   4692     1
   4684   4689     1
   4684   4687     1
   4684   4688     1
   4684   4746     1
   4685   4711     1
   4685   4746     1
   4686   4689     1
   4686   4687     1
   4686   4688     1
   4686   4746     1
   4687   4690     1
   4687   4721     1
   4688   4690     1
   4688   4721     1
   4689   4704     1
   4690   4711     1
   4691   4696     1
   4691   4694     1
   4691   4695     1
   4691   4746     1
   4692   4696     1
   4692   4694     1
   4692   4695     1
   4692   4746     1
   4693   4735     1
   4693   4746     1
   4694   4697     1
   4694   4745     1
   4695   4697     1
   4695   4745     1
   4696   4728     1
   4697   4735     1
   4698   4705     1
   4698   4720     1
   4698   4715     1
   4698   4706     1
   4699   4704     1
   4699   4710     1
   4699   4712     1
   4699   4713     1
   4700   4701     1
   4700   4719     1
   4700   4718     1
   4700   4714     1
   4700   4712     1
   4700   4713     1
   4700   4703     1
   4701   4706     1
   4701   4711     1
   4701   4720     1
   4702   4717     1
   4702   4710     1
   4702   4718     1
   4703   4711     1
   4703   4705     1
   4704   4707     1
   4704   4716     1
   4704   4706     1
   4704   4711     1
   4704   4708     1
   4704   4705     1
   4705   4721     1
   4705   4710     1
   4705   4719     1
   4705   4718     1
   4706   4717     1
   4706   4721     1
   4708   4718     1
   4709   4718     1
   4712   4715     1
   4712   4716     1
   4713   4715     1
   4713   4716     1
   4716   4717     1
   4716   4718     1
   4718   4720     1
   4722   4729     1
   4722   4744     1
   4722   4739     1
   4722   4730     1
   4723   4728     1
   4723   4734     1
   4723   4736     1
   4723   4737     1
   4724   4725     1
   4724   4743     1
   4724   4742     1
   4724   4738     1
   4724   4736     1
   4724   4737     1
   4724   4727     1
   4725   4730     1
   4725   4735     1
   4725   4744     1
   4726   4741     1
   4726   4734     1
   4726   4742     1
   4727   4735     1
   4727   4729     1
   4728   4731     1
   4728   4740     1
   4728   4730     1
   4728   4735     1
   4728   4732     1
   4728   4729     1
   4729   4745     1
   4729   4734     1
   4729   4743     1
   4729   4742     1
   4730   4741     1
   4730   4745     1
   4732   4742     1
   4733   4742     1
   4736   4739     1
   4736   4740     1
   4737   4739     1
   4737   4740     1
   4740   4741     1
   4740   4742     1
   4742   4744     1
   4747   4753     1
   4747   4754     1
   4748   4751     1
   4748   4750     1
   4748   4752     1
   4749   4820     1
   4750   4755     1
   4750   4753     1
   4750   4754     1
   4751   4765     1
   4751   4766     1
   4751   4758     1
   4751   4760     1
   4752   4755     1
   4752   4753     1
   4752   4754     1
   4753   4756     1
   4753   4757     1
   4753   4820     1
   4754   4756     1
   4754   4757     1
   4754   4820     1
   4755   4768     1
   4755   4769     1
   4755   4761     1
   4755   4762     1
   4756   4758     1
   4756   4760     1
   4757   4765     1
   4757   4766     1
   4758   4820     1
   4758   4763     1
   4758   4761     1
   4758   4762     1
   4759   4820     1
   4759   4785     1
   4760   4820     1
   4760   4763     1
   4760   4761     1
   4760   4762     1
   4761   4764     1
   4761   4795     1
   4762   4764     1
   4762   4795     1
   4763   4778     1
   4764   4785     1
   4765   4820     1
   4765   4770     1
   4765   4768     1
   4765   4769     1
   4766   4820     1
   4766   4770     1
   4766   4768     1
   4766   4769     1
   4767   4820     1
   4767   4809     1
   4768   4771     1
   4768   4819     1
   4769   4771     1
   4769   4819     1
   4770   4802     1
   4771   4809     1
   4772   4779     1
   4772   4794     1
   4772   4789     1
   4772   4780     1
   4773   4786     1
   4773   4787     1
   4773   4778     1
   4773   4784     1
   4774   4775     1
   4774   4793     1
   4774   4792     1
   4774   4788     1
   4774   4786     1
   4774   4787     1
   4774   4777     1
   4775   4794     1
   4775   4780     1
   4775   4785     1
   4776   4792     1
   4776   4784     1
   4776   4791     1
   4777   4779     1
   4777   4785     1
   4778   4782     1
   4778   4779     1
   4778   4781     1
   4778   4790     1
   4778   4780     1
   4778   4785     1
   4779   4793     1
   4779   4792     1
   4779   4795     1
   4779   4784     1
   4780   4795     1
   4780   4791     1
   4782   4792     1
   4783   4792     1
   4786   4790     1
   4786   4789     1
   4787   4790     1
   4787   4789     1
   4790   4792     1
   4790   4791     1
   4792   4794     1
   4796   4803     1
   4796   4818     1
   4796   4813     1
   4796   4804     1
   4797   4810     1
   4797   4811     1
   4797   4802     1
   4797   4808     1
   4798   4799     1
   4798   4817     1
   4798   4816     1
   4798   4812     1
   4798   4810     1
   4798   4811     1
   4798   4801     1
   4799   4818     1
   4799   4804     1
   4799   4809     1
   4800   4816     1
   4800   4808     1
   4800   4815     1
   4801   4803     1
   4801   4809     1
   4802   4806     1
   4802   4803     1
   4802   4805     1
   4802   4814     1
   4802   4804     1
   4802   4809     1
   4803   4817     1
   4803   4816     1
   4803   4819     1
   4803   4808     1
   4804   4819     1
   4804   4815     1
   4806   4816     1
   4807   4816     1
   4810   4814     1
   4810   4813     1
   4811   4814     1
   4811   4813     1
   4814   4816     1
   4814   4815     1
   4816   4818     1
   4821   4827     1
   4821   4828     1
   4822   4825     1
   4822   4824     1
   4822   4826     1
   4823   4894     1
   4824   4829     1
   4824   4827     1
   4824   4828     1
   4825   4839     1
   4825   4840     1
   4825   4832     1
   4825   4834     1
   4826   4829     1
   4826   4827     1
   4826   4828     1
   4827   4830     1
   4827   4831     1
   4827   4894     1
   4828   4830     1
   4828   4831     1
   4828   4894     1
   4829   4842     1
   4829   4843     1
   4829   4835     1
   4829   4836     1
   4830   4832     1
   4830   4834     1
   4831   4839     1
   4831   4840     1
   4832   4837     1
   4832   4835     1
   4832   4836     1
   4832   4894     1
   4833   4859     1
   4833   4894     1
   4834   4837     1
   4834   4835     1
   4834   4836     1
   4834   4894     1
   4835   4838     1
   4835   4869     1
   4836   4838     1
   4836   4869     1
   4837   4852     1
   4838   4859     1
   4839   4844     1
   4839   4842     1
   4839   4843     1
   4839   4894     1
   4840   4844     1
   4840   4842     1
   4840   4843     1
   4840   4894     1
   4841   4883     1
   4841   4894     1
   4842   4845     1
   4842   4893     1
   4843   4845     1
   4843   4893     1
   4844   4876     1
   4845   4883     1
   4846   4853     1
   4846   4868     1
   4846   4863     1
   4846   4854     1
   4847   4852     1
   4847   4858     1
   4847   4860     1
   4847   4861     1
   4848   4849     1
   4848   4867     1
   4848   4866     1
   4848   4862     1
   4848   4860     1
   4848   4861     1
   4848   4851     1
   4849   4854     1
   4849   4859     1
   4849   4868     1
   4850   4865     1
   4850   4858     1
   4850   4866     1
   4851   4859     1
   4851   4853     1
   4852   4855     1
   4852   4864     1
   4852   4854     1
   4852   4859     1
   4852   4856     1
   4852   4853     1
   4853   4869     1
   4853   4858     1
   4853   4867     1
   4853   4866     1
   4854   4865     1
   4854   4869     1
   4856   4866     1
   4857   4866     1
   4860   4863     1
   4860   4864     1
   4861   4863     1
   4861   4864     1
   4864   4865     1
   4864   4866     1
   4866   4868     1
   4870   4877     1
   4870   4892     1
   4870   4887     1
   4870   4878     1
   4871   4876     1
   4871   4882     1
   4871   4884     1
   4871   4885     1
   4872   4873     1
   4872   4891     1
   4872   4890     1
   4872   4886     1
   4872   4884     1
   4872   4885     1
   4872   4875     1
   4873   4878     1
   4873   4883     1
   4873   4892     1
   4874   4889     1
   4874   4882     1
   4874   4890     1
   4875   4883     1
   4875   4877     1
   4876   4879     1
   4876   4888     1
   4876   4878     1
   4876   4883     1
   4876   4880     1
   4876   4877     1
   4877   4893     1
   4877   4882     1
   4877   4891     1
   4877   4890     1
   4878   4889     1
   4878   4893     1
   4880   4890     1
   4881   4890     1
   4884   4887     1
   4884   4888     1
   4885   4887     1
   4885   4888     1
   4888   4889     1
   4888   4890     1
   4890   4892     1
   4895   4901     1
   4895   4902     1
   4896   4899     1
   4896   4898     1
   4896   4900     1
   4897   4968     1
   4898   4903     1
   4898   4901     1
   4898   4902     1
   4899   4913     1
   4899   4914     1
   4899   4906     1
   4899   4908     1
   4900   4903     1
   4900   4901     1
   4900   4902     1
   4901   4904     1
   4901   4905     1
   4901   4968     1
   4902   4904     1
   4902   4905     1
   4902   4968     1
   4903   4916     1
   4903   4917     1
   4903   4909     1
   4903   4910     1
   4904   4906     1
   4904   4908     1
   4905   4913     1
   4905   4914     1
   4906   4968     1
   4906   4911     1
   4906   4909     1
   4906   4910     1
   4907   4968     1
   4907   4933     1
   4908   4968     1
   4908   4911     1
   4908   4909     1
   4908   4910     1
   4909   4912     1
   4909   4943     1
   4910   4912     1
   4910   4943     1
   4911   4926     1
   4912   4933     1
   4913   4968     1
   4913   4918     1
   4913   4916     1
   4913   4917     1
   4914   4968     1
   4914   4918     1
   4914   4916     1
   4914   4917     1
   4915   4968     1
   4915   4957     1
   4916   4919     1
   4916   4967     1
   4917   4919     1
   4917   4967     1
   4918   4950     1
   4919   4957     1
   4920   4927     1
   4920   4942     1
   4920   4937     1
   4920   4928     1
   4921   4934     1
   4921   4935     1
   4921   4926     1
   4921   4932     1
   4922   4923     1
   4922   4941     1
   4922   4940     1
   4922   4936     1
   4922   4934     1
   4922   4935     1
   4922   4925     1
   4923   4942     1
   4923   4928     1
   4923   4933     1
   4924   4940     1
   4924   4932     1
   4924   4939     1
   4925   4927     1
   4925   4933     1
   4926   4930     1
   4926   4927     1
   4926   4929     1
   4926   4938     1
   4926   4928     1
   4926   4933     1
   4927   4941     1
   4927   4940     1
   4927   4943     1
   4927   4932     1
   4928   4943     1
   4928   4939     1
   4930   4940     1
   4931   4940     1
   4934   4938     1
   4934   4937     1
   4935   4938     1
   4935   4937     1
   4938   4940     1
   4938   4939     1
   4940   4942     1
   4944   4951     1
   4944   4966     1
   4944   4961     1
   4944   4952     1
   4945   4958     1
   4945   4959     1
   4945   4950     1
   4945   4956     1
   4946   4947     1
   4946   4965     1
   4946   4964     1
   4946   4960     1
   4946   4958     1
   4946   4959     1
   4946   4949     1
   4947   4966     1
   4947   4952     1
   4947   4957     1
   4948   4964     1
   4948   4956     1
   4948   4963     1
   4949   4951     1
   4949   4957     1
   4950   4954     1
   4950   4951     1
   4950   4953     1
   4950   4962     1
   4950   4952     1
   4950   4957     1
   4951   4965     1
   4951   4964     1
   4951   4967     1
   4951   4956     1
   4952   4967     1
   4952   4963     1
   4954   4964     1
   4955   4964     1
   4958   4962     1
   4958   4961     1
   4959   4962     1
   4959   4961     1
   4962   4964     1
   4962   4963     1
   4964   4966     1
   4969   4975     1
   4969   4976     1
   4970   4973     1
   4970   4972     1
   4970   4974     1
   4971   5042     1
   4972   4977     1
   4972   4975     1
   4972   4976     1
   4973   4987     1
   4973   4988     1
   4973   4980     1
   4973   4982     1
   4974   4977     1
   4974   4975     1
   4974   4976     1
   4975   4978     1
   4975   4979     1
   4975   5042     1
   4976   4978     1
   4976   4979     1
   4976   5042     1
   4977   4990     1
   4977   4991     1
   4977   4983     1
   4977   4984     1
   4978   4980     1
   4978   4982     1
   4979   4987     1
   4979   4988     1
   4980   4985     1
   4980   4983     1
   4980   4984     1
   4980   5042     1
   4981   5007     1
   4981   5042     1
   4982   4985     1
   4982   4983     1
   4982   4984     1
   4982   5042     1
   4983   4986     1
   4983   5017     1
   4984   4986     1
   4984   5017     1
   4985   5000     1
   4986   5007     1
   4987   4992     1
   4987   4990     1
   4987   4991     1
   4987   5042     1
   4988   4992     1
   4988   4990     1
   4988   4991     1
   4988   5042     1
   4989   5031     1
   4989   5042     1
   4990   4993     1
   4990   5041     1
   4991   4993     1
   4991   5041     1
   4992   5024     1
   4993   5031     1
   4994   5001     1
   4994   5016     1
   4994   5011     1
   4994   5002     1
   4995   5000     1
   4995   5006     1
   4995   5008     1
   4995   5009     1
   4996   4997     1
   4996   5015     1
   4996   5014     1
   4996   5010     1
   4996   5008     1
   4996   5009     1
   4996   4999     1
   4997   5002     1
   4997   5007     1
   4997   5016     1
   4998   5013     1
   4998   5006     1
   4998   5014     1
   4999   5007     1
   4999   5001     1
   5000   5003     1
   5000   5012     1
   5000   5002     1
   5000   5007     1
   5000   5004     1
   5000   5001     1
   5001   5017     1
   5001   5006     1
   5001   5015     1
   5001   5014     1
   5002   5013     1
   5002   5017     1
   5004   5014     1
   5005   5014     1
   5008   5011     1
   5008   5012     1
   5009   5011     1
   5009   5012     1
   5012   5013     1
   5012   5014     1
   5014   5016     1
   5018   5025     1
   5018   5040     1
   5018   5035     1
   5018   5026     1
   5019   5024     1
   5019   5030     1
   5019   5032     1
   5019   5033     1
   5020   5021     1
   5020   5039     1
   5020   5038     1
   5020   5034     1
   5020   5032     1
   5020   5033     1
   5020   5023     1
   5021   5026     1
   5021   5031     1
   5021   5040     1
   5022   5037     1
   5022   5030     1
   5022   5038     1
   5023   5031     1
   5023   5025     1
   5024   5027     1
   5024   5036     1
   5024   5026     1
   5024   5031     1
   5024   5028     1
   5024   5025     1
   5025   5041     1
   5025   5030     1
   5025   5039     1
   5025   5038     1
   5026   5037     1
   5026   5041     1
   5028   5038     1
   5029   5038     1
   5032   5035     1
   5032   5036     1
   5033   5035     1
   5033   5036     1
   5036   5037     1
   5036   5038     1
   5038   5040     1
   5043   5049     1
   5043   5050     1
   5044   5047     1
   5044   5046     1
   5044   5048     1
   5045   5116     1
   5046   5051     1
   5046   5049     1
   5046   5050     1
   5047   5061     1
   5047   5062     1
   5047   5054     1
   5047   5056     1
   5048   5051     1
   5048   5049     1
   5048   5050     1
   5049   5052     1
   5049   5053     1
   5049   5116     1
   5050   5052     1
   5050   5053     1
   5050   5116     1
   5051   5064     1
   5051   5065     1
   5051   5057     1
   5051   5058     1
   5052   5054     1
   5052   5056     1
   5053   5061     1
   5053   5062     1
   5054   5116     1
   5054   5059     1
   5054   5057     1
   5054   5058     1
   5055   5116     1
   5055   5081     1
   5056   5116     1
   5056   5059     1
   5056   5057     1
   5056   5058     1
   5057   5060     1
   5057   5091     1
   5058   5060     1
   5058   5091     1
   5059   5074     1
   5060   5081     1
   5061   5116     1
   5061   5066     1
   5061   5064     1
   5061   5065     1
   5062   5116     1
   5062   5066     1
   5062   5064     1
   5062   5065     1
   5063   5116     1
   5063   5105     1
   5064   5067     1
   5064   5115     1
   5065   5067     1
   5065   5115     1
   5066   5098     1
   5067   5105     1
   5068   5075     1
   5068   5090     1
   5068   5085     1
   5068   5076     1
   5069   5082     1
   5069   5083     1
   5069   5074     1
   5069   5080     1
   5070   5071     1
   5070   5089     1
   5070   5088     1
   5070   5084     1
   5070   5082     1
   5070   5083     1
   5070   5073     1
   5071   5090     1
   5071   5076     1
   5071   5081     1
   5072   5088     1
   5072   5080     1
   5072   5087     1
   5073   5075     1
   5073   5081     1
   5074   5078     1
   5074   5075     1
   5074   5077     1
   5074   5086     1
   5074   5076     1
   5074   5081     1
   5075   5089     1
   5075   5088     1
   5075   5091     1
   5075   5080     1
   5076   5091     1
   5076   5087     1
   5078   5088     1
   5079   5088     1
   5082   5086     1
   5082   5085     1
   5083   5086     1
   5083   5085     1
   5086   5088     1
   5086   5087     1
   5088   5090     1
   5092   5099     1
   5092   5114     1
   5092   5109     1
   5092   5100     1
   5093   5106     1
   5093   5107     1
   5093   5098     1
   5093   5104     1
   5094   5095     1
   5094   5113     1
   5094   5112     1
   5094   5108     1
   5094   5106     1
   5094   5107     1
   5094   5097     1
   5095   5114     1
   5095   5100     1
   5095   5105     1
   5096   5112     1
   5096   5104     1
   5096   5111     1
   5097   5099     1
   5097   5105     1
   5098   5102     1
   5098   5099     1
   5098   5101     1
   5098   5110     1
   5098   5100     1
   5098   5105     1
   5099   5113     1
   5099   5112     1
   5099   5115     1
   5099   5104     1
   5100   5115     1
   5100   5111     1
   5102   5112     1
   5103   5112     1
   5106   5110     1
   5106   5109     1
   5107   5110     1
   5107   5109     1
   5110   5112     1
   5110   5111     1
   5112   5114     1
   5117   5123     1
   5117   5124     1
   5118   5121     1
   5118   5120     1
   5118   5122     1
   5119   5190     1
   5120   5125     1
   5120   5123     1
   5120   5124     1
   5121   5135     1
   5121   5136     1
   5121   5128     1
   5121   5130     1
   5122   5125     1
   5122   5123     1
   5122   5124     1
   5123   5126     1
   5123   5127     1
   5123   5190     1
   5124   5126     1
   5124   5127     1
   5124   5190     1
   5125   5138     1
   5125   5139     1
   5125   5131     1
   5125   5132     1
   5126   5128     1
   5126   5130     1
   5127   5135     1
   5127   5136     1
   5128   5133     1
   5128   5131     1
   5128   5132     1
   5128   5190     1
   5129   5155     1
   5129   5190     1
   5130   5133     1
   5130   5131     1
   5130   5132     1
   5130   5190     1
   5131   5134     1
   5131   5165     1
   5132   5134     1
   5132   5165     1
   5133   5148     1
   5134   5155     1
   5135   5140     1
   5135   5138     1
   5135   5139     1
   5135   5190     1
   5136   5140     1
   5136   5138     1
   5136   5139     1
   5136   5190     1
   5137   5179     1
   5137   5190     1
   5138   5141     1
   5138   5189     1
   5139   5141     1
   5139   5189     1
   5140   5172     1
   5141   5179     1
   5142   5149     1
   5142   5164     1
   5142   5159     1
   5142   5150     1
   5143   5148     1
   5143   5154     1
   5143   5156     1
   5143   5157     1
   5144   5145     1
   5144   5163     1
   5144   5162     1
   5144   5158     1
   5144   5156     1
   5144   5157     1
   5144   5147     1
   5145   5150     1
   5145   5155     1
   5145   5164     1
   5146   5161     1
   5146   5154     1
   5146   5162     1
   5147   5155     1
   5147   5149     1
   5148   5151     1
   5148   5160     1
   5148   5150     1
   5148   5155     1
   5148   5152     1
   5148   5149     1
   5149   5165     1
   5149   5154     1
   5149   5163     1
   5149   5162     1
   5150   5161     1
   5150   5165     1
   5152   5162     1
   5153   5162     1
   5156   5159     1
   5156   5160     1
   5157   5159     1
   5157   5160     1
   5160   5161     1
   5160   5162     1
   5162   5164     1
   5166   5173     1
   5166   5188     1
   5166   5183     1
   5166   5174     1
   5167   5172     1
   5167   5178     1
   5167   5180     1
   5167   5181     1
   5168   5169     1
   5168   5187     1
   5168   5186     1
   5168   5182     1
   5168   5180     1
   5168   5181     1
   5168   5171     1
   5169   5174     1
   5169   5179     1
   5169   5188     1
   5170   5185     1
   5170   5178     1
   5170   5186     1
   5171   5179     1
   5171   5173     1
   5172   5175     1
   5172   5184     1
   5172   5174     1
   5172   5179     1
   5172   5176     1
   5172   5173     1
   5173   5189     1
   5173   5178     1
   5173   5187     1
   5173   5186     1
   5174   5185     1
   5174   5189     1
   5176   5186     1
   5177   5186     1
   5180   5183     1
   5180   5184     1
   5181   5183     1
   5181   5184     1
   5184   5185     1
   5184   5186     1
   5186   5188     1
   5191   5197     1
   5191   5198     1
   5192   5195     1
   5192   5194     1
   5192   5196     1
   5193   5264     1
   5194   5199     1
   5194   5197     1
   5194   5198     1
   5195   5209     1
   5195   5210     1
   5195   5202     1
   5195   5204     1
   5196   5199     1
   5196   5197     1
   5196   5198     1
   5197   5200     1
   5197   5201     1
   5197   5264     1
   5198   5200     1
   5198   5201     1
   5198   5264     1
   5199   5212     1
   5199   5213     1
   5199   5205     1
   5199   5206     1
   5200   5202     1
   5200   5204     1
   5201   5209     1
   5201   5210     1
   5202   5264     1
   5202   5207     1
   5202   5205     1
   5202   5206     1
   5203   5264     1
   5203   5229     1
   5204   5264     1
   5204   5207     1
   5204   5205     1
   5204   5206     1
   5205   5208     1
   5205   5239     1
   5206   5208     1
   5206   5239     1
   5207   5222     1
   5208   5229     1
   5209   5264     1
   5209   5214     1
   5209   5212     1
   5209   5213     1
   5210   5264     1
   5210   5214     1
   5210   5212     1
   5210   5213     1
   5211   5264     1
   5211   5253     1
   5212   5215     1
   5212   5263     1
   5213   5215     1
   5213   5263     1
   5214   5246     1
   5215   5253     1
   5216   5223     1
   5216   5238     1
   5216   5233     1
   5216   5224     1
   5217   5230     1
   5217   5231     1
   5217   5222     1
   5217   5228     1
   5218   5219     1
   5218   5237     1
   5218   5236     1
   5218   5232     1
   5218   5230     1
   5218   5231     1
   5218   5221     1
   5219   5238     1
   5219   5224     1
   5219   5229     1
   5220   5236     1
   5220   5228     1
   5220   5235     1
   5221   5223     1
   5221   5229     1
   5222   5226     1
   5222   5223     1
   5222   5225     1
   5222   5234     1
   5222   5224     1
   5222   5229     1
   5223   5237     1
   5223   5236     1
   5223   5239     1
   5223   5228     1
   5224   5239     1
   5224   5235     1
   5226   5236     1
   5227   5236     1
   5230   5234     1
   5230   5233     1
   5231   5234     1
   5231   5233     1
   5234   5236     1
   5234   5235     1
   5236   5238     1
   5240   5247     1
   5240   5262     1
   5240   5257     1
   5240   5248     1
   5241   5254     1
   5241   5255     1
   5241   5246     1
   5241   5252     1
   5242   5243     1
   5242   5261     1
   5242   5260     1
   5242   5256     1
   5242   5254     1
   5242   5255     1
   5242   5245     1
   5243   5262     1
   5243   5248     1
   5243   5253     1
   5244   5260     1
   5244   5252     1
   5244   5259     1
   5245   5247     1
   5245   5253     1
   5246   5250     1
   5246   5247     1
   5246   5249     1
   5246   5258     1
   5246   5248     1
   5246   5253     1
   5247   5261     1
   5247   5260     1
   5247   5263     1
   5247   5252     1
   5248   5263     1
   5248   5259     1
   5250   5260     1
   5251   5260     1
   5254   5258     1
   5254   5257     1
   5255   5258     1
   5255   5257     1
   5258   5260     1
   5258   5259     1
   5260   5262     1
   5265   5271     1
   5265   5272     1
   5266   5269     1
   5266   5268     1
   5266   5270     1
   5267   5338     1
   5268   5273     1
   5268   5271     1
   5268   5272     1
   5269   5283     1
   5269   5284     1
   5269   5276     1
   5269   5278     1
   5270   5273     1
   5270   5271     1
   5270   5272     1
   5271   5274     1
   5271   5275     1
   5271   5338     1
   5272   5274     1
   5272   5275     1
   5272   5338     1
   5273   5286     1
   5273   5287     1
   5273   5279     1
   5273   5280     1
   5274   5276     1
   5274   5278     1
   5275   5283     1
   5275   5284     1
   5276   5281     1
   5276   5279     1
   5276   5280     1
   5276   5338     1
   5277   5303     1
   5277   5338     1
   5278   5281     1
   5278   5279     1
   5278   5280     1
   5278   5338     1
   5279   5282     1
   5279   5313     1
   5280   5282     1
   5280   5313     1
   5281   5296     1
   5282   5303     1
   5283   5288     1
   5283   5286     1
   5283   5287     1
   5283   5338     1
   5284   5288     1
   5284   5286     1
   5284   5287     1
   5284   5338     1
   5285   5327     1
   5285   5338     1
   5286   5289     1
   5286   5337     1
   5287   5289     1
   5287   5337     1
   5288   5320     1
   5289   5327     1
   5290   5297     1
   5290   5312     1
   5290   5307     1
   5290   5298     1
   5291   5296     1
   5291   5302     1
   5291   5304     1
   5291   5305     1
   5292   5293     1
   5292   5311     1
   5292   5310     1
   5292   5306     1
   5292   5304     1
   5292   5305     1
   5292   5295     1
   5293   5298     1
   5293   5303     1
   5293   5312     1
   5294   5309     1
   5294   5302     1
   5294   5310     1
   5295   5303     1
   5295   5297     1
   5296   5299     1
   5296   5308     1
   5296   5298     1
   5296   5303     1
   5296   5300     1
   5296   5297     1
   5297   5313     1
   5297   5302     1
   5297   5311     1
   5297   5310     1
   5298   5309     1
   5298   5313     1
   5300   5310     1
   5301   5310     1
   5304   5307     1
   5304   5308     1
   5305   5307     1
   5305   5308     1
   5308   5309     1
   5308   5310     1
   5310   5312     1
   5314   5321     1
   5314   5336     1
   5314   5331     1
   5314   5322     1
   5315   5320     1
   5315   5326     1
   5315   5328     1
   5315   5329     1
   5316   5317     1
   5316   5335     1
   5316   5334     1
   5316   5330     1
   5316   5328     1
   5316   5329     1
   5316   5319     1
   5317   5322     1
   5317   5327     1
   5317   5336     1
   5318   5333     1
   5318   5326     1
   5318   5334     1
   5319   5327     1
   5319   5321     1
   5320   5323     1
   5320   5332     1
   5320   5322     1
   5320   5327     1
   5320   5324     1
   5320   5321     1
   5321   5337     1
   5321   5326     1
   5321   5335     1
   5321   5334     1
   5322   5333     1
   5322   5337     1
   5324   5334     1
   5325   5334     1
   5328   5331     1
   5328   5332     1
   5329   5331     1
   5329   5332     1
   5332   5333     1
   5332   5334     1
   5334   5336     1
   5339   5345     1
   5339   5346     1
   5340   5343     1
   5340   5342     1
   5340   5344     1
   5341   5412     1
   5342   5347     1
   5342   5345     1
   5342   5346     1
   5343   5357     1
   5343   5358     1
   5343   5350     1
   5343   5352     1
   5344   5347     1
   5344   5345     1
   5344   5346     1
   5345   5348     1
   5345   5349     1
   5345   5412     1
   5346   5348     1
   5346   5349     1
   5346   5412     1
   5347   5360     1
   5347   5361     1
   5347   5353     1
   5347   5354     1
   5348   5350     1
   5348   5352     1
   5349   5357     1
   5349   5358     1
   5350   5412     1
   5350   5355     1
   5350   5353     1
   5350   5354     1
   5351   5412     1
   5351   5377     1
   5352   5412     1
   5352   5355     1
   5352   5353     1
   5352   5354     1
   5353   5356     1
   5353   5387     1
   5354   5356     1
   5354   5387     1
   5355   5370     1
   5356   5377     1
   5357   5412     1
   5357   5362     1
   5357   5360     1
   5357   5361     1
   5358   5412     1
   5358   5362     1
   5358   5360     1
   5358   5361     1
   5359   5412     1
   5359   5401     1
   5360   5363     1
   5360   5411     1
   5361   5363     1
   5361   5411     1
   5362   5394     1
   5363   5401     1
   5364   5371     1
   5364   5386     1
   5364   5381     1
   5364   5372     1
   5365   5378     1
   5365   5379     1
   5365   5370     1
   5365   5376     1
   5366   5367     1
   5366   5385     1
   5366   5384     1
   5366   5380     1
   5366   5378     1
   5366   5379     1
   5366   5369     1
   5367   5386     1
   5367   5372     1
   5367   5377     1
   5368   5384     1
   5368   5376     1
   5368   5383     1
   5369   5371     1
   5369   5377     1
   5370   5374     1
   5370   5371     1
   5370   5373     1
   5370   5382     1
   5370   5372     1
   5370   5377     1
   5371   5385     1
   5371   5384     1
   5371   5387     1
   5371   5376     1
   5372   5387     1
   5372   5383     1
   5374   5384     1
   5375   5384     1
   5378   5382     1
   5378   5381     1
   5379   5382     1
   5379   5381     1
   5382   5384     1
   5382   5383     1
   5384   5386     1
   5388   5395     1
   5388   5410     1
   5388   5405     1
   5388   5396     1
   5389   5402     1
   5389   5403     1
   5389   5394     1
   5389   5400     1
   5390   5391     1
   5390   5409     1
   5390   5408     1
   5390   5404     1
   5390   5402     1
   5390   5403     1
   5390   5393     1
   5391   5410     1
   5391   5396     1
   5391   5401     1
   5392   5408     1
   5392   5400     1
   5392   5407     1
   5393   5395     1
   5393   5401     1
   5394   5398     1
   5394   5395     1
   5394   5397     1
   5394   5406     1
   5394   5396     1
   5394   5401     1
   5395   5409     1
   5395   5408     1
   5395   5411     1
   5395   5400     1
   5396   5411     1
   5396   5407     1
   5398   5408     1
   5399   5408     1
   5402   5406     1
   5402   5405     1
   5403   5406     1
   5403   5405     1
   5406   5408     1
   5406   5407     1
   5408   5410     1
   5413   5419     1
   5413   5420     1
   5414   5417     1
   5414   5416     1
   5414   5418     1
   5415   5486     1
   5416   5421     1
   5416   5419     1
   5416   5420     1
   5417   5431     1
   5417   5432     1
   5417   5424     1
   5417   5426     1
   5418   5421     1
   5418   5419     1
   5418   5420     1
   5419   5422     1
   5419   5423     1
   5419   5486     1
   5420   5422     1
   5420   5423     1
   5420   5486     1
   5421   5434     1
   5421   5435     1
   5421   5427     1
   5421   5428     1
   5422   5424     1
   5422   5426     1
   5423   5431     1
   5423   5432     1
   5424   5429     1
   5424   5427     1
   5424   5428     1
   5424   5486     1
   5425   5451     1
   5425   5486     1
   5426   5429     1
   5426   5427     1
   5426   5428     1
   5426   5486     1
   5427   5430     1
   5427   5461     1
   5428   5430     1
   5428   5461     1
   5429   5444     1
   5430   5451     1
   5431   5436     1
   5431   5434     1
   5431   5435     1
   5431   5486     1
   5432   5436     1
   5432   5434     1
   5432   5435     1
   5432   5486     1
   5433   5475     1
   5433   5486     1
   5434   5437     1
   5434   5485     1
   5435   5437     1
   5435   5485     1
   5436   5468     1
   5437   5475     1
   5438   5445     1
   5438   5460     1
   5438   5455     1
   5438   5446     1
   5439   5444     1
   5439   5450     1
   5439   5452     1
   5439   5453     1
   5440   5441     1
   5440   5459     1
   5440   5458     1
   5440   5454     1
   5440   5452     1
   5440   5453     1
   5440   5443     1
   5441   5446     1
   5441   5451     1
   5441   5460     1
   5442   5457     1
   5442   5450     1
   5442   5458     1
   5443   5451     1
   5443   5445     1
   5444   5447     1
   5444   5456     1
   5444   5446     1
   5444   5451     1
   5444   5448     1
   5444   5445     1
   5445   5461     1
   5445   5450     1
   5445   5459     1
   5445   5458     1
   5446   5457     1
   5446   5461     1
   5448   5458     1
   5449   5458     1
   5452   5455     1
   5452   5456     1
   5453   5455     1
   5453   5456     1
   5456   5457     1
   5456   5458     1
   5458   5460     1
   5462   5469     1
   5462   5484     1
   5462   5479     1
   5462   5470     1
   5463   5468     1
   5463   5474     1
   5463   5476     1
   5463   5477     1
   5464   5465     1
   5464   5483     1
   5464   5482     1
   5464   5478     1
   5464   5476     1
   5464   5477     1
   5464   5467     1
   5465   5470     1
   5465   5475     1
   5465   5484     1
   5466   5481     1
   5466   5474     1
   5466   5482     1
   5467   5475     1
   5467   5469     1
   5468   5471     1
   5468   5480     1
   5468   5470     1
   5468   5475     1
   5468   5472     1
   5468   5469     1
   5469   5485     1
   5469   5474     1
   5469   5483     1
   5469   5482     1
   5470   5481     1
   5470   5485     1
   5472   5482     1
   5473   5482     1
   5476   5479     1
   5476   5480     1
   5477   5479     1
   5477   5480     1
   5480   5481     1
   5480   5482     1
   5482   5484     1
   5487   5493     1
   5487   5494     1
   5488   5491     1
   5488   5490     1
   5488   5492     1
   5489   5560     1
   5490   5495     1
   5490   5493     1
   5490   5494     1
   5491   5505     1
   5491   5506     1
   5491   5498     1
   5491   5500     1
   5492   5495     1
   5492   5493     1
   5492   5494     1
   5493   5496     1
   5493   5497     1
   5493   5560     1
   5494   5496     1
   5494   5497     1
   5494   5560     1
   5495   5508     1
   5495   5509     1
   5495   5501     1
   5495   5502     1
   5496   5498     1
   5496   5500     1
   5497   5505     1
   5497   5506     1
   5498   5560     1
   5498   5503     1
   5498   5501     1
   5498   5502     1
   5499   5560     1
   5499   5525     1
   5500   5560     1
   5500   5503     1
   5500   5501     1
   5500   5502     1
   5501   5504     1
   5501   5535     1
   5502   5504     1
   5502   5535     1
   5503   5518     1
   5504   5525     1
   5505   5560     1
   5505   5510     1
   5505   5508     1
   5505   5509     1
   5506   5560     1
   5506   5510     1
   5506   5508     1
   5506   5509     1
   5507   5560     1
   5507   5549     1
   5508   5511     1
   5508   5559     1
   5509   5511     1
   5509   5559     1
   5510   5542     1
   5511   5549     1
   5512   5519     1
   5512   5534     1
   5512   5529     1
   5512   5520     1
   5513   5526     1
   5513   5527     1
   5513   5518     1
   5513   5524     1
   5514   5515     1
   5514   5533     1
   5514   5532     1
   5514   5528     1
   5514   5526     1
   5514   5527     1
   5514   5517     1
   5515   5534     1
   5515   5520     1
   5515   5525     1
   5516   5532     1
   5516   5524     1
   5516   5531     1
   5517   5519     1
   5517   5525     1
   5518   5522     1
   5518   5519     1
   5518   5521     1
   5518   5530     1
   5518   5520     1
   5518   5525     1
   5519   5533     1
   5519   5532     1
   5519   5535     1
   5519   5524     1
   5520   5535     1
   5520   5531     1
   5522   5532     1
   5523   5532     1
   5526   5530     1
   5526   5529     1
   5527   5530     1
   5527   5529     1
   5530   5532     1
   5530   5531     1
   5532   5534     1
   5536   5543     1
   5536   5558     1
   5536   5553     1
   5536   5544     1
   5537   5550     1
   5537   5551     1
   5537   5542     1
   5537   5548     1
   5538   5539     1
   5538   5557     1
   5538   5556     1
   5538   5552     1
   5538   5550     1
   5538   5551     1
   5538   5541     1
   5539   5558     1
   5539   5544     1
   5539   5549     1
   5540   5556     1
   5540   5548     1
   5540   5555     1
   5541   5543     1
   5541   5549     1
   5542   5546     1
   5542   5543     1
   5542   5545     1
   5542   5554     1
   5542   5544     1
   5542   5549     1
   5543   5557     1
   5543   5556     1
   5543   5559     1
   5543   5548     1
   5544   5559     1
   5544   5555     1
   5546   5556     1
   5547   5556     1
   5550   5554     1
   5550   5553     1
   5551   5554     1
   5551   5553     1
   5554   5556     1
   5554   5555     1
   5556   5558     1
   5561   5567     1
   5561   5568     1
   5562   5565     1
   5562   5564     1
   5562   5566     1
   5563   5634     1
   5564   5569     1
   5564   5567     1
   5564   5568     1
   5565   5579     1
   5565   5580     1
   5565   5572     1
   5565   5574     1
   5566   5569     1
   5566   5567     1
   5566   5568     1
   5567   5570     1
   5567   5571     1
   5567   5634     1
   5568   5570     1
   5568   5571     1
   5568   5634     1
   5569   5582     1
   5569   5583     1
   5569   5575     1
   5569   5576     1
   5570   5572     1
   5570   5574     1
   5571   5579     1
   5571   5580     1
   5572   5577     1
   5572   5575     1
   5572   5576     1
   5572   5634     1
   5573   5599     1
   5573   5634     1
   5574   5577     1
   5574   5575     1
   5574   5576     1
   5574   5634     1
   5575   5578     1
   5575   5609     1
   5576   5578     1
   5576   5609     1
   5577   5592     1
   5578   5599     1
   5579   5584     1
   5579   5582     1
   5579   5583     1
   5579   5634     1
   5580   5584     1
   5580   5582     1
   5580   5583     1
   5580   5634     1
   5581   5623     1
   5581   5634     1
   5582   5585     1
   5582   5633     1
   5583   5585     1
   5583   5633     1
   5584   5616     1
   5585   5623     1
   5586   5593     1
   5586   5608     1
   5586   5603     1
   5586   5594     1
   5587   5592     1
   5587   5598     1
   5587   5600     1
   5587   5601     1
   5588   5589     1
   5588   5607     1
   5588   5606     1
   5588   5602     1
   5588   5600     1
   5588   5601     1
   5588   5591     1
   5589   5594     1
   5589   5599     1
   5589   5608     1
   5590   5605     1
   5590   5598     1
   5590   5606     1
   5591   5599     1
   5591   5593     1
   5592   5595     1
   5592   5604     1
   5592   5594     1
   5592   5599     1
   5592   5596     1
   5592   5593     1
   5593   5609     1
   5593   5598     1
   5593   5607     1
   5593   5606     1
   5594   5605     1
   5594   5609     1
   5596   5606     1
   5597   5606     1
   5600   5603     1
   5600   5604     1
   5601   5603     1
   5601   5604     1
   5604   5605     1
   5604   5606     1
   5606   5608     1
   5610   5617     1
   5610   5632     1
   5610   5627     1
   5610   5618     1
   5611   5616     1
   5611   5622     1
   5611   5624     1
   5611   5625     1
   5612   5613     1
   5612   5631     1
   5612   5630     1
   5612   5626     1
   5612   5624     1
   5612   5625     1
   5612   5615     1
   5613   5618     1
   5613   5623     1
   5613   5632     1
   5614   5629     1
   5614   5622     1
   5614   5630     1
   5615   5623     1
   5615   5617     1
   5616   5619     1
   5616   5628     1
   5616   5618     1
   5616   5623     1
   5616   5620     1
   5616   5617     1
   5617   5633     1
   5617   5622     1
   5617   5631     1
   5617   5630     1
   5618   5629     1
   5618   5633     1
   5620   5630     1
   5621   5630     1
   5624   5627     1
   5624   5628     1
   5625   5627     1
   5625   5628     1
   5628   5629     1
   5628   5630     1
   5630   5632     1
   5635   5641     1
   5635   5642     1
   5636   5639     1
   5636   5638     1
   5636   5640     1
   5637   5708     1
   5638   5643     1
   5638   5641     1
   5638   5642     1
   5639   5653     1
   5639   5654     1
   5639   5646     1
   5639   5648     1
   5640   5643     1
   5640   5641     1
   5640   5642     1
   5641   5644     1
   5641   5645     1
   5641   5708     1
   5642   5644     1
   5642   5645     1
   5642   5708     1
   5643   5656     1
   5643   5657     1
   5643   5649     1
   5643   5650     1
   5644   5646     1
   5644   5648     1
   5645   5653     1
   5645   5654     1
   5646   5708     1
   5646   5651     1
   5646   5649     1
   5646   5650     1
   5647   5708     1
   5647   5673     1
   5648   5708     1
   5648   5651     1
   5648   5649     1
   5648   5650     1
   5649   5652     1
   5649   5683     1
   5650   5652     1
   5650   5683     1
   5651   5666     1
   5652   5673     1
   5653   5708     1
   5653   5658     1
   5653   5656     1
   5653   5657     1
   5654   5708     1
   5654   5658     1
   5654   5656     1
   5654   5657     1
   5655   5708     1
   5655   5697     1
   5656   5659     1
   5656   5707     1
   5657   5659     1
   5657   5707     1
   5658   5690     1
   5659   5697     1
   5660   5667     1
   5660   5682     1
   5660   5677     1
   5660   5668     1
   5661   5674     1
   5661   5675     1
   5661   5666     1
   5661   5672     1
   5662   5663     1
   5662   5681     1
   5662   5680     1
   5662   5676     1
   5662   5674     1
   5662   5675     1
   5662   5665     1
   5663   5682     1
   5663   5668     1
   5663   5673     1
   5664   5680     1
   5664   5672     1
   5664   5679     1
   5665   5667     1
   5665   5673     1
   5666   5670     1
   5666   5667     1
   5666   5669     1
   5666   5678     1
   5666   5668     1
   5666   5673     1
   5667   5681     1
   5667   5680     1
   5667   5683     1
   5667   5672     1
   5668   5683     1
   5668   5679     1
   5670   5680     1
   5671   5680     1
   5674   5678     1
   5674   5677     1
   5675   5678     1
   5675   5677     1
   5678   5680     1
   5678   5679     1
   5680   5682     1
   5684   5691     1
   5684   5706     1
   5684   5701     1
   5684   5692     1
   5685   5698     1
   5685   5699     1
   5685   5690     1
   5685   5696     1
   5686   5687     1
   5686   5705     1
   5686   5704     1
   5686   5700     1
   5686   5698     1
   5686   5699     1
   5686   5689     1
   5687   5706     1
   5687   5692     1
   5687   5697     1
   5688   5704     1
   5688   5696     1
   5688   5703     1
   5689   5691     1
   5689   5697     1
   5690   5694     1
   5690   5691     1
   5690   5693     1
   5690   5702     1
   5690   5692     1
   5690   5697     1
   5691   5705     1
   5691   5704     1
   5691   5707     1
   5691   5696     1
   5692   5707     1
   5692   5703     1
   5694   5704     1
   5695   5704     1
   5698   5702     1
   5698   5701     1
   5699   5702     1
   5699   5701     1
   5702   5704     1
   5702   5703     1
   5704   5706     1
   5709   5715     1
   5709   5716     1
   5710   5713     1
   5710   5712     1
   5710   5714     1
   5711   5782     1
   5712   5717     1
   5712   5715     1
   5712   5716     1
   5713   5727     1
   5713   5728     1
   5713   5720     1
   5713   5722     1
   5714   5717     1
   5714   5715     1
   5714   5716     1
   5715   5718     1
   5715   5719     1
   5715   5782     1
   5716   5718     1
   5716   5719     1
   5716   5782     1
   5717   5730     1
   5717   5731     1
   5717   5723     1
   5717   5724     1
   5718   5720     1
   5718   5722     1
   5719   5727     1
   5719   5728     1
   5720   5725     1
   5720   5723     1
   5720   5724     1
   5720   5782     1
   5721   5747     1
   5721   5782     1
   5722   5725     1
   5722   5723     1
   5722   5724     1
   5722   5782     1
   5723   5726     1
   5723   5757     1
   5724   5726     1
   5724   5757     1
   5725   5740     1
   5726   5747     1
   5727   5732     1
   5727   5730     1
   5727   5731     1
   5727   5782     1
   5728   5732     1
   5728   5730     1
   5728   5731     1
   5728   5782     1
   5729   5771     1
   5729   5782     1
   5730   5733     1
   5730   5781     1
   5731   5733     1
   5731   5781     1
   5732   5764     1
   5733   5771     1
   5734   5741     1
   5734   5756     1
   5734   5751     1
   5734   5742     1
   5735   5740     1
   5735   5746     1
   5735   5748     1
   5735   5749     1
   5736   5737     1
   5736   5755     1
   5736   5754     1
   5736   5750     1
   5736   5748     1
   5736   5749     1
   5736   5739     1
   5737   5742     1
   5737   5747     1
   5737   5756     1
   5738   5753     1
   5738   5746     1
   5738   5754     1
   5739   5747     1
   5739   5741     1
   5740   5743     1
   5740   5752     1
   5740   5742     1
   5740   5747     1
   5740   5744     1
   5740   5741     1
   5741   5757     1
   5741   5746     1
   5741   5755     1
   5741   5754     1
   5742   5753     1
   5742   5757     1
   5744   5754     1
   5745   5754     1
   5748   5751     1
   5748   5752     1
   5749   5751     1
   5749   5752     1
   5752   5753     1
   5752   5754     1
   5754   5756     1
   5758   5765     1
   5758   5780     1
   5758   5775     1
   5758   5766     1
   5759   5764     1
   5759   5770     1
   5759   5772     1
   5759   5773     1
   5760   5761     1
   5760   5779     1
   5760   5778     1
   5760   5774     1
   5760   5772     1
   5760   5773     1
   5760   5763     1
   5761   5766     1
   5761   5771     1
   5761   5780     1
   5762   5777     1
   5762   5770     1
   5762   5778     1
   5763   5771     1
   5763   5765     1
   5764   5767     1
   5764   5776     1
   5764   5766     1
   5764   5771     1
   5764   5768     1
   5764   5765     1
   5765   5781     1
   5765   5770     1
   5765   5779     1
   5765   5778     1
   5766   5777     1
   5766   5781     1
   5768   5778     1
   5769   5778     1
   5772   5775     1
   5772   5776     1
   5773   5775     1
   5773   5776     1
   5776   5777     1
   5776   5778     1
   5778   5780     1
   5783   5789     1
   5783   5790     1
   5784   5787     1
   5784   5786     1
   5784   5788     1
   5785   5856     1
   5786   5791     1
   5786   5789     1
   5786   5790     1
   5787   5801     1
   5787   5802     1
   5787   5794     1
   5787   5796     1
   5788   5791     1
   5788   5789     1
   5788   5790     1
   5789   5792     1
   5789   5793     1
   5789   5856     1
   5790   5792     1
   5790   5793     1
   5790   5856     1
   5791   5804     1
   5791   5805     1
   5791   5797     1
   5791   5798     1
   5792   5794     1
   5792   5796     1
   5793   5801     1
   5793   5802     1
   5794   5856     1
   5794   5799     1
   5794   5797     1
   5794   5798     1
   5795   5856     1
   5795   5821     1
   5796   5856     1
   5796   5799     1
   5796   5797     1
   5796   5798     1
   5797   5800     1
   5797   5831     1
   5798   5800     1
   5798   5831     1
   5799   5814     1
   5800   5821     1
   5801   5856     1
   5801   5806     1
   5801   5804     1
   5801   5805     1
   5802   5856     1
   5802   5806     1
   5802   5804     1
   5802   5805     1
   5803   5856     1
   5803   5845     1
   5804   5807     1
   5804   5855     1
   5805   5807     1
   5805   5855     1
   5806   5838     1
   5807   5845     1
   5808   5815     1
   5808   5830     1
   5808   5825     1
   5808   5816     1
   5809   5822     1
   5809   5823     1
   5809   5814     1
   5809   5820     1
   5810   5811     1
   5810   5829     1
   5810   5828     1
   5810   5824     1
   5810   5822     1
   5810   5823     1
   5810   5813     1
   5811   5830     1
   5811   5816     1
   5811   5821     1
   5812   5828     1
   5812   5820     1
   5812   5827     1
   5813   5815     1
   5813   5821     1
   5814   5818     1
   5814   5815     1
   5814   5817     1
   5814   5826     1
   5814   5816     1
   5814   5821     1
   5815   5829     1
   5815   5828     1
   5815   5831     1
   5815   5820     1
   5816   5831     1
   5816   5827     1
   5818   5828     1
   5819   5828     1
   5822   5826     1
   5822   5825     1
   5823   5826     1
   5823   5825     1
   5826   5828     1
   5826   5827     1
   5828   5830     1
   5832   5839     1
   5832   5854     1
   5832   5849     1
   5832   5840     1
   5833   5846     1
   5833   5847     1
   5833   5838     1
   5833   5844     1
   5834   5835     1
   5834   5853     1
   5834   5852     1
   5834   5848     1
   5834   5846     1
   5834   5847     1
   5834   5837     1
   5835   5854     1
   5835   5840     1
   5835   5845     1
   5836   5852     1
   5836   5844     1
   5836   5851     1
   5837   5839     1
   5837   5845     1
   5838   5842     1
   5838   5839     1
   5838   5841     1
   5838   5850     1
   5838   5840     1
   5838   5845     1
   5839   5853     1
   5839   5852     1
   5839   5855     1
   5839   5844     1
   5840   5855     1
   5840   5851     1
   5842   5852     1
   5843   5852     1
   5846   5850     1
   5846   5849     1
   5847   5850     1
   5847   5849     1
   5850   5852     1
   5850   5851     1
   5852   5854     1
   5857   5863     1
   5857   5864     1
   5858   5861     1
   5858   5860     1
   5858   5862     1
   5859   5930     1
   5860   5865     1
   5860   5863     1
   5860   5864     1
   5861   5875     1
   5861   5876     1
   5861   5868     1
   5861   5870     1
   5862   5865     1
   5862   5863     1
   5862   5864     1
   5863   5866     1
   5863   5867     1
   5863   5930     1
   5864   5866     1
   5864   5867     1
   5864   5930     1
   5865   5878     1
   5865   5879     1
   5865   5871     1
   5865   5872     1
   5866   5868     1
   5866   5870     1
   5867   5875     1
   5867   5876     1
   5868   5873     1
   5868   5871     1
   5868   5872     1
   5868   5930     1
   5869   5895     1
   5869   5930     1
   5870   5873     1
   5870   5871     1
   5870   5872     1
   5870   5930     1
   5871   5874     1
   5871   5905     1
   5872   5874     1
   5872   5905     1
   5873   5888     1
   5874   5895     1
   5875   5880     1
   5875   5878     1
   5875   5879     1
   5875   5930     1
   5876   5880     1
   5876   5878     1
   5876   5879     1
   5876   5930     1
   5877   5919     1
   5877   5930     1
   5878   5881     1
   5878   5929     1
   5879   5881     1
   5879   5929     1
   5880   5912     1
   5881   5919     1
   5882   5889     1
   5882   5904     1
   5882   5899     1
   5882   5890     1
   5883   5888     1
   5883   5894     1
   5883   5896     1
   5883   5897     1
   5884   5885     1
   5884   5903     1
   5884   5902     1
   5884   5898     1
   5884   5896     1
   5884   5897     1
   5884   5887     1
   5885   5890     1
   5885   5895     1
   5885   5904     1
   5886   5901     1
   5886   5894     1
   5886   5902     1
   5887   5895     1
   5887   5889     1
   5888   5891     1
   5888   5900     1
   5888   5890     1
   5888   5895     1
   5888   5892     1
   5888   5889     1
   5889   5905     1
   5889   5894     1
   5889   5903     1
   5889   5902     1
   5890   5901     1
   5890   5905     1
   5892   5902     1
   5893   5902     1
   5896   5899     1
   5896   5900     1
   5897   5899     1
   5897   5900     1
   5900   5901     1
   5900   5902     1
   5902   5904     1
   5906   5913     1
   5906   5928     1
   5906   5923     1
   5906   5914     1
   5907   5912     1
   5907   5918     1
   5907   5920     1
   5907   5921     1
   5908   5909     1
   5908   5927     1
   5908   5926     1
   5908   5922     1
   5908   5920     1
   5908   5921     1
   5908   5911     1
   5909   5914     1
   5909   5919     1
   5909   5928     1
   5910   5925     1
   5910   5918     1
   5910   5926     1
   5911   5919     1
   5911   5913     1
   5912   5915     1
   5912   5924     1
   5912   5914     1
   5912   5919     1
   5912   5916     1
   5912   5913     1
   5913   5929     1
   5913   5918     1
   5913   5927     1
   5913   5926     1
   5914   5925     1
   5914   5929     1
   5916   5926     1
   5917   5926     1
   5920   5923     1
   5920   5924     1
   5921   5923     1
   5921   5924     1
   5924   5925     1
   5924   5926     1
   5926   5928     1
   5931   5937     1
   5931   5938     1
   5932   5935     1
   5932   5934     1
   5932   5936     1
   5933   6004     1
   5934   5939     1
   5934   5937     1
   5934   5938     1
   5935   5949     1
   5935   5950     1
   5935   5942     1
   5935   5944     1
   5936   5939     1
   5936   5937     1
   5936   5938     1
   5937   5940     1
   5937   5941     1
   5937   6004     1
   5938   5940     1
   5938   5941     1
   5938   6004     1
   5939   5952     1
   5939   5953     1
   5939   5945     1
   5939   5946     1
   5940   5942     1
   5940   5944     1
   5941   5949     1
   5941   5950     1
   5942   6004     1
   5942   5947     1
   5942   5945     1
   5942   5946     1
   5943   6004     1
   5943   5969     1
   5944   6004     1
   5944   5947     1
   5944   5945     1
   5944   5946     1
   5945   5948     1
   5945   5979     1
   5946   5948     1
   5946   5979     1
   5947   5962     1
   5948   5969     1
   5949   6004     1
   5949   5954     1
   5949   5952     1
   5949   5953     1
   5950   6004     1
   5950   5954     1
   5950   5952     1
   5950   5953     1
   5951   6004     1
   5951   5993     1
   5952   5955     1
   5952   6003     1
   5953   5955     1
   5953   6003     1
   5954   5986     1
   5955   5993     1
   5956   5963     1
   5956   5978     1
   5956   5973     1
   5956   5964     1
   5957   5970     1
   5957   5971     1
   5957   5962     1
   5957   5968     1
   5958   5959     1
   5958   5977     1
   5958   5976     1
   5958   5972     1
   5958   5970     1
   5958   5971     1
   5958   5961     1
   5959   5978     1
   5959   5964     1
   5959   5969     1
   5960   5976     1
   5960   5968     1
   5960   5975     1
   5961   5963     1
   5961   5969     1
   5962   5966     1
   5962   5963     1
   5962   5965     1
   5962   5974     1
   5962   5964     1
   5962   5969     1
   5963   5977     1
   5963   5976     1
   5963   5979     1
   5963   5968     1
   5964   5979     1
   5964   5975     1
   5966   5976     1
   5967   5976     1
   5970   5974     1
   5970   5973     1
   5971   5974     1
   5971   5973     1
   5974   5976     1
   5974   5975     1
   5976   5978     1
   5980   5987     1
   5980   6002     1
   5980   5997     1
   5980   5988     1
   5981   5994     1
   5981   5995     1
   5981   5986     1
   5981   5992     1
   5982   5983     1
   5982   6001     1
   5982   6000     1
   5982   5996     1
   5982   5994     1
   5982   5995     1
   5982   5985     1
   5983   6002     1
   5983   5988     1
   5983   5993     1
   5984   6000     1
   5984   5992     1
   5984   5999     1
   5985   5987     1
   5985   5993     1
   5986   5990     1
   5986   5987     1
   5986   5989     1
   5986   5998     1
   5986   5988     1
   5986   5993     1
   5987   6001     1
   5987   6000     1
   5987   6003     1
   5987   5992     1
   5988   6003     1
   5988   5999     1
   5990   6000     1
   5991   6000     1
   5994   5998     1
   5994   5997     1
   5995   5998     1
   5995   5997     1
   5998   6000     1
   5998   5999     1
   6000   6002     1
   6005   6011     1
   6005   6012     1
   6006   6009     1
   6006   6008     1
   6006   6010     1
   6007   6078     1
   6008   6013     1
   6008   6011     1
   6008   6012     1
   6009   6023     1
   6009   6024     1
   6009   6016     1
   6009   6018     1
   6010   6013     1
   6010   6011     1
   6010   6012     1
   6011   6014     1
   6011   6015     1
   6011   6078     1
   6012   6014     1
   6012   6015     1
   6012   6078     1
   6013   6026     1
   6013   6027     1
   6013   6019     1
   6013   6020     1
   6014   6016     1
   6014   6018     1
   6015   6023     1
   6015   6024     1
   6016   6021     1
   6016   6019     1
   6016   6020     1
   6016   6078     1
   6017   6043     1
   6017   6078     1
   6018   6021     1
   6018   6019     1
   6018   6020     1
   6018   6078     1
   6019   6022     1
   6019   6053     1
   6020   6022     1
   6020   6053     1
   6021   6036     1
   6022   6043     1
   6023   6028     1
   6023   6026     1
   6023   6027     1
   6023   6078     1
   6024   6028     1
   6024   6026     1
   6024   6027     1
   6024   6078     1
   6025   6067     1
   6025   6078     1
   6026   6029     1
   6026   6077     1
   6027   6029     1
   6027   6077     1
   6028   6060     1
   6029   6067     1
   6030   6037     1
   6030   6052     1
   6030   6047     1
   6030   6038     1
   6031   6036     1
   6031   6042     1
   6031   6044     1
   6031   6045     1
   6032   6033     1
   6032   6051     1
   6032   6050     1
   6032   6046     1
   6032   6044     1
   6032   6045     1
   6032   6035     1
   6033   6038     1
   6033   6043     1
   6033   6052     1
   6034   6049     1
   6034   6042     1
   6034   6050     1
   6035   6043     1
   6035   6037     1
   6036   6039     1
   6036   6048     1
   6036   6038     1
   6036   6043     1
   6036   6040     1
   6036   6037     1
   6037   6053     1
   6037   6042     1
   6037   6051     1
   6037   6050     1
   6038   6049     1
   6038   6053     1
   6040   6050     1
   6041   6050     1
   6044   6047     1
   6044   6048     1
   6045   6047     1
   6045   6048     1
   6048   6049     1
   6048   6050     1
   6050   6052     1
   6054   6061     1
   6054   6076     1
   6054   6071     1
   6054   6062     1
   6055   6060     1
   6055   6066     1
   6055   6068     1
   6055   6069     1
   6056   6057     1
   6056   6075     1
   6056   6074     1
   6056   6070     1
   6056   6068     1
   6056   6069     1
   6056   6059     1
   6057   6062     1
   6057   6067     1
   6057   6076     1
   6058   6073     1
   6058   6066     1
   6058   6074     1
   6059   6067     1
   6059   6061     1
   6060   6063     1
   6060   6072     1
   6060   6062     1
   6060   6067     1
   6060   6064     1
   6060   6061     1
   6061   6077     1
   6061   6066     1
   6061   6075     1
   6061   6074     1
   6062   6073     1
   6062   6077     1
   6064   6074     1
   6065   6074     1
   6068   6071     1
   6068   6072     1
   6069   6071     1
   6069   6072     1
   6072   6073     1
   6072   6074     1
   6074   6076     1
   6079   6085     1
   6079   6086     1
   6080   6083     1
   6080   6082     1
   6080   6084     1
   6081   6152     1
   6082   6087     1
   6082   6085     1
   6082   6086     1
   6083   6097     1
   6083   6098     1
   6083   6090     1
   6083   6092     1
   6084   6087     1
   6084   6085     1
   6084   6086     1
   6085   6088     1
   6085   6089     1
   6085   6152     1
   6086   6088     1
   6086   6089     1
   6086   6152     1
   6087   6100     1
   6087   6101     1
   6087   6093     1
   6087   6094     1
   6088   6090     1
   6088   6092     1
   6089   6097     1
   6089   6098     1
   6090   6152     1
   6090   6095     1
   6090   6093     1
   6090   6094     1
   6091   6152     1
   6091   6117     1
   6092   6152     1
   6092   6095     1
   6092   6093     1
   6092   6094     1
   6093   6096     1
   6093   6127     1
   6094   6096     1
   6094   6127     1
   6095   6110     1
   6096   6117     1
   6097   6152     1
   6097   6102     1
   6097   6100     1
   6097   6101     1
   6098   6152     1
   6098   6102     1
   6098   6100     1
   6098   6101     1
   6099   6152     1
   6099   6141     1
   6100   6103     1
   6100   6151     1
   6101   6103     1
   6101   6151     1
   6102   6134     1
   6103   6141     1
   6104   6111     1
   6104   6126     1
   6104   6121     1
   6104   6112     1
   6105   6118     1
   6105   6119     1
   6105   6110     1
   6105   6116     1
   6106   6107     1
   6106   6125     1
   6106   6124     1
   6106   6120     1
   6106   6118     1
   6106   6119     1
   6106   6109     1
   6107   6126     1
   6107   6112     1
   6107   6117     1
   6108   6124     1
   6108   6116     1
   6108   6123     1
   6109   6111     1
   6109   6117     1
   6110   6114     1
   6110   6111     1
   6110   6113     1
   6110   6122     1
   6110   6112     1
   6110   6117     1
   6111   6125     1
   6111   6124     1
   6111   6127     1
   6111   6116     1
   6112   6127     1
   6112   6123     1
   6114   6124     1
   6115   6124     1
   6118   6122     1
   6118   6121     1
   6119   6122     1
   6119   6121     1
   6122   6124     1
   6122   6123     1
   6124   6126     1
   6128   6135     1
   6128   6150     1
   6128   6145     1
   6128   6136     1
   6129   6142     1
   6129   6143     1
   6129   6134     1
   6129   6140     1
   6130   6131     1
   6130   6149     1
   6130   6148     1
   6130   6144     1
   6130   6142     1
   6130   6143     1
   6130   6133     1
   6131   6150     1
   6131   6136     1
   6131   6141     1
   6132   6148     1
   6132   6140     1
   6132   6147     1
   6133   6135     1
   6133   6141     1
   6134   6138     1
   6134   6135     1
   6134   6137     1
   6134   6146     1
   6134   6136     1
   6134   6141     1
   6135   6149     1
   6135   6148     1
   6135   6151     1
   6135   6140     1
   6136   6151     1
   6136   6147     1
   6138   6148     1
   6139   6148     1
   6142   6146     1
   6142   6145     1
   6143   6146     1
   6143   6145     1
   6146   6148     1
   6146   6147     1
   6148   6150     1
   6153   6159     1
   6153   6160     1
   6154   6157     1
   6154   6156     1
   6154   6158     1
   6155   6226     1
   6156   6161     1
   6156   6159     1
   6156   6160     1
   6157   6171     1
   6157   6172     1
   6157   6164     1
   6157   6166     1
   6158   6161     1
   6158   6159     1
   6158   6160     1
   6159   6162     1
   6159   6163     1
   6159   6226     1
   6160   6162     1
   6160   6163     1
   6160   6226     1
   6161   6174     1
   6161   6175     1
   6161   6167     1
   6161   6168     1
   6162   6164     1
   6162   6166     1
   6163   6171     1
   6163   6172     1
   6164   6169     1
   6164   6167     1
   6164   6168     1
   6164   6226     1
   6165   6191     1
   6165   6226     1
   6166   6169     1
   6166   6167     1
   6166   6168     1
   6166   6226     1
   6167   6170     1
   6167   6201     1
   6168   6170     1
   6168   6201     1
   6169   6184     1
   6170   6191     1
   6171   6176     1
   6171   6174     1
   6171   6175     1
   6171   6226     1
   6172   6176     1
   6172   6174     1
   6172   6175     1
   6172   6226     1
   6173   6215     1
   6173   6226     1
   6174   6177     1
   6174   6225     1
   6175   6177     1
   6175   6225     1
   6176   6208     1
   6177   6215     1
   6178   6185     1
   6178   6200     1
   6178   6195     1
   6178   6186     1
   6179   6184     1
   6179   6190     1
   6179   6192     1
   6179   6193     1
   6180   6181     1
   6180   6199     1
   6180   6198     1
   6180   6194     1
   6180   6192     1
   6180   6193     1
   6180   6183     1
   6181   6186     1
   6181   6191     1
   6181   6200     1
   6182   6197     1
   6182   6190     1
   6182   6198     1
   6183   6191     1
   6183   6185     1
   6184   6187     1
   6184   6196     1
   6184   6186     1
   6184   6191     1
   6184   6188     1
   6184   6185     1
   6185   6201     1
   6185   6190     1
   6185   6199     1
   6185   6198     1
   6186   6197     1
   6186   6201     1
   6188   6198     1
   6189   6198     1
   6192   6195     1
   6192   6196     1
   6193   6195     1
   6193   6196     1
   6196   6197     1
   6196   6198     1
   6198   6200     1
   6202   6209     1
   6202   6224     1
   6202   6219     1
   6202   6210     1
   6203   6208     1
   6203   6214     1
   6203   6216     1
   6203   6217     1
   6204   6205     1
   6204   6223     1
   6204   6222     1
   6204   6218     1
   6204   6216     1
   6204   6217     1
   6204   6207     1
   6205   6210     1
   6205   6215     1
   6205   6224     1
   6206   6221     1
   6206   6214     1
   6206   6222     1
   6207   6215     1
   6207   6209     1
   6208   6211     1
   6208   6220     1
   6208   6210     1
   6208   6215     1
   6208   6212     1
   6208   6209     1
   6209   6225     1
   6209   6214     1
   6209   6223     1
   6209   6222     1
   6210   6221     1
   6210   6225     1
   6212   6222     1
   6213   6222     1
   6216   6219     1
   6216   6220     1
   6217   6219     1
   6217   6220     1
   6220   6221     1
   6220   6222     1
   6222   6224     1
   6227   6233     1
   6227   6234     1
   6228   6231     1
   6228   6230     1
   6228   6232     1
   6229   6300     1
   6230   6235     1
   6230   6233     1
   6230   6234     1
   6231   6245     1
   6231   6246     1
   6231   6238     1
   6231   6240     1
   6232   6235     1
   6232   6233     1
   6232   6234     1
   6233   6236     1
   6233   6237     1
   6233   6300     1
   6234   6236     1
   6234   6237     1
   6234   6300     1
   6235   6248     1
   6235   6249     1
   6235   6241     1
   6235   6242     1
   6236   6238     1
   6236   6240     1
   6237   6245     1
   6237   6246     1
   6238   6300     1
   6238   6243     1
   6238   6241     1
   6238   6242     1
   6239   6300     1
   6239   6265     1
   6240   6300     1
   6240   6243     1
   6240   6241     1
   6240   6242     1
   6241   6244     1
   6241   6275     1
   6242   6244     1
   6242   6275     1
   6243   6258     1
   6244   6265     1
   6245   6300     1
   6245   6250     1
   6245   6248     1
   6245   6249     1
   6246   6300     1
   6246   6250     1
   6246   6248     1
   6246   6249     1
   6247   6300     1
   6247   6289     1
   6248   6251     1
   6248   6299     1
   6249   6251     1
   6249   6299     1
   6250   6282     1
   6251   6289     1
   6252   6259     1
   6252   6274     1
   6252   6269     1
   6252   6260     1
   6253   6266     1
   6253   6267     1
   6253   6258     1
   6253   6264     1
   6254   6255     1
   6254   6273     1
   6254   6272     1
   6254   6268     1
   6254   6266     1
   6254   6267     1
   6254   6257     1
   6255   6274     1
   6255   6260     1
   6255   6265     1
   6256   6272     1
   6256   6264     1
   6256   6271     1
   6257   6259     1
   6257   6265     1
   6258   6262     1
   6258   6259     1
   6258   6261     1
   6258   6270     1
   6258   6260     1
   6258   6265     1
   6259   6273     1
   6259   6272     1
   6259   6275     1
   6259   6264     1
   6260   6275     1
   6260   6271     1
   6262   6272     1
   6263   6272     1
   6266   6270     1
   6266   6269     1
   6267   6270     1
   6267   6269     1
   6270   6272     1
   6270   6271     1
   6272   6274     1
   6276   6283     1
   6276   6298     1
   6276   6293     1
   6276   6284     1
   6277   6290     1
   6277   6291     1
   6277   6282     1
   6277   6288     1
   6278   6279     1
   6278   6297     1
   6278   6296     1
   6278   6292     1
   6278   6290     1
   6278   6291     1
   6278   6281     1
   6279   6298     1
   6279   6284     1
   6279   6289     1
   6280   6296     1
   6280   6288     1
   6280   6295     1
   6281   6283     1
   6281   6289     1
   6282   6286     1
   6282   6283     1
   6282   6285     1
   6282   6294     1
   6282   6284     1
   6282   6289     1
   6283   6297     1
   6283   6296     1
   6283   6299     1
   6283   6288     1
   6284   6299     1
   6284   6295     1
   6286   6296     1
   6287   6296     1
   6290   6294     1
   6290   6293     1
   6291   6294     1
   6291   6293     1
   6294   6296     1
   6294   6295     1
   6296   6298     1
   6301   6307     1
   6301   6308     1
   6302   6305     1
   6302   6304     1
   6302   6306     1
   6303   6374     1
   6304   6309     1
   6304   6307     1
   6304   6308     1
   6305   6319     1
   6305   6320     1
   6305   6312     1
   6305   6314     1
   6306   6309     1
   6306   6307     1
   6306   6308     1
   6307   6310     1
   6307   6311     1
   6307   6374     1
   6308   6310     1
   6308   6311     1
   6308   6374     1
   6309   6322     1
   6309   6323     1
   6309   6315     1
   6309   6316     1
   6310   6312     1
   6310   6314     1
   6311   6319     1
   6311   6320     1
   6312   6317     1
   6312   6315     1
   6312   6316     1
   6312   6374     1
   6313   6339     1
   6313   6374     1
   6314   6317     1
   6314   6315     1
   6314   6316     1
   6314   6374     1
   6315   6318     1
   6315   6349     1
   6316   6318     1
   6316   6349     1
   6317   6332     1
   6318   6339     1
   6319   6324     1
   6319   6322     1
   6319   6323     1
   6319   6374     1
   6320   6324     1
   6320   6322     1
   6320   6323     1
   6320   6374     1
   6321   6363     1
   6321   6374     1
   6322   6325     1
   6322   6373     1
   6323   6325     1
   6323   6373     1
   6324   6356     1
   6325   6363     1
   6326   6333     1
   6326   6348     1
   6326   6343     1
   6326   6334     1
   6327   6332     1
   6327   6338     1
   6327   6340     1
   6327   6341     1
   6328   6329     1
   6328   6347     1
   6328   6346     1
   6328   6342     1
   6328   6340     1
   6328   6341     1
   6328   6331     1
   6329   6334     1
   6329   6339     1
   6329   6348     1
   6330   6345     1
   6330   6338     1
   6330   6346     1
   6331   6339     1
   6331   6333     1
   6332   6335     1
   6332   6344     1
   6332   6334     1
   6332   6339     1
   6332   6336     1
   6332   6333     1
   6333   6349     1
   6333   6338     1
   6333   6347     1
   6333   6346     1
   6334   6345     1
   6334   6349     1
   6336   6346     1
   6337   6346     1
   6340   6343     1
   6340   6344     1
   6341   6343     1
   6341   6344     1
   6344   6345     1
   6344   6346     1
   6346   6348     1
   6350   6357     1
   6350   6372     1
   6350   6367     1
   6350   6358     1
   6351   6356     1
   6351   6362     1
   6351   6364     1
   6351   6365     1
   6352   6353     1
   6352   6371     1
   6352   6370     1
   6352   6366     1
   6352   6364     1
   6352   6365     1
   6352   6355     1
   6353   6358     1
   6353   6363     1
   6353   6372     1
   6354   6369     1
   6354   6362     1
   6354   6370     1
   6355   6363     1
   6355   6357     1
   6356   6359     1
   6356   6368     1
   6356   6358     1
   6356   6363     1
   6356   6360     1
   6356   6357     1
   6357   6373     1
   6357   6362     1
   6357   6371     1
   6357   6370     1
   6358   6369     1
   6358   6373     1
   6360   6370     1
   6361   6370     1
   6364   6367     1
   6364   6368     1
   6365   6367     1
   6365   6368     1
   6368   6369     1
   6368   6370     1
   6370   6372     1
   6375   6381     1
   6375   6382     1
   6376   6379     1
   6376   6378     1
   6376   6380     1
   6377   6448     1
   6378   6383     1
   6378   6381     1
   6378   6382     1
   6379   6393     1
   6379   6394     1
   6379   6386     1
   6379   6388     1
   6380   6383     1
   6380   6381     1
   6380   6382     1
   6381   6384     1
   6381   6385     1
   6381   6448     1
   6382   6384     1
   6382   6385     1
   6382   6448     1
   6383   6396     1
   6383   6397     1
   6383   6389     1
   6383   6390     1
   6384   6386     1
   6384   6388     1
   6385   6393     1
   6385   6394     1
   6386   6448     1
   6386   6391     1
   6386   6389     1
   6386   6390     1
   6387   6448     1
   6387   6413     1
   6388   6448     1
   6388   6391     1
   6388   6389     1
   6388   6390     1
   6389   6392     1
   6389   6423     1
   6390   6392     1
   6390   6423     1
   6391   6406     1
   6392   6413     1
   6393   6448     1
   6393   6398     1
   6393   6396     1
   6393   6397     1
   6394   6448     1
   6394   6398     1
   6394   6396     1
   6394   6397     1
   6395   6448     1
   6395   6437     1
   6396   6399     1
   6396   6447     1
   6397   6399     1
   6397   6447     1
   6398   6430     1
   6399   6437     1
   6400   6407     1
   6400   6422     1
   6400   6417     1
   6400   6408     1
   6401   6414     1
   6401   6415     1
   6401   6406     1
   6401   6412     1
   6402   6403     1
   6402   6421     1
   6402   6420     1
   6402   6416     1
   6402   6414     1
   6402   6415     1
   6402   6405     1
   6403   6422     1
   6403   6408     1
   6403   6413     1
   6404   6420     1
   6404   6412     1
   6404   6419     1
   6405   6407     1
   6405   6413     1
   6406   6410     1
   6406   6407     1
   6406   6409     1
   6406   6418     1
   6406   6408     1
   6406   6413     1
   6407   6421     1
   6407   6420     1
   6407   6423     1
   6407   6412     1
   6408   6423     1
   6408   6419     1
   6410   6420     1
   6411   6420     1
   6414   6418     1
   6414   6417     1
   6415   6418     1
   6415   6417     1
   6418   6420     1
   6418   6419     1
   6420   6422     1
   6424   6431     1
   6424   6446     1
   6424   6441     1
   6424   6432     1
   6425   6438     1
   6425   6439     1
   6425   6430     1
   6425   6436     1
   6426   6427     1
   6426   6445     1
   6426   6444     1
   6426   6440     1
   6426   6438     1
   6426   6439     1
   6426   6429     1
   6427   6446     1
   6427   6432     1
   6427   6437     1
   6428   6444     1
   6428   6436     1
   6428   6443     1
   6429   6431     1
   6429   6437     1
   6430   6434     1
   6430   6431     1
   6430   6433     1
   6430   6442     1
   6430   6432     1
   6430   6437     1
   6431   6445     1
   6431   6444     1
   6431   6447     1
   6431   6436     1
   6432   6447     1
   6432   6443     1
   6434   6444     1
   6435   6444     1
   6438   6442     1
   6438   6441     1
   6439   6442     1
   6439   6441     1
   6442   6444     1
   6442   6443     1
   6444   6446     1
   6449   6455     1
   6449   6456     1
   6450   6453     1
   6450   6452     1
   6450   6454     1
   6451   6522     1
   6452   6457     1
   6452   6455     1
   6452   6456     1
   6453   6467     1
   6453   6468     1
   6453   6460     1
   6453   6462     1
   6454   6457     1
   6454   6455     1
   6454   6456     1
   6455   6458     1
   6455   6459     1
   6455   6522     1
   6456   6458     1
   6456   6459     1
   6456   6522     1
   6457   6470     1
   6457   6471     1
   6457   6463     1
   6457   6464     1
   6458   6460     1
   6458   6462     1
   6459   6467     1
   6459   6468     1
   6460   6465     1
   6460   6463     1
   6460   6464     1
   6460   6522     1
   6461   6487     1
   6461   6522     1
   6462   6465     1
   6462   6463     1
   6462   6464     1
   6462   6522     1
   6463   6466     1
   6463   6497     1
   6464   6466     1
   6464   6497     1
   6465   6480     1
   6466   6487     1
   6467   6472     1
   6467   6470     1
   6467   6471     1
   6467   6522     1
   6468   6472     1
   6468   6470     1
   6468   6471     1
   6468   6522     1
   6469   6511     1
   6469   6522     1
   6470   6473     1
   6470   6521     1
   6471   6473     1
   6471   6521     1
   6472   6504     1
   6473   6511     1
   6474   6481     1
   6474   6496     1
   6474   6491     1
   6474   6482     1
   6475   6480     1
   6475   6486     1
   6475   6488     1
   6475   6489     1
   6476   6477     1
   6476   6495     1
   6476   6494     1
   6476   6490     1
   6476   6488     1
   6476   6489     1
   6476   6479     1
   6477   6482     1
   6477   6487     1
   6477   6496     1
   6478   6493     1
   6478   6486     1
   6478   6494     1
   6479   6487     1
   6479   6481     1
   6480   6483     1
   6480   6492     1
   6480   6482     1
   6480   6487     1
   6480   6484     1
   6480   6481     1
   6481   6497     1
   6481   6486     1
   6481   6495     1
   6481   6494     1
   6482   6493     1
   6482   6497     1
   6484   6494     1
   6485   6494     1
   6488   6491     1
   6488   6492     1
   6489   6491     1
   6489   6492     1
   6492   6493     1
   6492   6494     1
   6494   6496     1
   6498   6505     1
   6498   6520     1
   6498   6515     1
   6498   6506     1
   6499   6504     1
   6499   6510     1
   6499   6512     1
   6499   6513     1
   6500   6501     1
   6500   6519     1
   6500   6518     1
   6500   6514     1
   6500   6512     1
   6500   6513     1
   6500   6503     1
   6501   6506     1
   6501   6511     1
   6501   6520     1
   6502   6517     1
   6502   6510     1
   6502   6518     1
   6503   6511     1
   6503   6505     1
   6504   6507     1
   6504   6516     1
   6504   6506     1
   6504   6511     1
   6504   6508     1
   6504   6505     1
   6505   6521     1
   6505   6510     1
   6505   6519     1
   6505   6518     1
   6506   6517     1
   6506   6521     1
   6508   6518     1
   6509   6518     1
   6512   6515     1
   6512   6516     1
   6513   6515     1
   6513   6516     1
   6516   6517     1
   6516   6518     1
   6518   6520     1
   6523   6529     1
   6523   6530     1
   6524   6527     1
   6524   6526     1
   6524   6528     1
   6525   6596     1
   6526   6531     1
   6526   6529     1
   6526   6530     1
   6527   6541     1
   6527   6542     1
   6527   6534     1
   6527   6536     1
   6528   6531     1
   6528   6529     1
   6528   6530     1
   6529   6532     1
   6529   6533     1
   6529   6596     1
   6530   6532     1
   6530   6533     1
   6530   6596     1
   6531   6544     1
   6531   6545     1
   6531   6537     1
   6531   6538     1
   6532   6534     1
   6532   6536     1
   6533   6541     1
   6533   6542     1
   6534   6596     1
   6534   6539     1
   6534   6537     1
   6534   6538     1
   6535   6596     1
   6535   6561     1
   6536   6596     1
   6536   6539     1
   6536   6537     1
   6536   6538     1
   6537   6540     1
   6537   6571     1
   6538   6540     1
   6538   6571     1
   6539   6554     1
   6540   6561     1
   6541   6596     1
   6541   6546     1
   6541   6544     1
   6541   6545     1
   6542   6596     1
   6542   6546     1
   6542   6544     1
   6542   6545     1
   6543   6596     1
   6543   6585     1
   6544   6547     1
   6544   6595     1
   6545   6547     1
   6545   6595     1
   6546   6578     1
   6547   6585     1
   6548   6555     1
   6548   6570     1
   6548   6565     1
   6548   6556     1
   6549   6562     1
   6549   6563     1
   6549   6554     1
   6549   6560     1
   6550   6551     1
   6550   6569     1
   6550   6568     1
   6550   6564     1
   6550   6562     1
   6550   6563     1
   6550   6553     1
   6551   6570     1
   6551   6556     1
   6551   6561     1
   6552   6568     1
   6552   6560     1
   6552   6567     1
   6553   6555     1
   6553   6561     1
   6554   6558     1
   6554   6555     1
   6554   6557     1
   6554   6566     1
   6554   6556     1
   6554   6561     1
   6555   6569     1
   6555   6568     1
   6555   6571     1
   6555   6560     1
   6556   6571     1
   6556   6567     1
   6558   6568     1
   6559   6568     1
   6562   6566     1
   6562   6565     1
   6563   6566     1
   6563   6565     1
   6566   6568     1
   6566   6567     1
   6568   6570     1
   6572   6579     1
   6572   6594     1
   6572   6589     1
   6572   6580     1
   6573   6586     1
   6573   6587     1
   6573   6578     1
   6573   6584     1
   6574   6575     1
   6574   6593     1
   6574   6592     1
   6574   6588     1
   6574   6586     1
   6574   6587     1
   6574   6577     1
   6575   6594     1
   6575   6580     1
   6575   6585     1
   6576   6592     1
   6576   6584     1
   6576   6591     1
   6577   6579     1
   6577   6585     1
   6578   6582     1
   6578   6579     1
   6578   6581     1
   6578   6590     1
   6578   6580     1
   6578   6585     1
   6579   6593     1
   6579   6592     1
   6579   6595     1
   6579   6584     1
   6580   6595     1
   6580   6591     1
   6582   6592     1
   6583   6592     1
   6586   6590     1
   6586   6589     1
   6587   6590     1
   6587   6589     1
   6590   6592     1
   6590   6591     1
   6592   6594     1
   6597   6603     1
   6597   6604     1
   6598   6601     1
   6598   6600     1
   6598   6602     1
   6599   6670     1
   6600   6605     1
   6600   6603     1
   6600   6604     1
   6601   6615     1
   6601   6616     1
   6601   6608     1
   6601   6610     1
   6602   6605     1
   6602   6603     1
   6602   6604     1
   6603   6606     1
   6603   6607     1
   6603   6670     1
   6604   6606     1
   6604   6607     1
   6604   6670     1
   6605   6618     1
   6605   6619     1
   6605   6611     1
   6605   6612     1
   6606   6608     1
   6606   6610     1
   6607   6615     1
   6607   6616     1
   6608   6613     1
   6608   6611     1
   6608   6612     1
   6608   6670     1
   6609   6635     1
   6609   6670     1
   6610   6613     1
   6610   6611     1
   6610   6612     1
   6610   6670     1
   6611   6614     1
   6611   6645     1
   6612   6614     1
   6612   6645     1
   6613   6628     1
   6614   6635     1
   6615   6620     1
   6615   6618     1
   6615   6619     1
   6615   6670     1
   6616   6620     1
   6616   6618     1
   6616   6619     1
   6616   6670     1
   6617   6659     1
   6617   6670     1
   6618   6621     1
   6618   6669     1
   6619   6621     1
   6619   6669     1
   6620   6652     1
   6621   6659     1
   6622   6629     1
   6622   6644     1
   6622   6639     1
   6622   6630     1
   6623   6628     1
   6623   6634     1
   6623   6636     1
   6623   6637     1
   6624   6625     1
   6624   6643     1
   6624   6642     1
   6624   6638     1
   6624   6636     1
   6624   6637     1
   6624   6627     1
   6625   6630     1
   6625   6635     1
   6625   6644     1
   6626   6641     1
   6626   6634     1
   6626   6642     1
   6627   6635     1
   6627   6629     1
   6628   6631     1
   6628   6640     1
   6628   6630     1
   6628   6635     1
   6628   6632     1
   6628   6629     1
   6629   6645     1
   6629   6634     1
   6629   6643     1
   6629   6642     1
   6630   6641     1
   6630   6645     1
   6632   6642     1
   6633   6642     1
   6636   6639     1
   6636   6640     1
   6637   6639     1
   6637   6640     1
   6640   6641     1
   6640   6642     1
   6642   6644     1
   6646   6653     1
   6646   6668     1
   6646   6663     1
   6646   6654     1
   6647   6652     1
   6647   6658     1
   6647   6660     1
   6647   6661     1
   6648   6649     1
   6648   6667     1
   6648   6666     1
   6648   6662     1
   6648   6660     1
   6648   6661     1
   6648   6651     1
   6649   6654     1
   6649   6659     1
   6649   6668     1
   6650   6665     1
   6650   6658     1
   6650   6666     1
   6651   6659     1
   6651   6653     1
   6652   6655     1
   6652   6664     1
   6652   6654     1
   6652   6659     1
   6652   6656     1
   6652   6653     1
   6653   6669     1
   6653   6658     1
   6653   6667     1
   6653   6666     1
   6654   6665     1
   6654   6669     1
   6656   6666     1
   6657   6666     1
   6660   6663     1
   6660   6664     1
   6661   6663     1
   6661   6664     1
   6664   6665     1
   6664   6666     1
   6666   6668     1
   6671   6677     1
   6671   6678     1
   6672   6675     1
   6672   6674     1
   6672   6676     1
   6673   6744     1
   6674   6679     1
   6674   6677     1
   6674   6678     1
   6675   6689     1
   6675   6690     1
   6675   6682     1
   6675   6684     1
   6676   6679     1
   6676   6677     1
   6676   6678     1
   6677   6680     1
   6677   6681     1
   6677   6744     1
   6678   6680     1
   6678   6681     1
   6678   6744     1
   6679   6692     1
   6679   6693     1
   6679   6685     1
   6679   6686     1
   6680   6682     1
   6680   6684     1
   6681   6689     1
   6681   6690     1
   6682   6744     1
   6682   6687     1
   6682   6685     1
   6682   6686     1
   6683   6744     1
   6683   6709     1
   6684   6744     1
   6684   6687     1
   6684   6685     1
   6684   6686     1
   6685   6688     1
   6685   6719     1
   6686   6688     1
   6686   6719     1
   6687   6702     1
   6688   6709     1
   6689   6744     1
   6689   6694     1
   6689   6692     1
   6689   6693     1
   6690   6744     1
   6690   6694     1
   6690   6692     1
   6690   6693     1
   6691   6744     1
   6691   6733     1
   6692   6695     1
   6692   6743     1
   6693   6695     1
   6693   6743     1
   6694   6726     1
   6695   6733     1
   6696   6703     1
   6696   6718     1
   6696   6713     1
   6696   6704     1
   6697   6710     1
   6697   6711     1
   6697   6702     1
   6697   6708     1
   6698   6699     1
   6698   6717     1
   6698   6716     1
   6698   6712     1
   6698   6710     1
   6698   6711     1
   6698   6701     1
   6699   6718     1
   6699   6704     1
   6699   6709     1
   6700   6716     1
   6700   6708     1
   6700   6715     1
   6701   6703     1
   6701   6709     1
   6702   6706     1
   6702   6703     1
   6702   6705     1
   6702   6714     1
   6702   6704     1
   6702   6709     1
   6703   6717     1
   6703   6716     1
   6703   6719     1
   6703   6708     1
   6704   6719     1
   6704   6715     1
   6706   6716     1
   6707   6716     1
   6710   6714     1
   6710   6713     1
   6711   6714     1
   6711   6713     1
   6714   6716     1
   6714   6715     1
   6716   6718     1
   6720   6727     1
   6720   6742     1
   6720   6737     1
   6720   6728     1
   6721   6734     1
   6721   6735     1
   6721   6726     1
   6721   6732     1
   6722   6723     1
   6722   6741     1
   6722   6740     1
   6722   6736     1
   6722   6734     1
   6722   6735     1
   6722   6725     1
   6723   6742     1
   6723   6728     1
   6723   6733     1
   6724   6740     1
   6724   6732     1
   6724   6739     1
   6725   6727     1
   6725   6733     1
   6726   6730     1
   6726   6727     1
   6726   6729     1
   6726   6738     1
   6726   6728     1
   6726   6733     1
   6727   6741     1
   6727   6740     1
   6727   6743     1
   6727   6732     1
   6728   6743     1
   6728   6739     1
   6730   6740     1
   6731   6740     1
   6734   6738     1
   6734   6737     1
   6735   6738     1
   6735   6737     1
   6738   6740     1
   6738   6739     1
   6740   6742     1
   6745   6751     1
   6745   6752     1
   6746   6749     1
   6746   6748     1
   6746   6750     1
   6747   6818     1
   6748   6753     1
   6748   6751     1
   6748   6752     1
   6749   6763     1
   6749   6764     1
   6749   6756     1
   6749   6758     1
   6750   6753     1
   6750   6751     1
   6750   6752     1
   6751   6754     1
   6751   6755     1
   6751   6818     1
   6752   6754     1
   6752   6755     1
   6752   6818     1
   6753   6766     1
   6753   6767     1
   6753   6759     1
   6753   6760     1
   6754   6756     1
   6754   6758     1
   6755   6763     1
   6755   6764     1
   6756   6761     1
   6756   6759     1
   6756   6760     1
   6756   6818     1
   6757   6783     1
   6757   6818     1
   6758   6761     1
   6758   6759     1
   6758   6760     1
   6758   6818     1
   6759   6762     1
   6759   6793     1
   6760   6762     1
   6760   6793     1
   6761   6776     1
   6762   6783     1
   6763   6768     1
   6763   6766     1
   6763   6767     1
   6763   6818     1
   6764   6768     1
   6764   6766     1
   6764   6767     1
   6764   6818     1
   6765   6807     1
   6765   6818     1
   6766   6769     1
   6766   6817     1
   6767   6769     1
   6767   6817     1
   6768   6800     1
   6769   6807     1
   6770   6777     1
   6770   6792     1
   6770   6787     1
   6770   6778     1
   6771   6776     1
   6771   6782     1
   6771   6784     1
   6771   6785     1
   6772   6773     1
   6772   6791     1
   6772   6790     1
   6772   6786     1
   6772   6784     1
   6772   6785     1
   6772   6775     1
   6773   6778     1
   6773   6783     1
   6773   6792     1
   6774   6789     1
   6774   6782     1
   6774   6790     1
   6775   6783     1
   6775   6777     1
   6776   6779     1
   6776   6788     1
   6776   6778     1
   6776   6783     1
   6776   6780     1
   6776   6777     1
   6777   6793     1
   6777   6782     1
   6777   6791     1
   6777   6790     1
   6778   6789     1
   6778   6793     1
   6780   6790     1
   6781   6790     1
   6784   6787     1
   6784   6788     1
   6785   6787     1
   6785   6788     1
   6788   6789     1
   6788   6790     1
   6790   6792     1
   6794   6801     1
   6794   6816     1
   6794   6811     1
   6794   6802     1
   6795   6800     1
   6795   6806     1
   6795   6808     1
   6795   6809     1
   6796   6797     1
   6796   6815     1
   6796   6814     1
   6796   6810     1
   6796   6808     1
   6796   6809     1
   6796   6799     1
   6797   6802     1
   6797   6807     1
   6797   6816     1
   6798   6813     1
   6798   6806     1
   6798   6814     1
   6799   6807     1
   6799   6801     1
   6800   6803     1
   6800   6812     1
   6800   6802     1
   6800   6807     1
   6800   6804     1
   6800   6801     1
   6801   6817     1
   6801   6806     1
   6801   6815     1
   6801   6814     1
   6802   6813     1
   6802   6817     1
   6804   6814     1
   6805   6814     1
   6808   6811     1
   6808   6812     1
   6809   6811     1
   6809   6812     1
   6812   6813     1
   6812   6814     1
   6814   6816     1
   6819   6825     1
   6819   6826     1
   6820   6823     1
   6820   6822     1
   6820   6824     1
   6821   6892     1
   6822   6827     1
   6822   6825     1
   6822   6826     1
   6823   6837     1
   6823   6838     1
   6823   6830     1
   6823   6832     1
   6824   6827     1
   6824   6825     1
   6824   6826     1
   6825   6828     1
   6825   6829     1
   6825   6892     1
   6826   6828     1
   6826   6829     1
   6826   6892     1
   6827   6840     1
   6827   6841     1
   6827   6833     1
   6827   6834     1
   6828   6830     1
   6828   6832     1
   6829   6837     1
   6829   6838     1
   6830   6892     1
   6830   6835     1
   6830   6833     1
   6830   6834     1
   6831   6892     1
   6831   6857     1
   6832   6892     1
   6832   6835     1
   6832   6833     1
   6832   6834     1
   6833   6836     1
   6833   6867     1
   6834   6836     1
   6834   6867     1
   6835   6850     1
   6836   6857     1
   6837   6892     1
   6837   6842     1
   6837   6840     1
   6837   6841     1
   6838   6892     1
   6838   6842     1
   6838   6840     1
   6838   6841     1
   6839   6892     1
   6839   6881     1
   6840   6843     1
   6840   6891     1
   6841   6843     1
   6841   6891     1
   6842   6874     1
   6843   6881     1
   6844   6851     1
   6844   6866     1
   6844   6861     1
   6844   6852     1
   6845   6858     1
   6845   6859     1
   6845   6850     1
   6845   6856     1
   6846   6847     1
   6846   6865     1
   6846   6864     1
   6846   6860     1
   6846   6858     1
   6846   6859     1
   6846   6849     1
   6847   6866     1
   6847   6852     1
   6847   6857     1
   6848   6864     1
   6848   6856     1
   6848   6863     1
   6849   6851     1
   6849   6857     1
   6850   6854     1
   6850   6851     1
   6850   6853     1
   6850   6862     1
   6850   6852     1
   6850   6857     1
   6851   6865     1
   6851   6864     1
   6851   6867     1
   6851   6856     1
   6852   6867     1
   6852   6863     1
   6854   6864     1
   6855   6864     1
   6858   6862     1
   6858   6861     1
   6859   6862     1
   6859   6861     1
   6862   6864     1
   6862   6863     1
   6864   6866     1
   6868   6875     1
   6868   6890     1
   6868   6885     1
   6868   6876     1
   6869   6882     1
   6869   6883     1
   6869   6874     1
   6869   6880     1
   6870   6871     1
   6870   6889     1
   6870   6888     1
   6870   6884     1
   6870   6882     1
   6870   6883     1
   6870   6873     1
   6871   6890     1
   6871   6876     1
   6871   6881     1
   6872   6888     1
   6872   6880     1
   6872   6887     1
   6873   6875     1
   6873   6881     1
   6874   6878     1
   6874   6875     1
   6874   6877     1
   6874   6886     1
   6874   6876     1
   6874   6881     1
   6875   6889     1
   6875   6888     1
   6875   6891     1
   6875   6880     1
   6876   6891     1
   6876   6887     1
   6878   6888     1
   6879   6888     1
   6882   6886     1
   6882   6885     1
   6883   6886     1
   6883   6885     1
   6886   6888     1
   6886   6887     1
   6888   6890     1
   6893   6899     1
   6893   6900     1
   6894   6897     1
   6894   6896     1
   6894   6898     1
   6895   6966     1
   6896   6901     1
   6896   6899     1
   6896   6900     1
   6897   6911     1
   6897   6912     1
   6897   6904     1
   6897   6906     1
   6898   6901     1
   6898   6899     1
   6898   6900     1
   6899   6902     1
   6899   6903     1
   6899   6966     1
   6900   6902     1
   6900   6903     1
   6900   6966     1
   6901   6914     1
   6901   6915     1
   6901   6907     1
   6901   6908     1
   6902   6904     1
   6902   6906     1
   6903   6911     1
   6903   6912     1
   6904   6909     1
   6904   6907     1
   6904   6908     1
   6904   6966     1
   6905   6931     1
   6905   6966     1
   6906   6909     1
   6906   6907     1
   6906   6908     1
   6906   6966     1
   6907   6910     1
   6907   6941     1
   6908   6910     1
   6908   6941     1
   6909   6924     1
   6910   6931     1
   6911   6916     1
   6911   6914     1
   6911   6915     1
   6911   6966     1
   6912   6916     1
   6912   6914     1
   6912   6915     1
   6912   6966     1
   6913   6955     1
   6913   6966     1
   6914   6917     1
   6914   6965     1
   6915   6917     1
   6915   6965     1
   6916   6948     1
   6917   6955     1
   6918   6925     1
   6918   6940     1
   6918   6935     1
   6918   6926     1
   6919   6924     1
   6919   6930     1
   6919   6932     1
   6919   6933     1
   6920   6921     1
   6920   6939     1
   6920   6938     1
   6920   6934     1
   6920   6932     1
   6920   6933     1
   6920   6923     1
   6921   6926     1
   6921   6931     1
   6921   6940     1
   6922   6937     1
   6922   6930     1
   6922   6938     1
   6923   6931     1
   6923   6925     1
   6924   6927     1
   6924   6936     1
   6924   6926     1
   6924   6931     1
   6924   6928     1
   6924   6925     1
   6925   6941     1
   6925   6930     1
   6925   6939     1
   6925   6938     1
   6926   6937     1
   6926   6941     1
   6928   6938     1
   6929   6938     1
   6932   6935     1
   6932   6936     1
   6933   6935     1
   6933   6936     1
   6936   6937     1
   6936   6938     1
   6938   6940     1
   6942   6949     1
   6942   6964     1
   6942   6959     1
   6942   6950     1
   6943   6948     1
   6943   6954     1
   6943   6956     1
   6943   6957     1
   6944   6945     1
   6944   6963     1
   6944   6962     1
   6944   6958     1
   6944   6956     1
   6944   6957     1
   6944   6947     1
   6945   6950     1
   6945   6955     1
   6945   6964     1
   6946   6961     1
   6946   6954     1
   6946   6962     1
   6947   6955     1
   6947   6949     1
   6948   6951     1
   6948   6960     1
   6948   6950     1
   6948   6955     1
   6948   6952     1
   6948   6949     1
   6949   6965     1
   6949   6954     1
   6949   6963     1
   6949   6962     1
   6950   6961     1
   6950   6965     1
   6952   6962     1
   6953   6962     1
   6956   6959     1
   6956   6960     1
   6957   6959     1
   6957   6960     1
   6960   6961     1
   6960   6962     1
   6962   6964     1
   6967   6973     1
   6967   6974     1
   6968   6971     1
   6968   6970     1
   6968   6972     1
   6969   7040     1
   6970   6975     1
   6970   6973     1
   6970   6974     1
   6971   6985     1
   6971   6986     1
   6971   6978     1
   6971   6980     1
   6972   6975     1
   6972   6973     1
   6972   6974     1
   6973   6976     1
   6973   6977     1
   6973   7040     1
   6974   6976     1
   6974   6977     1
   6974   7040     1
   6975   6988     1
   6975   6989     1
   6975   6981     1
   6975   6982     1
   6976   6978     1
   6976   6980     1
   6977   6985     1
   6977   6986     1
   6978   7040     1
   6978   6983     1
   6978   6981     1
   6978   6982     1
   6979   7040     1
   6979   7005     1
   6980   7040     1
   6980   6983     1
   6980   6981     1
   6980   6982     1
   6981   6984     1
   6981   7015     1
   6982   6984     1
   6982   7015     1
   6983   6998     1
   6984   7005     1
   6985   7040     1
   6985   6990     1
   6985   6988     1
   6985   6989     1
   6986   7040     1
   6986   6990     1
   6986   6988     1
   6986   6989     1
   6987   7040     1
   6987   7029     1
   6988   6991     1
   6988   7039     1
   6989   6991     1
   6989   7039     1
   6990   7022     1
   6991   7029     1
   6992   6999     1
   6992   7014     1
   6992   7009     1
   6992   7000     1
   6993   7006     1
   6993   7007     1
   6993   6998     1
   6993   7004     1
   6994   6995     1
   6994   7013     1
   6994   7012     1
   6994   7008     1
   6994   7006     1
   6994   7007     1
   6994   6997     1
   6995   7014     1
   6995   7000     1
   6995   7005     1
   6996   7012     1
   6996   7004     1
   6996   7011     1
   6997   6999     1
   6997   7005     1
   6998   7002     1
   6998   6999     1
   6998   7001     1
   6998   7010     1
   6998   7000     1
   6998   7005     1
   6999   7013     1
   6999   7012     1
   6999   7015     1
   6999   7004     1
   7000   7015     1
   7000   7011     1
   7002   7012     1
   7003   7012     1
   7006   7010     1
   7006   7009     1
   7007   7010     1
   7007   7009     1
   7010   7012     1
   7010   7011     1
   7012   7014     1
   7016   7023     1
   7016   7038     1
   7016   7033     1
   7016   7024     1
   7017   7030     1
   7017   7031     1
   7017   7022     1
   7017   7028     1
   7018   7019     1
   7018   7037     1
   7018   7036     1
   7018   7032     1
   7018   7030     1
   7018   7031     1
   7018   7021     1
   7019   7038     1
   7019   7024     1
   7019   7029     1
   7020   7036     1
   7020   7028     1
   7020   7035     1
   7021   7023     1
   7021   7029     1
   7022   7026     1
   7022   7023     1
   7022   7025     1
   7022   7034     1
   7022   7024     1
   7022   7029     1
   7023   7037     1
   7023   7036     1
   7023   7039     1
   7023   7028     1
   7024   7039     1
   7024   7035     1
   7026   7036     1
   7027   7036     1
   7030   7034     1
   7030   7033     1
   7031   7034     1
   7031   7033     1
   7034   7036     1
   7034   7035     1
   7036   7038     1
   7041   7047     1
   7041   7048     1
   7042   7045     1
   7042   7044     1
   7042   7046     1
   7043   7114     1
   7044   7049     1
   7044   7047     1
   7044   7048     1
   7045   7059     1
   7045   7060     1
   7045   7052     1
   7045   7054     1
   7046   7049     1
   7046   7047     1
   7046   7048     1
   7047   7050     1
   7047   7051     1
   7047   7114     1
   7048   7050     1
   7048   7051     1
   7048   7114     1
   7049   7062     1
   7049   7063     1
   7049   7055     1
   7049   7056     1
   7050   7052     1
   7050   7054     1
   7051   7059     1
   7051   7060     1
   7052   7057     1
   7052   7055     1
   7052   7056     1
   7052   7114     1
   7053   7079     1
   7053   7114     1
   7054   7057     1
   7054   7055     1
   7054   7056     1
   7054   7114     1
   7055   7058     1
   7055   7089     1
   7056   7058     1
   7056   7089     1
   7057   7072     1
   7058   7079     1
   7059   7064     1
   7059   7062     1
   7059   7063     1
   7059   7114     1
   7060   7064     1
   7060   7062     1
   7060   7063     1
   7060   7114     1
   7061   7103     1
   7061   7114     1
   7062   7065     1
   7062   7113     1
   7063   7065     1
   7063   7113     1
   7064   7096     1
   7065   7103     1
   7066   7073     1
   7066   7088     1
   7066   7083     1
   7066   7074     1
   7067   7072     1
   7067   7078     1
   7067   7080     1
   7067   7081     1
   7068   7069     1
   7068   7087     1
   7068   7086     1
   7068   7082     1
   7068   7080     1
   7068   7081     1
   7068   7071     1
   7069   7074     1
   7069   7079     1
   7069   7088     1
   7070   7085     1
   7070   7078     1
   7070   7086     1
   7071   7079     1
   7071   7073     1
   7072   7075     1
   7072   7084     1
   7072   7074     1
   7072   7079     1
   7072   7076     1
   7072   7073     1
   7073   7089     1
   7073   7078     1
   7073   7087     1
   7073   7086     1
   7074   7085     1
   7074   7089     1
   7076   7086     1
   7077   7086     1
   7080   7083     1
   7080   7084     1
   7081   7083     1
   7081   7084     1
   7084   7085     1
   7084   7086     1
   7086   7088     1
   7090   7097     1
   7090   7112     1
   7090   7107     1
   7090   7098     1
   7091   7096     1
   7091   7102     1
   7091   7104     1
   7091   7105     1
   7092   7093     1
   7092   7111     1
   7092   7110     1
   7092   7106     1
   7092   7104     1
   7092   7105     1
   7092   7095     1
   7093   7098     1
   7093   7103     1
   7093   7112     1
   7094   7109     1
   7094   7102     1
   7094   7110     1
   7095   7103     1
   7095   7097     1
   7096   7099     1
   7096   7108     1
   7096   7098     1
   7096   7103     1
   7096   7100     1
   7096   7097     1
   7097   7113     1
   7097   7102     1
   7097   7111     1
   7097   7110     1
   7098   7109     1
   7098   7113     1
   7100   7110     1
   7101   7110     1
   7104   7107     1
   7104   7108     1
   7105   7107     1
   7105   7108     1
   7108   7109     1
   7108   7110     1
   7110   7112     1
   7115   7121     1
   7115   7122     1
   7116   7119     1
   7116   7118     1
   7116   7120     1
   7117   7188     1
   7118   7123     1
   7118   7121     1
   7118   7122     1
   7119   7133     1
   7119   7134     1
   7119   7126     1
   7119   7128     1
   7120   7123     1
   7120   7121     1
   7120   7122     1
   7121   7124     1
   7121   7125     1
   7121   7188     1
   7122   7124     1
   7122   7125     1
   7122   7188     1
   7123   7136     1
   7123   7137     1
   7123   7129     1
   7123   7130     1
   7124   7126     1
   7124   7128     1
   7125   7133     1
   7125   7134     1
   7126   7188     1
   7126   7131     1
   7126   7129     1
   7126   7130     1
   7127   7188     1
   7127   7153     1
   7128   7188     1
   7128   7131     1
   7128   7129     1
   7128   7130     1
   7129   7132     1
   7129   7163     1
   7130   7132     1
   7130   7163     1
   7131   7146     1
   7132   7153     1
   7133   7188     1
   7133   7138     1
   7133   7136     1
   7133   7137     1
   7134   7188     1
   7134   7138     1
   7134   7136     1
   7134   7137     1
   7135   7188     1
   7135   7177     1
   7136   7139     1
   7136   7187     1
   7137   7139     1
   7137   7187     1
   7138   7170     1
   7139   7177     1
   7140   7147     1
   7140   7162     1
   7140   7157     1
   7140   7148     1
   7141   7154     1
   7141   7155     1
   7141   7146     1
   7141   7152     1
   7142   7143     1
   7142   7161     1
   7142   7160     1
   7142   7156     1
   7142   7154     1
   7142   7155     1
   7142   7145     1
   7143   7162     1
   7143   7148     1
   7143   7153     1
   7144   7160     1
   7144   7152     1
   7144   7159     1
   7145   7147     1
   7145   7153     1
   7146   7150     1
   7146   7147     1
   7146   7149     1
   7146   7158     1
   7146   7148     1
   7146   7153     1
   7147   7161     1
   7147   7160     1
   7147   7163     1
   7147   7152     1
   7148   7163     1
   7148   7159     1
   7150   7160     1
   7151   7160     1
   7154   7158     1
   7154   7157     1
   7155   7158     1
   7155   7157     1
   7158   7160     1
   7158   7159     1
   7160   7162     1
   7164   7171     1
   7164   7186     1
   7164   7181     1
   7164   7172     1
   7165   7178     1
   7165   7179     1
   7165   7170     1
   7165   7176     1
   7166   7167     1
   7166   7185     1
   7166   7184     1
   7166   7180     1
   7166   7178     1
   7166   7179     1
   7166   7169     1
   7167   7186     1
   7167   7172     1
   7167   7177     1
   7168   7184     1
   7168   7176     1
   7168   7183     1
   7169   7171     1
   7169   7177     1
   7170   7174     1
   7170   7171     1
   7170   7173     1
   7170   7182     1
   7170   7172     1
   7170   7177     1
   7171   7185     1
   7171   7184     1
   7171   7187     1
   7171   7176     1
   7172   7187     1
   7172   7183     1
   7174   7184     1
   7175   7184     1
   7178   7182     1
   7178   7181     1
   7179   7182     1
   7179   7181     1
   7182   7184     1
   7182   7183     1
   7184   7186     1
   7189   7195     1
   7189   7196     1
   7190   7193     1
   7190   7192     1
   7190   7194     1
   7191   7262     1
   7192   7197     1
   7192   7195     1
   7192   7196     1
   7193   7207     1
   7193   7208     1
   7193   7200     1
   7193   7202     1
   7194   7197     1
   7194   7195     1
   7194   7196     1
   7195   7198     1
   7195   7199     1
   7195   7262     1
   7196   7198     1
   7196   7199     1
   7196   7262     1
   7197   7210     1
   7197   7211     1
   7197   7203     1
   7197   7204     1
   7198   7200     1
   7198   7202     1
   7199   7207     1
   7199   7208     1
   7200   7205     1
   7200   7203     1
   7200   7204     1
   7200   7262     1
   7201   7227     1
   7201   7262     1
   7202   7205     1
   7202   7203     1
   7202   7204     1
   7202   7262     1
   7203   7206     1
   7203   7237     1
   7204   7206     1
   7204   7237     1
   7205   7220     1
   7206   7227     1
   7207   7212     1
   7207   7210     1
   7207   7211     1
   7207   7262     1
   7208   7212     1
   7208   7210     1
   7208   7211     1
   7208   7262     1
   7209   7251     1
   7209   7262     1
   7210   7213     1
   7210   7261     1
   7211   7213     1
   7211   7261     1
   7212   7244     1
   7213   7251     1
   7214   7221     1
   7214   7236     1
   7214   7231     1
   7214   7222     1
   7215   7220     1
   7215   7226     1
   7215   7228     1
   7215   7229     1
   7216   7217     1
   7216   7235     1
   7216   7234     1
   7216   7230     1
   7216   7228     1
   7216   7229     1
   7216   7219     1
   7217   7222     1
   7217   7227     1
   7217   7236     1
   7218   7233     1
   7218   7226     1
   7218   7234     1
   7219   7227     1
   7219   7221     1
   7220   7223     1
   7220   7232     1
   7220   7222     1
   7220   7227     1
   7220   7224     1
   7220   7221     1
   7221   7237     1
   7221   7226     1
   7221   7235     1
   7221   7234     1
   7222   7233     1
   7222   7237     1
   7224   7234     1
   7225   7234     1
   7228   7231     1
   7228   7232     1
   7229   7231     1
   7229   7232     1
   7232   7233     1
   7232   7234     1
   7234   7236     1
   7238   7245     1
   7238   7260     1
   7238   7255     1
   7238   7246     1
   7239   7244     1
   7239   7250     1
   7239   7252     1
   7239   7253     1
   7240   7241     1
   7240   7259     1
   7240   7258     1
   7240   7254     1
   7240   7252     1
   7240   7253     1
   7240   7243     1
   7241   7246     1
   7241   7251     1
   7241   7260     1
   7242   7257     1
   7242   7250     1
   7242   7258     1
   7243   7251     1
   7243   7245     1
   7244   7247     1
   7244   7256     1
   7244   7246     1
   7244   7251     1
   7244   7248     1
   7244   7245     1
   7245   7261     1
   7245   7250     1
   7245   7259     1
   7245   7258     1
   7246   7257     1
   7246   7261     1
   7248   7258     1
   7249   7258     1
   7252   7255     1
   7252   7256     1
   7253   7255     1
   7253   7256     1
   7256   7257     1
   7256   7258     1
   7258   7260     1
   7263   7269     1
   7263   7270     1
   7264   7267     1
   7264   7266     1
   7264   7268     1
   7265   7336     1
   7266   7271     1
   7266   7269     1
   7266   7270     1
   7267   7281     1
   7267   7282     1
   7267   7274     1
   7267   7276     1
   7268   7271     1
   7268   7269     1
   7268   7270     1
   7269   7272     1
   7269   7273     1
   7269   7336     1
   7270   7272     1
   7270   7273     1
   7270   7336     1
   7271   7284     1
   7271   7285     1
   7271   7277     1
   7271   7278     1
   7272   7274     1
   7272   7276     1
   7273   7281     1
   7273   7282     1
   7274   7336     1
   7274   7279     1
   7274   7277     1
   7274   7278     1
   7275   7336     1
   7275   7301     1
   7276   7336     1
   7276   7279     1
   7276   7277     1
   7276   7278     1
   7277   7280     1
   7277   7311     1
   7278   7280     1
   7278   7311     1
   7279   7294     1
   7280   7301     1
   7281   7336     1
   7281   7286     1
   7281   7284     1
   7281   7285     1
   7282   7336     1
   7282   7286     1
   7282   7284     1
   7282   7285     1
   7283   7336     1
   7283   7325     1
   7284   7287     1
   7284   7335     1
   7285   7287     1
   7285   7335     1
   7286   7318     1
   7287   7325     1
   7288   7295     1
   7288   7310     1
   7288   7305     1
   7288   7296     1
   7289   7302     1
   7289   7303     1
   7289   7294     1
   7289   7300     1
   7290   7291     1
   7290   7309     1
   7290   7308     1
   7290   7304     1
   7290   7302     1
   7290   7303     1
   7290   7293     1
   7291   7310     1
   7291   7296     1
   7291   7301     1
   7292   7308     1
   7292   7300     1
   7292   7307     1
   7293   7295     1
   7293   7301     1
   7294   7298     1
   7294   7295     1
   7294   7297     1
   7294   7306     1
   7294   7296     1
   7294   7301     1
   7295   7309     1
   7295   7308     1
   7295   7311     1
   7295   7300     1
   7296   7311     1
   7296   7307     1
   7298   7308     1
   7299   7308     1
   7302   7306     1
   7302   7305     1
   7303   7306     1
   7303   7305     1
   7306   7308     1
   7306   7307     1
   7308   7310     1
   7312   7319     1
   7312   7334     1
   7312   7329     1
   7312   7320     1
   7313   7326     1
   7313   7327     1
   7313   7318     1
   7313   7324     1
   7314   7315     1
   7314   7333     1
   7314   7332     1
   7314   7328     1
   7314   7326     1
   7314   7327     1
   7314   7317     1
   7315   7334     1
   7315   7320     1
   7315   7325     1
   7316   7332     1
   7316   7324     1
   7316   7331     1
   7317   7319     1
   7317   7325     1
   7318   7322     1
   7318   7319     1
   7318   7321     1
   7318   7330     1
   7318   7320     1
   7318   7325     1
   7319   7333     1
   7319   7332     1
   7319   7335     1
   7319   7324     1
   7320   7335     1
   7320   7331     1
   7322   7332     1
   7323   7332     1
   7326   7330     1
   7326   7329     1
   7327   7330     1
   7327   7329     1
   7330   7332     1
   7330   7331     1
   7332   7334     1
   7337   7343     1
   7337   7344     1
   7338   7341     1
   7338   7340     1
   7338   7342     1
   7339   7410     1
   7340   7345     1
   7340   7343     1
   7340   7344     1
   7341   7355     1
   7341   7356     1
   7341   7348     1
   7341   7350     1
   7342   7345     1
   7342   7343     1
   7342   7344     1
   7343   7346     1
   7343   7347     1
   7343   7410     1
   7344   7346     1
   7344   7347     1
   7344   7410     1
   7345   7358     1
   7345   7359     1
   7345   7351     1
   7345   7352     1
   7346   7348     1
   7346   7350     1
   7347   7355     1
   7347   7356     1
   7348   7353     1
   7348   7351     1
   7348   7352     1
   7348   7410     1
   7349   7375     1
   7349   7410     1
   7350   7353     1
   7350   7351     1
   7350   7352     1
   7350   7410     1
   7351   7354     1
   7351   7385     1
   7352   7354     1
   7352   7385     1
   7353   7368     1
   7354   7375     1
   7355   7360     1
   7355   7358     1
   7355   7359     1
   7355   7410     1
   7356   7360     1
   7356   7358     1
   7356   7359     1
   7356   7410     1
   7357   7399     1
   7357   7410     1
   7358   7361     1
   7358   7409     1
   7359   7361     1
   7359   7409     1
   7360   7392     1
   7361   7399     1
   7362   7369     1
   7362   7384     1
   7362   7379     1
   7362   7370     1
   7363   7368     1
   7363   7374     1
   7363   7376     1
   7363   7377     1
   7364   7365     1
   7364   7383     1
   7364   7382     1
   7364   7378     1
   7364   7376     1
   7364   7377     1
   7364   7367     1
   7365   7370     1
   7365   7375     1
   7365   7384     1
   7366   7381     1
   7366   7374     1
   7366   7382     1
   7367   7375     1
   7367   7369     1
   7368   7371     1
   7368   7380     1
   7368   7370     1
   7368   7375     1
   7368   7372     1
   7368   7369     1
   7369   7385     1
   7369   7374     1
   7369   7383     1
   7369   7382     1
   7370   7381     1
   7370   7385     1
   7372   7382     1
   7373   7382     1
   7376   7379     1
   7376   7380     1
   7377   7379     1
   7377   7380     1
   7380   7381     1
   7380   7382     1
   7382   7384     1
   7386   7393     1
   7386   7408     1
   7386   7403     1
   7386   7394     1
   7387   7392     1
   7387   7398     1
   7387   7400     1
   7387   7401     1
   7388   7389     1
   7388   7407     1
   7388   7406     1
   7388   7402     1
   7388   7400     1
   7388   7401     1
   7388   7391     1
   7389   7394     1
   7389   7399     1
   7389   7408     1
   7390   7405     1
   7390   7398     1
   7390   7406     1
   7391   7399     1
   7391   7393     1
   7392   7395     1
   7392   7404     1
   7392   7394     1
   7392   7399     1
   7392   7396     1
   7392   7393     1
   7393   7409     1
   7393   7398     1
   7393   7407     1
   7393   7406     1
   7394   7405     1
   7394   7409     1
   7396   7406     1
   7397   7406     1
   7400   7403     1
   7400   7404     1
   7401   7403     1
   7401   7404     1
   7404   7405     1
   7404   7406     1
   7406   7408     1
   7411   7417     1
   7411   7418     1
   7412   7415     1
   7412   7414     1
   7412   7416     1
   7413   7484     1
   7414   7419     1
   7414   7417     1
   7414   7418     1
   7415   7429     1
   7415   7430     1
   7415   7422     1
   7415   7424     1
   7416   7419     1
   7416   7417     1
   7416   7418     1
   7417   7420     1
   7417   7421     1
   7417   7484     1
   7418   7420     1
   7418   7421     1
   7418   7484     1
   7419   7432     1
   7419   7433     1
   7419   7425     1
   7419   7426     1
   7420   7422     1
   7420   7424     1
   7421   7429     1
   7421   7430     1
   7422   7484     1
   7422   7427     1
   7422   7425     1
   7422   7426     1
   7423   7484     1
   7423   7449     1
   7424   7484     1
   7424   7427     1
   7424   7425     1
   7424   7426     1
   7425   7428     1
   7425   7459     1
   7426   7428     1
   7426   7459     1
   7427   7442     1
   7428   7449     1
   7429   7484     1
   7429   7434     1
   7429   7432     1
   7429   7433     1
   7430   7484     1
   7430   7434     1
   7430   7432     1
   7430   7433     1
   7431   7484     1
   7431   7473     1
   7432   7435     1
   7432   7483     1
   7433   7435     1
   7433   7483     1
   7434   7466     1
   7435   7473     1
   7436   7443     1
   7436   7458     1
   7436   7453     1
   7436   7444     1
   7437   7450     1
   7437   7451     1
   7437   7442     1
   7437   7448     1
   7438   7439     1
   7438   7457     1
   7438   7456     1
   7438   7452     1
   7438   7450     1
   7438   7451     1
   7438   7441     1
   7439   7458     1
   7439   7444     1
   7439   7449     1
   7440   7456     1
   7440   7448     1
   7440   7455     1
   7441   7443     1
   7441   7449     1
   7442   7446     1
   7442   7443     1
   7442   7445     1
   7442   7454     1
   7442   7444     1
   7442   7449     1
   7443   7457     1
   7443   7456     1
   7443   7459     1
   7443   7448     1
   7444   7459     1
   7444   7455     1
   7446   7456     1
   7447   7456     1
   7450   7454     1
   7450   7453     1
   7451   7454     1
   7451   7453     1
   7454   7456     1
   7454   7455     1
   7456   7458     1
   7460   7467     1
   7460   7482     1
   7460   7477     1
   7460   7468     1
   7461   7474     1
   7461   7475     1
   7461   7466     1
   7461   7472     1
   7462   7463     1
   7462   7481     1
   7462   7480     1
   7462   7476     1
   7462   7474     1
   7462   7475     1
   7462   7465     1
   7463   7482     1
   7463   7468     1
   7463   7473     1
   7464   7480     1
   7464   7472     1
   7464   7479     1
   7465   7467     1
   7465   7473     1
   7466   7470     1
   7466   7467     1
   7466   7469     1
   7466   7478     1
   7466   7468     1
   7466   7473     1
   7467   7481     1
   7467   7480     1
   7467   7483     1
   7467   7472     1
   7468   7483     1
   7468   7479     1
   7470   7480     1
   7471   7480     1
   7474   7478     1
   7474   7477     1
   7475   7478     1
   7475   7477     1
   7478   7480     1
   7478   7479     1
   7480   7482     1
   7485   7491     1
   7485   7492     1
   7486   7489     1
   7486   7488     1
   7486   7490     1
   7487   7558     1
   7488   7493     1
   7488   7491     1
   7488   7492     1
   7489   7503     1
   7489   7504     1
   7489   7496     1
   7489   7498     1
   7490   7493     1
   7490   7491     1
   7490   7492     1
   7491   7494     1
   7491   7495     1
   7491   7558     1
   7492   7494     1
   7492   7495     1
   7492   7558     1
   7493   7506     1
   7493   7507     1
   7493   7499     1
   7493   7500     1
   7494   7496     1
   7494   7498     1
   7495   7503     1
   7495   7504     1
   7496   7501     1
   7496   7499     1
   7496   7500     1
   7496   7558     1
   7497   7523     1
   7497   7558     1
   7498   7501     1
   7498   7499     1
   7498   7500     1
   7498   7558     1
   7499   7502     1
   7499   7533     1
   7500   7502     1
   7500   7533     1
   7501   7516     1
   7502   7523     1
   7503   7508     1
   7503   7506     1
   7503   7507     1
   7503   7558     1
   7504   7508     1
   7504   7506     1
   7504   7507     1
   7504   7558     1
   7505   7547     1
   7505   7558     1
   7506   7509     1
   7506   7557     1
   7507   7509     1
   7507   7557     1
   7508   7540     1
   7509   7547     1
   7510   7517     1
   7510   7532     1
   7510   7527     1
   7510   7518     1
   7511   7516     1
   7511   7522     1
   7511   7524     1
   7511   7525     1
   7512   7513     1
   7512   7531     1
   7512   7530     1
   7512   7526     1
   7512   7524     1
   7512   7525     1
   7512   7515     1
   7513   7518     1
   7513   7523     1
   7513   7532     1
   7514   7529     1
   7514   7522     1
   7514   7530     1
   7515   7523     1
   7515   7517     1
   7516   7519     1
   7516   7528     1
   7516   7518     1
   7516   7523     1
   7516   7520     1
   7516   7517     1
   7517   7533     1
   7517   7522     1
   7517   7531     1
   7517   7530     1
   7518   7529     1
   7518   7533     1
   7520   7530     1
   7521   7530     1
   7524   7527     1
   7524   7528     1
   7525   7527     1
   7525   7528     1
   7528   7529     1
   7528   7530     1
   7530   7532     1
   7534   7541     1
   7534   7556     1
   7534   7551     1
   7534   7542     1
   7535   7540     1
   7535   7546     1
   7535   7548     1
   7535   7549     1
   7536   7537     1
   7536   7555     1
   7536   7554     1
   7536   7550     1
   7536   7548     1
   7536   7549     1
   7536   7539     1
   7537   7542     1
   7537   7547     1
   7537   7556     1
   7538   7553     1
   7538   7546     1
   7538   7554     1
   7539   7547     1
   7539   7541     1
   7540   7543     1
   7540   7552     1
   7540   7542     1
   7540   7547     1
   7540   7544     1
   7540   7541     1
   7541   7557     1
   7541   7546     1
   7541   7555     1
   7541   7554     1
   7542   7553     1
   7542   7557     1
   7544   7554     1
   7545   7554     1
   7548   7551     1
   7548   7552     1
   7549   7551     1
   7549   7552     1
   7552   7553     1
   7552   7554     1
   7554   7556     1
   7559   7565     1
   7559   7566     1
   7560   7563     1
   7560   7562     1
   7560   7564     1
   7561   7632     1
   7562   7567     1
   7562   7565     1
   7562   7566     1
   7563   7577     1
   7563   7578     1
   7563   7570     1
   7563   7572     1
   7564   7567     1
   7564   7565     1
   7564   7566     1
   7565   7568     1
   7565   7569     1
   7565   7632     1
   7566   7568     1
   7566   7569     1
   7566   7632     1
   7567   7580     1
   7567   7581     1
   7567   7573     1
   7567   7574     1
   7568   7570     1
   7568   7572     1
   7569   7577     1
   7569   7578     1
   7570   7632     1
   7570   7575     1
   7570   7573     1
   7570   7574     1
   7571   7632     1
   7571   7597     1
   7572   7632     1
   7572   7575     1
   7572   7573     1
   7572   7574     1
   7573   7576     1
   7573   7607     1
   7574   7576     1
   7574   7607     1
   7575   7590     1
   7576   7597     1
   7577   7632     1
   7577   7582     1
   7577   7580     1
   7577   7581     1
   7578   7632     1
   7578   7582     1
   7578   7580     1
   7578   7581     1
   7579   7632     1
   7579   7621     1
   7580   7583     1
   7580   7631     1
   7581   7583     1
   7581   7631     1
   7582   7614     1
   7583   7621     1
   7584   7591     1
   7584   7606     1
   7584   7601     1
   7584   7592     1
   7585   7598     1
   7585   7599     1
   7585   7590     1
   7585   7596     1
   7586   7587     1
   7586   7605     1
   7586   7604     1
   7586   7600     1
   7586   7598     1
   7586   7599     1
   7586   7589     1
   7587   7606     1
   7587   7592     1
   7587   7597     1
   7588   7604     1
   7588   7596     1
   7588   7603     1
   7589   7591     1
   7589   7597     1
   7590   7594     1
   7590   7591     1
   7590   7593     1
   7590   7602     1
   7590   7592     1
   7590   7597     1
   7591   7605     1
   7591   7604     1
   7591   7607     1
   7591   7596     1
   7592   7607     1
   7592   7603     1
   7594   7604     1
   7595   7604     1
   7598   7602     1
   7598   7601     1
   7599   7602     1
   7599   7601     1
   7602   7604     1
   7602   7603     1
   7604   7606     1
   7608   7615     1
   7608   7630     1
   7608   7625     1
   7608   7616     1
   7609   7622     1
   7609   7623     1
   7609   7614     1
   7609   7620     1
   7610   7611     1
   7610   7629     1
   7610   7628     1
   7610   7624     1
   7610   7622     1
   7610   7623     1
   7610   7613     1
   7611   7630     1
   7611   7616     1
   7611   7621     1
   7612   7628     1
   7612   7620     1
   7612   7627     1
   7613   7615     1
   7613   7621     1
   7614   7618     1
   7614   7615     1
   7614   7617     1
   7614   7626     1
   7614   7616     1
   7614   7621     1
   7615   7629     1
   7615   7628     1
   7615   7631     1
   7615   7620     1
   7616   7631     1
   7616   7627     1
   7618   7628     1
   7619   7628     1
   7622   7626     1
   7622   7625     1
   7623   7626     1
   7623   7625     1
   7626   7628     1
   7626   7627     1
   7628   7630     1
   7633   7639     1
   7633   7640     1
   7634   7637     1
   7634   7636     1
   7634   7638     1
   7635   7706     1
   7636   7641     1
   7636   7639     1
   7636   7640     1
   7637   7651     1
   7637   7652     1
   7637   7644     1
   7637   7646     1
   7638   7641     1
   7638   7639     1
   7638   7640     1
   7639   7642     1
   7639   7643     1
   7639   7706     1
   7640   7642     1
   7640   7643     1
   7640   7706     1
   7641   7654     1
   7641   7655     1
   7641   7647     1
   7641   7648     1
   7642   7644     1
   7642   7646     1
   7643   7651     1
   7643   7652     1
   7644   7649     1
   7644   7647     1
   7644   7648     1
   7644   7706     1
   7645   7671     1
   7645   7706     1
   7646   7649     1
   7646   7647     1
   7646   7648     1
   7646   7706     1
   7647   7650     1
   7647   7681     1
   7648   7650     1
   7648   7681     1
   7649   7664     1
   7650   7671     1
   7651   7656     1
   7651   7654     1
   7651   7655     1
   7651   7706     1
   7652   7656     1
   7652   7654     1
   7652   7655     1
   7652   7706     1
   7653   7695     1
   7653   7706     1
   7654   7657     1
   7654   7705     1
   7655   7657     1
   7655   7705     1
   7656   7688     1
   7657   7695     1
   7658   7665     1
   7658   7680     1
   7658   7675     1
   7658   7666     1
   7659   7664     1
   7659   7670     1
   7659   7672     1
   7659   7673     1
   7660   7661     1
   7660   7679     1
   7660   7678     1
   7660   7674     1
   7660   7672     1
   7660   7673     1
   7660   7663     1
   7661   7666     1
   7661   7671     1
   7661   7680     1
   7662   7677     1
   7662   7670     1
   7662   7678     1
   7663   7671     1
   7663   7665     1
   7664   7667     1
   7664   7676     1
   7664   7666     1
   7664   7671     1
   7664   7668     1
   7664   7665     1
   7665   7681     1
   7665   7670     1
   7665   7679     1
   7665   7678     1
   7666   7677     1
   7666   7681     1
   7668   7678     1
   7669   7678     1
   7672   7675     1
   7672   7676     1
   7673   7675     1
   7673   7676     1
   7676   7677     1
   7676   7678     1
   7678   7680     1
   7682   7689     1
   7682   7704     1
   7682   7699     1
   7682   7690     1
   7683   7688     1
   7683   7694     1
   7683   7696     1
   7683   7697     1
   7684   7685     1
   7684   7703     1
   7684   7702     1
   7684   7698     1
   7684   7696     1
   7684   7697     1
   7684   7687     1
   7685   7690     1
   7685   7695     1
   7685   7704     1
   7686   7701     1
   7686   7694     1
   7686   7702     1
   7687   7695     1
   7687   7689     1
   7688   7691     1
   7688   7700     1
   7688   7690     1
   7688   7695     1
   7688   7692     1
   7688   7689     1
   7689   7705     1
   7689   7694     1
   7689   7703     1
   7689   7702     1
   7690   7701     1
   7690   7705     1
   7692   7702     1
   7693   7702     1
   7696   7699     1
   7696   7700     1
   7697   7699     1
   7697   7700     1
   7700   7701     1
   7700   7702     1
   7702   7704     1
   7707   7713     1
   7707   7714     1
   7708   7711     1
   7708   7710     1
   7708   7712     1
   7709   7780     1
   7710   7715     1
   7710   7713     1
   7710   7714     1
   7711   7725     1
   7711   7726     1
   7711   7718     1
   7711   7720     1
   7712   7715     1
   7712   7713     1
   7712   7714     1
   7713   7716     1
   7713   7717     1
   7713   7780     1
   7714   7716     1
   7714   7717     1
   7714   7780     1
   7715   7728     1
   7715   7729     1
   7715   7721     1
   7715   7722     1
   7716   7718     1
   7716   7720     1
   7717   7725     1
   7717   7726     1
   7718   7780     1
   7718   7723     1
   7718   7721     1
   7718   7722     1
   7719   7780     1
   7719   7745     1
   7720   7780     1
   7720   7723     1
   7720   7721     1
   7720   7722     1
   7721   7724     1
   7721   7755     1
   7722   7724     1
   7722   7755     1
   7723   7738     1
   7724   7745     1
   7725   7780     1
   7725   7730     1
   7725   7728     1
   7725   7729     1
   7726   7780     1
   7726   7730     1
   7726   7728     1
   7726   7729     1
   7727   7780     1
   7727   7769     1
   7728   7731     1
   7728   7779     1
   7729   7731     1
   7729   7779     1
   7730   7762     1
   7731   7769     1
   7732   7739     1
   7732   7754     1
   7732   7749     1
   7732   7740     1
   7733   7746     1
   7733   7747     1
   7733   7738     1
   7733   7744     1
   7734   7735     1
   7734   7753     1
   7734   7752     1
   7734   7748     1
   7734   7746     1
   7734   7747     1
   7734   7737     1
   7735   7754     1
   7735   7740     1
   7735   7745     1
   7736   7752     1
   7736   7744     1
   7736   7751     1
   7737   7739     1
   7737   7745     1
   7738   7742     1
   7738   7739     1
   7738   7741     1
   7738   7750     1
   7738   7740     1
   7738   7745     1
   7739   7753     1
   7739   7752     1
   7739   7755     1
   7739   7744     1
   7740   7755     1
   7740   7751     1
   7742   7752     1
   7743   7752     1
   7746   7750     1
   7746   7749     1
   7747   7750     1
   7747   7749     1
   7750   7752     1
   7750   7751     1
   7752   7754     1
   7756   7763     1
   7756   7778     1
   7756   7773     1
   7756   7764     1
   7757   7770     1
   7757   7771     1
   7757   7762     1
   7757   7768     1
   7758   7759     1
   7758   7777     1
   7758   7776     1
   7758   7772     1
   7758   7770     1
   7758   7771     1
   7758   7761     1
   7759   7778     1
   7759   7764     1
   7759   7769     1
   7760   7776     1
   7760   7768     1
   7760   7775     1
   7761   7763     1
   7761   7769     1
   7762   7766     1
   7762   7763     1
   7762   7765     1
   7762   7774     1
   7762   7764     1
   7762   7769     1
   7763   7777     1
   7763   7776     1
   7763   7779     1
   7763   7768     1
   7764   7779     1
   7764   7775     1
   7766   7776     1
   7767   7776     1
   7770   7774     1
   7770   7773     1
   7771   7774     1
   7771   7773     1
   7774   7776     1
   7774   7775     1
   7776   7778     1
   7781   7787     1
   7781   7788     1
   7782   7785     1
   7782   7784     1
   7782   7786     1
   7783   7854     1
   7784   7789     1
   7784   7787     1
   7784   7788     1
   7785   7799     1
   7785   7800     1
   7785   7792     1
   7785   7794     1
   7786   7789     1
   7786   7787     1
   7786   7788     1
   7787   7790     1
   7787   7791     1
   7787   7854     1
   7788   7790     1
   7788   7791     1
   7788   7854     1
   7789   7802     1
   7789   7803     1
   7789   7795     1
   7789   7796     1
   7790   7792     1
   7790   7794     1
   7791   7799     1
   7791   7800     1
   7792   7797     1
   7792   7795     1
   7792   7796     1
   7792   7854     1
   7793   7819     1
   7793   7854     1
   7794   7797     1
   7794   7795     1
   7794   7796     1
   7794   7854     1
   7795   7798     1
   7795   7829     1
   7796   7798     1
   7796   7829     1
   7797   7812     1
   7798   7819     1
   7799   7804     1
   7799   7802     1
   7799   7803     1
   7799   7854     1
   7800   7804     1
   7800   7802     1
   7800   7803     1
   7800   7854     1
   7801   7843     1
   7801   7854     1
   7802   7805     1
   7802   7853     1
   7803   7805     1
   7803   7853     1
   7804   7836     1
   7805   7843     1
   7806   7813     1
   7806   7828     1
   7806   7823     1
   7806   7814     1
   7807   7812     1
   7807   7818     1
   7807   7820     1
   7807   7821     1
   7808   7809     1
   7808   7827     1
   7808   7826     1
   7808   7822     1
   7808   7820     1
   7808   7821     1
   7808   7811     1
   7809   7814     1
   7809   7819     1
   7809   7828     1
   7810   7825     1
   7810   7818     1
   7810   7826     1
   7811   7819     1
   7811   7813     1
   7812   7815     1
   7812   7824     1
   7812   7814     1
   7812   7819     1
   7812   7816     1
   7812   7813     1
   7813   7829     1
   7813   7818     1
   7813   7827     1
   7813   7826     1
   7814   7825     1
   7814   7829     1
   7816   7826     1
   7817   7826     1
   7820   7823     1
   7820   7824     1
   7821   7823     1
   7821   7824     1
   7824   7825     1
   7824   7826     1
   7826   7828     1
   7830   7837     1
   7830   7852     1
   7830   7847     1
   7830   7838     1
   7831   7836     1
   7831   7842     1
   7831   7844     1
   7831   7845     1
   7832   7833     1
   7832   7851     1
   7832   7850     1
   7832   7846     1
   7832   7844     1
   7832   7845     1
   7832   7835     1
   7833   7838     1
   7833   7843     1
   7833   7852     1
   7834   7849     1
   7834   7842     1
   7834   7850     1
   7835   7843     1
   7835   7837     1
   7836   7839     1
   7836   7848     1
   7836   7838     1
   7836   7843     1
   7836   7840     1
   7836   7837     1
   7837   7853     1
   7837   7842     1
   7837   7851     1
   7837   7850     1
   7838   7849     1
   7838   7853     1
   7840   7850     1
   7841   7850     1
   7844   7847     1
   7844   7848     1
   7845   7847     1
   7845   7848     1
   7848   7849     1
   7848   7850     1
   7850   7852     1
   7855   7861     1
   7855   7862     1
   7856   7859     1
   7856   7858     1
   7856   7860     1
   7857   7928     1
   7858   7863     1
   7858   7861     1
   7858   7862     1
   7859   7873     1
   7859   7874     1
   7859   7866     1
   7859   7868     1
   7860   7863     1
   7860   7861     1
   7860   7862     1
   7861   7864     1
   7861   7865     1
   7861   7928     1
   7862   7864     1
   7862   7865     1
   7862   7928     1
   7863   7876     1
   7863   7877     1
   7863   7869     1
   7863   7870     1
   7864   7866     1
   7864   7868     1
   7865   7873     1
   7865   7874     1
   7866   7928     1
   7866   7871     1
   7866   7869     1
   7866   7870     1
   7867   7928     1
   7867   7893     1
   7868   7928     1
   7868   7871     1
   7868   7869     1
   7868   7870     1
   7869   7872     1
   7869   7903     1
   7870   7872     1
   7870   7903     1
   7871   7886     1
   7872   7893     1
   7873   7928     1
   7873   7878     1
   7873   7876     1
   7873   7877     1
   7874   7928     1
   7874   7878     1
   7874   7876     1
   7874   7877     1
   7875   7928     1
   7875   7917     1
   7876   7879     1
   7876   7927     1
   7877   7879     1
   7877   7927     1
   7878   7910     1
   7879   7917     1
   7880   7887     1
   7880   7902     1
   7880   7897     1
   7880   7888     1
   7881   7894     1
   7881   7895     1
   7881   7886     1
   7881   7892     1
   7882   7883     1
   7882   7901     1
   7882   7900     1
   7882   7896     1
   7882   7894     1
   7882   7895     1
   7882   7885     1
   7883   7902     1
   7883   7888     1
   7883   7893     1
   7884   7900     1
   7884   7892     1
   7884   7899     1
   7885   7887     1
   7885   7893     1
   7886   7890     1
   7886   7887     1
   7886   7889     1
   7886   7898     1
   7886   7888     1
   7886   7893     1
   7887   7901     1
   7887   7900     1
   7887   7903     1
   7887   7892     1
   7888   7903     1
   7888   7899     1
   7890   7900     1
   7891   7900     1
   7894   7898     1
   7894   7897     1
   7895   7898     1
   7895   7897     1
   7898   7900     1
   7898   7899     1
   7900   7902     1
   7904   7911     1
   7904   7926     1
   7904   7921     1
   7904   7912     1
   7905   7918     1
   7905   7919     1
   7905   7910     1
   7905   7916     1
   7906   7907     1
   7906   7925     1
   7906   7924     1
   7906   7920     1
   7906   7918     1
   7906   7919     1
   7906   7909     1
   7907   7926     1
   7907   7912     1
   7907   7917     1
   7908   7924     1
   7908   7916     1
   7908   7923     1
   7909   7911     1
   7909   7917     1
   7910   7914     1
   7910   7911     1
   7910   7913     1
   7910   7922     1
   7910   7912     1
   7910   7917     1
   7911   7925     1
   7911   7924     1
   7911   7927     1
   7911   7916     1
   7912   7927     1
   7912   7923     1
   7914   7924     1
   7915   7924     1
   7918   7922     1
   7918   7921     1
   7919   7922     1
   7919   7921     1
   7922   7924     1
   7922   7923     1
   7924   7926     1
   7929   7935     1
   7929   7936     1
   7930   7933     1
   7930   7932     1
   7930   7934     1
   7931   8002     1
   7932   7937     1
   7932   7935     1
   7932   7936     1
   7933   7947     1
   7933   7948     1
   7933   7940     1
   7933   7942     1
   7934   7937     1
   7934   7935     1
   7934   7936     1
   7935   7938     1
   7935   7939     1
   7935   8002     1
   7936   7938     1
   7936   7939     1
   7936   8002     1
   7937   7950     1
   7937   7951     1
   7937   7943     1
   7937   7944     1
   7938   7940     1
   7938   7942     1
   7939   7947     1
   7939   7948     1
   7940   7945     1
   7940   7943     1
   7940   7944     1
   7940   8002     1
   7941   7967     1
   7941   8002     1
   7942   7945     1
   7942   7943     1
   7942   7944     1
   7942   8002     1
   7943   7946     1
   7943   7977     1
   7944   7946     1
   7944   7977     1
   7945   7960     1
   7946   7967     1
   7947   7952     1
   7947   7950     1
   7947   7951     1
   7947   8002     1
   7948   7952     1
   7948   7950     1
   7948   7951     1
   7948   8002     1
   7949   7991     1
   7949   8002     1
   7950   7953     1
   7950   8001     1
   7951   7953     1
   7951   8001     1
   7952   7984     1
   7953   7991     1
   7954   7961     1
   7954   7976     1
   7954   7971     1
   7954   7962     1
   7955   7960     1
   7955   7966     1
   7955   7968     1
   7955   7969     1
   7956   7957     1
   7956   7975     1
   7956   7974     1
   7956   7970     1
   7956   7968     1
   7956   7969     1
   7956   7959     1
   7957   7962     1
   7957   7967     1
   7957   7976     1
   7958   7973     1
   7958   7966     1
   7958   7974     1
   7959   7967     1
   7959   7961     1
   7960   7963     1
   7960   7972     1
   7960   7962     1
   7960   7967     1
   7960   7964     1
   7960   7961     1
   7961   7977     1
   7961   7966     1
   7961   7975     1
   7961   7974     1
   7962   7973     1
   7962   7977     1
   7964   7974     1
   7965   7974     1
   7968   7971     1
   7968   7972     1
   7969   7971     1
   7969   7972     1
   7972   7973     1
   7972   7974     1
   7974   7976     1
   7978   7985     1
   7978   8000     1
   7978   7995     1
   7978   7986     1
   7979   7984     1
   7979   7990     1
   7979   7992     1
   7979   7993     1
   7980   7981     1
   7980   7999     1
   7980   7998     1
   7980   7994     1
   7980   7992     1
   7980   7993     1
   7980   7983     1
   7981   7986     1
   7981   7991     1
   7981   8000     1
   7982   7997     1
   7982   7990     1
   7982   7998     1
   7983   7991     1
   7983   7985     1
   7984   7987     1
   7984   7996     1
   7984   7986     1
   7984   7991     1
   7984   7988     1
   7984   7985     1
   7985   8001     1
   7985   7990     1
   7985   7999     1
   7985   7998     1
   7986   7997     1
   7986   8001     1
   7988   7998     1
   7989   7998     1
   7992   7995     1
   7992   7996     1
   7993   7995     1
   7993   7996     1
   7996   7997     1
   7996   7998     1
   7998   8000     1
   8003   8009     1
   8003   8010     1
   8004   8007     1
   8004   8006     1
   8004   8008     1
   8005   8076     1
   8006   8011     1
   8006   8009     1
   8006   8010     1
   8007   8021     1
   8007   8022     1
   8007   8014     1
   8007   8016     1
   8008   8011     1
   8008   8009     1
   8008   8010     1
   8009   8012     1
   8009   8013     1
   8009   8076     1
   8010   8012     1
   8010   8013     1
   8010   8076     1
   8011   8024     1
   8011   8025     1
   8011   8017     1
   8011   8018     1
   8012   8014     1
   8012   8016     1
   8013   8021     1
   8013   8022     1
   8014   8076     1
   8014   8019     1
   8014   8017     1
   8014   8018     1
   8015   8076     1
   8015   8041     1
   8016   8076     1
   8016   8019     1
   8016   8017     1
   8016   8018     1
   8017   8020     1
   8017   8051     1
   8018   8020     1
   8018   8051     1
   8019   8034     1
   8020   8041     1
   8021   8076     1
   8021   8026     1
   8021   8024     1
   8021   8025     1
   8022   8076     1
   8022   8026     1
   8022   8024     1
   8022   8025     1
   8023   8076     1
   8023   8065     1
   8024   8027     1
   8024   8075     1
   8025   8027     1
   8025   8075     1
   8026   8058     1
   8027   8065     1
   8028   8035     1
   8028   8050     1
   8028   8045     1
   8028   8036     1
   8029   8042     1
   8029   8043     1
   8029   8034     1
   8029   8040     1
   8030   8031     1
   8030   8049     1
   8030   8048     1
   8030   8044     1
   8030   8042     1
   8030   8043     1
   8030   8033     1
   8031   8050     1
   8031   8036     1
   8031   8041     1
   8032   8048     1
   8032   8040     1
   8032   8047     1
   8033   8035     1
   8033   8041     1
   8034   8038     1
   8034   8035     1
   8034   8037     1
   8034   8046     1
   8034   8036     1
   8034   8041     1
   8035   8049     1
   8035   8048     1
   8035   8051     1
   8035   8040     1
   8036   8051     1
   8036   8047     1
   8038   8048     1
   8039   8048     1
   8042   8046     1
   8042   8045     1
   8043   8046     1
   8043   8045     1
   8046   8048     1
   8046   8047     1
   8048   8050     1
   8052   8059     1
   8052   8074     1
   8052   8069     1
   8052   8060     1
   8053   8066     1
   8053   8067     1
   8053   8058     1
   8053   8064     1
   8054   8055     1
   8054   8073     1
   8054   8072     1
   8054   8068     1
   8054   8066     1
   8054   8067     1
   8054   8057     1
   8055   8074     1
   8055   8060     1
   8055   8065     1
   8056   8072     1
   8056   8064     1
   8056   8071     1
   8057   8059     1
   8057   8065     1
   8058   8062     1
   8058   8059     1
   8058   8061     1
   8058   8070     1
   8058   8060     1
   8058   8065     1
   8059   8073     1
   8059   8072     1
   8059   8075     1
   8059   8064     1
   8060   8075     1
   8060   8071     1
   8062   8072     1
   8063   8072     1
   8066   8070     1
   8066   8069     1
   8067   8070     1
   8067   8069     1
   8070   8072     1
   8070   8071     1
   8072   8074     1
   8077   8083     1
   8077   8084     1
   8078   8081     1
   8078   8080     1
   8078   8082     1
   8079   8150     1
   8080   8085     1
   8080   8083     1
   8080   8084     1
   8081   8095     1
   8081   8096     1
   8081   8088     1
   8081   8090     1
   8082   8085     1
   8082   8083     1
   8082   8084     1
   8083   8086     1
   8083   8087     1
   8083   8150     1
   8084   8086     1
   8084   8087     1
   8084   8150     1
   8085   8098     1
   8085   8099     1
   8085   8091     1
   8085   8092     1
   8086   8088     1
   8086   8090     1
   8087   8095     1
   8087   8096     1
   8088   8093     1
   8088   8091     1
   8088   8092     1
   8088   8150     1
   8089   8115     1
   8089   8150     1
   8090   8093     1
   8090   8091     1
   8090   8092     1
   8090   8150     1
   8091   8094     1
   8091   8125     1
   8092   8094     1
   8092   8125     1
   8093   8108     1
   8094   8115     1
   8095   8100     1
   8095   8098     1
   8095   8099     1
   8095   8150     1
   8096   8100     1
   8096   8098     1
   8096   8099     1
   8096   8150     1
   8097   8139     1
   8097   8150     1
   8098   8101     1
   8098   8149     1
   8099   8101     1
   8099   8149     1
   8100   8132     1
   8101   8139     1
   8102   8109     1
   8102   8124     1
   8102   8119     1
   8102   8110     1
   8103   8108     1
   8103   8114     1
   8103   8116     1
   8103   8117     1
   8104   8105     1
   8104   8123     1
   8104   8122     1
   8104   8118     1
   8104   8116     1
   8104   8117     1
   8104   8107     1
   8105   8110     1
   8105   8115     1
   8105   8124     1
   8106   8121     1
   8106   8114     1
   8106   8122     1
   8107   8115     1
   8107   8109     1
   8108   8111     1
   8108   8120     1
   8108   8110     1
   8108   8115     1
   8108   8112     1
   8108   8109     1
   8109   8125     1
   8109   8114     1
   8109   8123     1
   8109   8122     1
   8110   8121     1
   8110   8125     1
   8112   8122     1
   8113   8122     1
   8116   8119     1
   8116   8120     1
   8117   8119     1
   8117   8120     1
   8120   8121     1
   8120   8122     1
   8122   8124     1
   8126   8133     1
   8126   8148     1
   8126   8143     1
   8126   8134     1
   8127   8132     1
   8127   8138     1
   8127   8140     1
   8127   8141     1
   8128   8129     1
   8128   8147     1
   8128   8146     1
   8128   8142     1
   8128   8140     1
   8128   8141     1
   8128   8131     1
   8129   8134     1
   8129   8139     1
   8129   8148     1
   8130   8145     1
   8130   8138     1
   8130   8146     1
   8131   8139     1
   8131   8133     1
   8132   8135     1
   8132   8144     1
   8132   8134     1
   8132   8139     1
   8132   8136     1
   8132   8133     1
   8133   8149     1
   8133   8138     1
   8133   8147     1
   8133   8146     1
   8134   8145     1
   8134   8149     1
   8136   8146     1
   8137   8146     1
   8140   8143     1
   8140   8144     1
   8141   8143     1
   8141   8144     1
   8144   8145     1
   8144   8146     1
   8146   8148     1
   8151   8157     1
   8151   8158     1
   8152   8155     1
   8152   8154     1
   8152   8156     1
   8153   8224     1
   8154   8159     1
   8154   8157     1
   8154   8158     1
   8155   8169     1
   8155   8170     1
   8155   8162     1
   8155   8164     1
   8156   8159     1
   8156   8157     1
   8156   8158     1
   8157   8160     1
   8157   8161     1
   8157   8224     1
   8158   8160     1
   8158   8161     1
   8158   8224     1
   8159   8172     1
   8159   8173     1
   8159   8165     1
   8159   8166     1
   8160   8162     1
   8160   8164     1
   8161   8169     1
   8161   8170     1
   8162   8224     1
   8162   8167     1
   8162   8165     1
   8162   8166     1
   8163   8224     1
   8163   8189     1
   8164   8224     1
   8164   8167     1
   8164   8165     1
   8164   8166     1
   8165   8168     1
   8165   8199     1
   8166   8168     1
   8166   8199     1
   8167   8182     1
   8168   8189     1
   8169   8224     1
   8169   8174     1
   8169   8172     1
   8169   8173     1
   8170   8224     1
   8170   8174     1
   8170   8172     1
   8170   8173     1
   8171   8224     1
   8171   8213     1
   8172   8175     1
   8172   8223     1
   8173   8175     1
   8173   8223     1
   8174   8206     1
   8175   8213     1
   8176   8183     1
   8176   8198     1
   8176   8193     1
   8176   8184     1
   8177   8190     1
   8177   8191     1
   8177   8182     1
   8177   8188     1
   8178   8179     1
   8178   8197     1
   8178   8196     1
   8178   8192     1
   8178   8190     1
   8178   8191     1
   8178   8181     1
   8179   8198     1
   8179   8184     1
   8179   8189     1
   8180   8196     1
   8180   8188     1
   8180   8195     1
   8181   8183     1
   8181   8189     1
   8182   8186     1
   8182   8183     1
   8182   8185     1
   8182   8194     1
   8182   8184     1
   8182   8189     1
   8183   8197     1
   8183   8196     1
   8183   8199     1
   8183   8188     1
   8184   8199     1
   8184   8195     1
   8186   8196     1
   8187   8196     1
   8190   8194     1
   8190   8193     1
   8191   8194     1
   8191   8193     1
   8194   8196     1
   8194   8195     1
   8196   8198     1
   8200   8207     1
   8200   8222     1
   8200   8217     1
   8200   8208     1
   8201   8214     1
   8201   8215     1
   8201   8206     1
   8201   8212     1
   8202   8203     1
   8202   8221     1
   8202   8220     1
   8202   8216     1
   8202   8214     1
   8202   8215     1
   8202   8205     1
   8203   8222     1
   8203   8208     1
   8203   8213     1
   8204   8220     1
   8204   8212     1
   8204   8219     1
   8205   8207     1
   8205   8213     1
   8206   8210     1
   8206   8207     1
   8206   8209     1
   8206   8218     1
   8206   8208     1
   8206   8213     1
   8207   8221     1
   8207   8220     1
   8207   8223     1
   8207   8212     1
   8208   8223     1
   8208   8219     1
   8210   8220     1
   8211   8220     1
   8214   8218     1
   8214   8217     1
   8215   8218     1
   8215   8217     1
   8218   8220     1
   8218   8219     1
   8220   8222     1
   8225   8231     1
   8225   8232     1
   8226   8229     1
   8226   8228     1
   8226   8230     1
   8227   8298     1
   8228   8233     1
   8228   8231     1
   8228   8232     1
   8229   8243     1
   8229   8244     1
   8229   8236     1
   8229   8238     1
   8230   8233     1
   8230   8231     1
   8230   8232     1
   8231   8234     1
   8231   8235     1
   8231   8298     1
   8232   8234     1
   8232   8235     1
   8232   8298     1
   8233   8246     1
   8233   8247     1
   8233   8239     1
   8233   8240     1
   8234   8236     1
   8234   8238     1
   8235   8243     1
   8235   8244     1
   8236   8241     1
   8236   8239     1
   8236   8240     1
   8236   8298     1
   8237   8263     1
   8237   8298     1
   8238   8241     1
   8238   8239     1
   8238   8240     1
   8238   8298     1
   8239   8242     1
   8239   8273     1
   8240   8242     1
   8240   8273     1
   8241   8256     1
   8242   8263     1
   8243   8248     1
   8243   8246     1
   8243   8247     1
   8243   8298     1
   8244   8248     1
   8244   8246     1
   8244   8247     1
   8244   8298     1
   8245   8287     1
   8245   8298     1
   8246   8249     1
   8246   8297     1
   8247   8249     1
   8247   8297     1
   8248   8280     1
   8249   8287     1
   8250   8257     1
   8250   8272     1
   8250   8267     1
   8250   8258     1
   8251   8256     1
   8251   8262     1
   8251   8264     1
   8251   8265     1
   8252   8253     1
   8252   8271     1
   8252   8270     1
   8252   8266     1
   8252   8264     1
   8252   8265     1
   8252   8255     1
   8253   8258     1
   8253   8263     1
   8253   8272     1
   8254   8269     1
   8254   8262     1
   8254   8270     1
   8255   8263     1
   8255   8257     1
   8256   8259     1
   8256   8268     1
   8256   8258     1
   8256   8263     1
   8256   8260     1
   8256   8257     1
   8257   8273     1
   8257   8262     1
   8257   8271     1
   8257   8270     1
   8258   8269     1
   8258   8273     1
   8260   8270     1
   8261   8270     1
   8264   8267     1
   8264   8268     1
   8265   8267     1
   8265   8268     1
   8268   8269     1
   8268   8270     1
   8270   8272     1
   8274   8281     1
   8274   8296     1
   8274   8291     1
   8274   8282     1
   8275   8280     1
   8275   8286     1
   8275   8288     1
   8275   8289     1
   8276   8277     1
   8276   8295     1
   8276   8294     1
   8276   8290     1
   8276   8288     1
   8276   8289     1
   8276   8279     1
   8277   8282     1
   8277   8287     1
   8277   8296     1
   8278   8293     1
   8278   8286     1
   8278   8294     1
   8279   8287     1
   8279   8281     1
   8280   8283     1
   8280   8292     1
   8280   8282     1
   8280   8287     1
   8280   8284     1
   8280   8281     1
   8281   8297     1
   8281   8286     1
   8281   8295     1
   8281   8294     1
   8282   8293     1
   8282   8297     1
   8284   8294     1
   8285   8294     1
   8288   8291     1
   8288   8292     1
   8289   8291     1
   8289   8292     1
   8292   8293     1
   8292   8294     1
   8294   8296     1
   8299   8305     1
   8299   8306     1
   8300   8303     1
   8300   8302     1
   8300   8304     1
   8301   8372     1
   8302   8307     1
   8302   8305     1
   8302   8306     1
   8303   8317     1
   8303   8318     1
   8303   8310     1
   8303   8312     1
   8304   8307     1
   8304   8305     1
   8304   8306     1
   8305   8308     1
   8305   8309     1
   8305   8372     1
   8306   8308     1
   8306   8309     1
   8306   8372     1
   8307   8320     1
   8307   8321     1
   8307   8313     1
   8307   8314     1
   8308   8310     1
   8308   8312     1
   8309   8317     1
   8309   8318     1
   8310   8372     1
   8310   8315     1
   8310   8313     1
   8310   8314     1
   8311   8372     1
   8311   8337     1
   8312   8372     1
   8312   8315     1
   8312   8313     1
   8312   8314     1
   8313   8316     1
   8313   8347     1
   8314   8316     1
   8314   8347     1
   8315   8330     1
   8316   8337     1
   8317   8372     1
   8317   8322     1
   8317   8320     1
   8317   8321     1
   8318   8372     1
   8318   8322     1
   8318   8320     1
   8318   8321     1
   8319   8372     1
   8319   8361     1
   8320   8323     1
   8320   8371     1
   8321   8323     1
   8321   8371     1
   8322   8354     1
   8323   8361     1
   8324   8331     1
   8324   8346     1
   8324   8341     1
   8324   8332     1
   8325   8338     1
   8325   8339     1
   8325   8330     1
   8325   8336     1
   8326   8327     1
   8326   8345     1
   8326   8344     1
   8326   8340     1
   8326   8338     1
   8326   8339     1
   8326   8329     1
   8327   8346     1
   8327   8332     1
   8327   8337     1
   8328   8344     1
   8328   8336     1
   8328   8343     1
   8329   8331     1
   8329   8337     1
   8330   8334     1
   8330   8331     1
   8330   8333     1
   8330   8342     1
   8330   8332     1
   8330   8337     1
   8331   8345     1
   8331   8344     1
   8331   8347     1
   8331   8336     1
   8332   8347     1
   8332   8343     1
   8334   8344     1
   8335   8344     1
   8338   8342     1
   8338   8341     1
   8339   8342     1
   8339   8341     1
   8342   8344     1
   8342   8343     1
   8344   8346     1
   8348   8355     1
   8348   8370     1
   8348   8365     1
   8348   8356     1
   8349   8362     1
   8349   8363     1
   8349   8354     1
   8349   8360     1
   8350   8351     1
   8350   8369     1
   8350   8368     1
   8350   8364     1
   8350   8362     1
   8350   8363     1
   8350   8353     1
   8351   8370     1
   8351   8356     1
   8351   8361     1
   8352   8368     1
   8352   8360     1
   8352   8367     1
   8353   8355     1
   8353   8361     1
   8354   8358     1
   8354   8355     1
   8354   8357     1
   8354   8366     1
   8354   8356     1
   8354   8361     1
   8355   8369     1
   8355   8368     1
   8355   8371     1
   8355   8360     1
   8356   8371     1
   8356   8367     1
   8358   8368     1
   8359   8368     1
   8362   8366     1
   8362   8365     1
   8363   8366     1
   8363   8365     1
   8366   8368     1
   8366   8367     1
   8368   8370     1
   8373   8379     1
   8373   8380     1
   8374   8377     1
   8374   8376     1
   8374   8378     1
   8375   8446     1
   8376   8381     1
   8376   8379     1
   8376   8380     1
   8377   8391     1
   8377   8392     1
   8377   8384     1
   8377   8386     1
   8378   8381     1
   8378   8379     1
   8378   8380     1
   8379   8382     1
   8379   8383     1
   8379   8446     1
   8380   8382     1
   8380   8383     1
   8380   8446     1
   8381   8394     1
   8381   8395     1
   8381   8387     1
   8381   8388     1
   8382   8384     1
   8382   8386     1
   8383   8391     1
   8383   8392     1
   8384   8389     1
   8384   8387     1
   8384   8388     1
   8384   8446     1
   8385   8411     1
   8385   8446     1
   8386   8389     1
   8386   8387     1
   8386   8388     1
   8386   8446     1
   8387   8390     1
   8387   8421     1
   8388   8390     1
   8388   8421     1
   8389   8404     1
   8390   8411     1
   8391   8396     1
   8391   8394     1
   8391   8395     1
   8391   8446     1
   8392   8396     1
   8392   8394     1
   8392   8395     1
   8392   8446     1
   8393   8435     1
   8393   8446     1
   8394   8397     1
   8394   8445     1
   8395   8397     1
   8395   8445     1
   8396   8428     1
   8397   8435     1
   8398   8405     1
   8398   8420     1
   8398   8415     1
   8398   8406     1
   8399   8404     1
   8399   8410     1
   8399   8412     1
   8399   8413     1
   8400   8401     1
   8400   8419     1
   8400   8418     1
   8400   8414     1
   8400   8412     1
   8400   8413     1
   8400   8403     1
   8401   8406     1
   8401   8411     1
   8401   8420     1
   8402   8417     1
   8402   8410     1
   8402   8418     1
   8403   8411     1
   8403   8405     1
   8404   8407     1
   8404   8416     1
   8404   8406     1
   8404   8411     1
   8404   8408     1
   8404   8405     1
   8405   8421     1
   8405   8410     1
   8405   8419     1
   8405   8418     1
   8406   8417     1
   8406   8421     1
   8408   8418     1
   8409   8418     1
   8412   8415     1
   8412   8416     1
   8413   8415     1
   8413   8416     1
   8416   8417     1
   8416   8418     1
   8418   8420     1
   8422   8429     1
   8422   8444     1
   8422   8439     1
   8422   8430     1
   8423   8428     1
   8423   8434     1
   8423   8436     1
   8423   8437     1
   8424   8425     1
   8424   8443     1
   8424   8442     1
   8424   8438     1
   8424   8436     1
   8424   8437     1
   8424   8427     1
   8425   8430     1
   8425   8435     1
   8425   8444     1
   8426   8441     1
   8426   8434     1
   8426   8442     1
   8427   8435     1
   8427   8429     1
   8428   8431     1
   8428   8440     1
   8428   8430     1
   8428   8435     1
   8428   8432     1
   8428   8429     1
   8429   8445     1
   8429   8434     1
   8429   8443     1
   8429   8442     1
   8430   8441     1
   8430   8445     1
   8432   8442     1
   8433   8442     1
   8436   8439     1
   8436   8440     1
   8437   8439     1
   8437   8440     1
   8440   8441     1
   8440   8442     1
   8442   8444     1
   8447   8453     1
   8447   8454     1
   8448   8451     1
   8448   8450     1
   8448   8452     1
   8449   8520     1
   8450   8455     1
   8450   8453     1
   8450   8454     1
   8451   8465     1
   8451   8466     1
   8451   8458     1
   8451   8460     1
   8452   8455     1
   8452   8453     1
   8452   8454     1
   8453   8456     1
   8453   8457     1
   8453   8520     1
   8454   8456     1
   8454   8457     1
   8454   8520     1
   8455   8468     1
   8455   8469     1
   8455   8461     1
   8455   8462     1
   8456   8458     1
   8456   8460     1
   8457   8465     1
   8457   8466     1
   8458   8520     1
   8458   8463     1
   8458   8461     1
   8458   8462     1
   8459   8520     1
   8459   8485     1
   8460   8520     1
   8460   8463     1
   8460   8461     1
   8460   8462     1
   8461   8464     1
   8461   8495     1
   8462   8464     1
   8462   8495     1
   8463   8478     1
   8464   8485     1
   8465   8520     1
   8465   8470     1
   8465   8468     1
   8465   8469     1
   8466   8520     1
   8466   8470     1
   8466   8468     1
   8466   8469     1
   8467   8520     1
   8467   8509     1
   8468   8471     1
   8468   8519     1
   8469   8471     1
   8469   8519     1
   8470   8502     1
   8471   8509     1
   8472   8479     1
   8472   8494     1
   8472   8489     1
   8472   8480     1
   8473   8486     1
   8473   8487     1
   8473   8478     1
   8473   8484     1
   8474   8475     1
   8474   8493     1
   8474   8492     1
   8474   8488     1
   8474   8486     1
   8474   8487     1
   8474   8477     1
   8475   8494     1
   8475   8480     1
   8475   8485     1
   8476   8492     1
   8476   8484     1
   8476   8491     1
   8477   8479     1
   8477   8485     1
   8478   8482     1
   8478   8479     1
   8478   8481     1
   8478   8490     1
   8478   8480     1
   8478   8485     1
   8479   8493     1
   8479   8492     1
   8479   8495     1
   8479   8484     1
   8480   8495     1
   8480   8491     1
   8482   8492     1
   8483   8492     1
   8486   8490     1
   8486   8489     1
   8487   8490     1
   8487   8489     1
   8490   8492     1
   8490   8491     1
   8492   8494     1
   8496   8503     1
   8496   8518     1
   8496   8513     1
   8496   8504     1
   8497   8510     1
   8497   8511     1
   8497   8502     1
   8497   8508     1
   8498   8499     1
   8498   8517     1
   8498   8516     1
   8498   8512     1
   8498   8510     1
   8498   8511     1
   8498   8501     1
   8499   8518     1
   8499   8504     1
   8499   8509     1
   8500   8516     1
   8500   8508     1
   8500   8515     1
   8501   8503     1
   8501   8509     1
   8502   8506     1
   8502   8503     1
   8502   8505     1
   8502   8514     1
   8502   8504     1
   8502   8509     1
   8503   8517     1
   8503   8516     1
   8503   8519     1
   8503   8508     1
   8504   8519     1
   8504   8515     1
   8506   8516     1
   8507   8516     1
   8510   8514     1
   8510   8513     1
   8511   8514     1
   8511   8513     1
   8514   8516     1
   8514   8515     1
   8516   8518     1
   8521   8527     1
   8521   8528     1
   8522   8525     1
   8522   8524     1
   8522   8526     1
   8523   8594     1
   8524   8529     1
   8524   8527     1
   8524   8528     1
   8525   8539     1
   8525   8540     1
   8525   8532     1
   8525   8534     1
   8526   8529     1
   8526   8527     1
   8526   8528     1
   8527   8530     1
   8527   8531     1
   8527   8594     1
   8528   8530     1
   8528   8531     1
   8528   8594     1
   8529   8542     1
   8529   8543     1
   8529   8535     1
   8529   8536     1
   8530   8532     1
   8530   8534     1
   8531   8539     1
   8531   8540     1
   8532   8537     1
   8532   8535     1
   8532   8536     1
   8532   8594     1
   8533   8559     1
   8533   8594     1
   8534   8537     1
   8534   8535     1
   8534   8536     1
   8534   8594     1
   8535   8538     1
   8535   8569     1
   8536   8538     1
   8536   8569     1
   8537   8552     1
   8538   8559     1
   8539   8544     1
   8539   8542     1
   8539   8543     1
   8539   8594     1
   8540   8544     1
   8540   8542     1
   8540   8543     1
   8540   8594     1
   8541   8583     1
   8541   8594     1
   8542   8545     1
   8542   8593     1
   8543   8545     1
   8543   8593     1
   8544   8576     1
   8545   8583     1
   8546   8553     1
   8546   8568     1
   8546   8563     1
   8546   8554     1
   8547   8552     1
   8547   8558     1
   8547   8560     1
   8547   8561     1
   8548   8549     1
   8548   8567     1
   8548   8566     1
   8548   8562     1
   8548   8560     1
   8548   8561     1
   8548   8551     1
   8549   8554     1
   8549   8559     1
   8549   8568     1
   8550   8565     1
   8550   8558     1
   8550   8566     1
   8551   8559     1
   8551   8553     1
   8552   8555     1
   8552   8564     1
   8552   8554     1
   8552   8559     1
   8552   8556     1
   8552   8553     1
   8553   8569     1
   8553   8558     1
   8553   8567     1
   8553   8566     1
   8554   8565     1
   8554   8569     1
   8556   8566     1
   8557   8566     1
   8560   8563     1
   8560   8564     1
   8561   8563     1
   8561   8564     1
   8564   8565     1
   8564   8566     1
   8566   8568     1
   8570   8577     1
   8570   8592     1
   8570   8587     1
   8570   8578     1
   8571   8576     1
   8571   8582     1
   8571   8584     1
   8571   8585     1
   8572   8573     1
   8572   8591     1
   8572   8590     1
   8572   8586     1
   8572   8584     1
   8572   8585     1
   8572   8575     1
   8573   8578     1
   8573   8583     1
   8573   8592     1
   8574   8589     1
   8574   8582     1
   8574   8590     1
   8575   8583     1
   8575   8577     1
   8576   8579     1
   8576   8588     1
   8576   8578     1
   8576   8583     1
   8576   8580     1
   8576   8577     1
   8577   8593     1
   8577   8582     1
   8577   8591     1
   8577   8590     1
   8578   8589     1
   8578   8593     1
   8580   8590     1
   8581   8590     1
   8584   8587     1
   8584   8588     1
   8585   8587     1
   8585   8588     1
   8588   8589     1
   8588   8590     1
   8590   8592     1
   8595   8601     1
   8595   8602     1
   8596   8599     1
   8596   8598     1
   8596   8600     1
   8597   8668     1
   8598   8603     1
   8598   8601     1
   8598   8602     1
   8599   8613     1
   8599   8614     1
   8599   8606     1
   8599   8608     1
   8600   8603     1
   8600   8601     1
   8600   8602     1
   8601   8604     1
   8601   8605     1
   8601   8668     1
   8602   8604     1
   8602   8605     1
   8602   8668     1
   8603   8616     1
   8603   8617     1
   8603   8609     1
   8603   8610     1
   8604   8606     1
   8604   8608     1
   8605   8613     1
   8605   8614     1
   8606   8668     1
   8606   8611     1
   8606   8609     1
   8606   8610     1
   8607   8668     1
   8607   8633     1
   8608   8668     1
   8608   8611     1
   8608   8609     1
   8608   8610     1
   8609   8612     1
   8609   8643     1
   8610   8612     1
   8610   8643     1
   8611   8626     1
   8612   8633     1
   8613   8668     1
   8613   8618     1
   8613   8616     1
   8613   8617     1
   8614   8668     1
   8614   8618     1
   8614   8616     1
   8614   8617     1
   8615   8668     1
   8615   8657     1
   8616   8619     1
   8616   8667     1
   8617   8619     1
   8617   8667     1
   8618   8650     1
   8619   8657     1
   8620   8627     1
   8620   8642     1
   8620   8637     1
   8620   8628     1
   8621   8634     1
   8621   8635     1
   8621   8626     1
   8621   8632     1
   8622   8623     1
   8622   8641     1
   8622   8640     1
   8622   8636     1
   8622   8634     1
   8622   8635     1
   8622   8625     1
   8623   8642     1
   8623   8628     1
   8623   8633     1
   8624   8640     1
   8624   8632     1
   8624   8639     1
   8625   8627     1
   8625   8633     1
   8626   8630     1
   8626   8627     1
   8626   8629     1
   8626   8638     1
   8626   8628     1
   8626   8633     1
   8627   8641     1
   8627   8640     1
   8627   8643     1
   8627   8632     1
   8628   8643     1
   8628   8639     1
   8630   8640     1
   8631   8640     1
   8634   8638     1
   8634   8637     1
   8635   8638     1
   8635   8637     1
   8638   8640     1
   8638   8639     1
   8640   8642     1
   8644   8651     1
   8644   8666     1
   8644   8661     1
   8644   8652     1
   8645   8658     1
   8645   8659     1
   8645   8650     1
   8645   8656     1
   8646   8647     1
   8646   8665     1
   8646   8664     1
   8646   8660     1
   8646   8658     1
   8646   8659     1
   8646   8649     1
   8647   8666     1
   8647   8652     1
   8647   8657     1
   8648   8664     1
   8648   8656     1
   8648   8663     1
   8649   8651     1
   8649   8657     1
   8650   8654     1
   8650   8651     1
   8650   8653     1
   8650   8662     1
   8650   8652     1
   8650   8657     1
   8651   8665     1
   8651   8664     1
   8651   8667     1
   8651   8656     1
   8652   8667     1
   8652   8663     1
   8654   8664     1
   8655   8664     1
   8658   8662     1
   8658   8661     1
   8659   8662     1
   8659   8661     1
   8662   8664     1
   8662   8663     1
   8664   8666     1
   8669   8675     1
   8669   8676     1
   8670   8673     1
   8670   8672     1
   8670   8674     1
   8671   8742     1
   8672   8677     1
   8672   8675     1
   8672   8676     1
   8673   8687     1
   8673   8688     1
   8673   8680     1
   8673   8682     1
   8674   8677     1
   8674   8675     1
   8674   8676     1
   8675   8678     1
   8675   8679     1
   8675   8742     1
   8676   8678     1
   8676   8679     1
   8676   8742     1
   8677   8690     1
   8677   8691     1
   8677   8683     1
   8677   8684     1
   8678   8680     1
   8678   8682     1
   8679   8687     1
   8679   8688     1
   8680   8685     1
   8680   8683     1
   8680   8684     1
   8680   8742     1
   8681   8707     1
   8681   8742     1
   8682   8685     1
   8682   8683     1
   8682   8684     1
   8682   8742     1
   8683   8686     1
   8683   8717     1
   8684   8686     1
   8684   8717     1
   8685   8700     1
   8686   8707     1
   8687   8692     1
   8687   8690     1
   8687   8691     1
   8687   8742     1
   8688   8692     1
   8688   8690     1
   8688   8691     1
   8688   8742     1
   8689   8731     1
   8689   8742     1
   8690   8693     1
   8690   8741     1
   8691   8693     1
   8691   8741     1
   8692   8724     1
   8693   8731     1
   8694   8701     1
   8694   8716     1
   8694   8711     1
   8694   8702     1
   8695   8700     1
   8695   8706     1
   8695   8708     1
   8695   8709     1
   8696   8697     1
   8696   8715     1
   8696   8714     1
   8696   8710     1
   8696   8708     1
   8696   8709     1
   8696   8699     1
   8697   8702     1
   8697   8707     1
   8697   8716     1
   8698   8713     1
   8698   8706     1
   8698   8714     1
   8699   8707     1
   8699   8701     1
   8700   8703     1
   8700   8712     1
   8700   8702     1
   8700   8707     1
   8700   8704     1
   8700   8701     1
   8701   8717     1
   8701   8706     1
   8701   8715     1
   8701   8714     1
   8702   8713     1
   8702   8717     1
   8704   8714     1
   8705   8714     1
   8708   8711     1
   8708   8712     1
   8709   8711     1
   8709   8712     1
   8712   8713     1
   8712   8714     1
   8714   8716     1
   8718   8725     1
   8718   8740     1
   8718   8735     1
   8718   8726     1
   8719   8724     1
   8719   8730     1
   8719   8732     1
   8719   8733     1
   8720   8721     1
   8720   8739     1
   8720   8738     1
   8720   8734     1
   8720   8732     1
   8720   8733     1
   8720   8723     1
   8721   8726     1
   8721   8731     1
   8721   8740     1
   8722   8737     1
   8722   8730     1
   8722   8738     1
   8723   8731     1
   8723   8725     1
   8724   8727     1
   8724   8736     1
   8724   8726     1
   8724   8731     1
   8724   8728     1
   8724   8725     1
   8725   8741     1
   8725   8730     1
   8725   8739     1
   8725   8738     1
   8726   8737     1
   8726   8741     1
   8728   8738     1
   8729   8738     1
   8732   8735     1
   8732   8736     1
   8733   8735     1
   8733   8736     1
   8736   8737     1
   8736   8738     1
   8738   8740     1
   8743   8749     1
   8743   8750     1
   8744   8747     1
   8744   8746     1
   8744   8748     1
   8745   8816     1
   8746   8751     1
   8746   8749     1
   8746   8750     1
   8747   8761     1
   8747   8762     1
   8747   8754     1
   8747   8756     1
   8748   8751     1
   8748   8749     1
   8748   8750     1
   8749   8752     1
   8749   8753     1
   8749   8816     1
   8750   8752     1
   8750   8753     1
   8750   8816     1
   8751   8764     1
   8751   8765     1
   8751   8757     1
   8751   8758     1
   8752   8754     1
   8752   8756     1
   8753   8761     1
   8753   8762     1
   8754   8816     1
   8754   8759     1
   8754   8757     1
   8754   8758     1
   8755   8816     1
   8755   8781     1
   8756   8816     1
   8756   8759     1
   8756   8757     1
   8756   8758     1
   8757   8760     1
   8757   8791     1
   8758   8760     1
   8758   8791     1
   8759   8774     1
   8760   8781     1
   8761   8816     1
   8761   8766     1
   8761   8764     1
   8761   8765     1
   8762   8816     1
   8762   8766     1
   8762   8764     1
   8762   8765     1
   8763   8816     1
   8763   8805     1
   8764   8767     1
   8764   8815     1
   8765   8767     1
   8765   8815     1
   8766   8798     1
   8767   8805     1
   8768   8775     1
   8768   8790     1
   8768   8785     1
   8768   8776     1
   8769   8782     1
   8769   8783     1
   8769   8774     1
   8769   8780     1
   8770   8771     1
   8770   8789     1
   8770   8788     1
   8770   8784     1
   8770   8782     1
   8770   8783     1
   8770   8773     1
   8771   8790     1
   8771   8776     1
   8771   8781     1
   8772   8788     1
   8772   8780     1
   8772   8787     1
   8773   8775     1
   8773   8781     1
   8774   8778     1
   8774   8775     1
   8774   8777     1
   8774   8786     1
   8774   8776     1
   8774   8781     1
   8775   8789     1
   8775   8788     1
   8775   8791     1
   8775   8780     1
   8776   8791     1
   8776   8787     1
   8778   8788     1
   8779   8788     1
   8782   8786     1
   8782   8785     1
   8783   8786     1
   8783   8785     1
   8786   8788     1
   8786   8787     1
   8788   8790     1
   8792   8799     1
   8792   8814     1
   8792   8809     1
   8792   8800     1
   8793   8806     1
   8793   8807     1
   8793   8798     1
   8793   8804     1
   8794   8795     1
   8794   8813     1
   8794   8812     1
   8794   8808     1
   8794   8806     1
   8794   8807     1
   8794   8797     1
   8795   8814     1
   8795   8800     1
   8795   8805     1
   8796   8812     1
   8796   8804     1
   8796   8811     1
   8797   8799     1
   8797   8805     1
   8798   8802     1
   8798   8799     1
   8798   8801     1
   8798   8810     1
   8798   8800     1
   8798   8805     1
   8799   8813     1
   8799   8812     1
   8799   8815     1
   8799   8804     1
   8800   8815     1
   8800   8811     1
   8802   8812     1
   8803   8812     1
   8806   8810     1
   8806   8809     1
   8807   8810     1
   8807   8809     1
   8810   8812     1
   8810   8811     1
   8812   8814     1
   8817   8823     1
   8817   8824     1
   8818   8821     1
   8818   8820     1
   8818   8822     1
   8819   8890     1
   8820   8825     1
   8820   8823     1
   8820   8824     1
   8821   8835     1
   8821   8836     1
   8821   8828     1
   8821   8830     1
   8822   8825     1
   8822   8823     1
   8822   8824     1
   8823   8826     1
   8823   8827     1
   8823   8890     1
   8824   8826     1
   8824   8827     1
   8824   8890     1
   8825   8838     1
   8825   8839     1
   8825   8831     1
   8825   8832     1
   8826   8828     1
   8826   8830     1
   8827   8835     1
   8827   8836     1
   8828   8833     1
   8828   8831     1
   8828   8832     1
   8828   8890     1
   8829   8855     1
   8829   8890     1
   8830   8833     1
   8830   8831     1
   8830   8832     1
   8830   8890     1
   8831   8834     1
   8831   8865     1
   8832   8834     1
   8832   8865     1
   8833   8848     1
   8834   8855     1
   8835   8840     1
   8835   8838     1
   8835   8839     1
   8835   8890     1
   8836   8840     1
   8836   8838     1
   8836   8839     1
   8836   8890     1
   8837   8879     1
   8837   8890     1
   8838   8841     1
   8838   8889     1
   8839   8841     1
   8839   8889     1
   8840   8872     1
   8841   8879     1
   8842   8849     1
   8842   8864     1
   8842   8859     1
   8842   8850     1
   8843   8848     1
   8843   8854     1
   8843   8856     1
   8843   8857     1
   8844   8845     1
   8844   8863     1
   8844   8862     1
   8844   8858     1
   8844   8856     1
   8844   8857     1
   8844   8847     1
   8845   8850     1
   8845   8855     1
   8845   8864     1
   8846   8861     1
   8846   8854     1
   8846   8862     1
   8847   8855     1
   8847   8849     1
   8848   8851     1
   8848   8860     1
   8848   8850     1
   8848   8855     1
   8848   8852     1
   8848   8849     1
   8849   8865     1
   8849   8854     1
   8849   8863     1
   8849   8862     1
   8850   8861     1
   8850   8865     1
   8852   8862     1
   8853   8862     1
   8856   8859     1
   8856   8860     1
   8857   8859     1
   8857   8860     1
   8860   8861     1
   8860   8862     1
   8862   8864     1
   8866   8873     1
   8866   8888     1
   8866   8883     1
   8866   8874     1
   8867   8872     1
   8867   8878     1
   8867   8880     1
   8867   8881     1
   8868   8869     1
   8868   8887     1
   8868   8886     1
   8868   8882     1
   8868   8880     1
   8868   8881     1
   8868   8871     1
   8869   8874     1
   8869   8879     1
   8869   8888     1
   8870   8885     1
   8870   8878     1
   8870   8886     1
   8871   8879     1
   8871   8873     1
   8872   8875     1
   8872   8884     1
   8872   8874     1
   8872   8879     1
   8872   8876     1
   8872   8873     1
   8873   8889     1
   8873   8878     1
   8873   8887     1
   8873   8886     1
   8874   8885     1
   8874   8889     1
   8876   8886     1
   8877   8886     1
   8880   8883     1
   8880   8884     1
   8881   8883     1
   8881   8884     1
   8884   8885     1
   8884   8886     1
   8886   8888     1
   8891   8897     1
   8891   8898     1
   8892   8895     1
   8892   8894     1
   8892   8896     1
   8893   8964     1
   8894   8899     1
   8894   8897     1
   8894   8898     1
   8895   8909     1
   8895   8910     1
   8895   8902     1
   8895   8904     1
   8896   8899     1
   8896   8897     1
   8896   8898     1
   8897   8900     1
   8897   8901     1
   8897   8964     1
   8898   8900     1
   8898   8901     1
   8898   8964     1
   8899   8912     1
   8899   8913     1
   8899   8905     1
   8899   8906     1
   8900   8902     1
   8900   8904     1
   8901   8909     1
   8901   8910     1
   8902   8964     1
   8902   8907     1
   8902   8905     1
   8902   8906     1
   8903   8964     1
   8903   8929     1
   8904   8964     1
   8904   8907     1
   8904   8905     1
   8904   8906     1
   8905   8908     1
   8905   8939     1
   8906   8908     1
   8906   8939     1
   8907   8922     1
   8908   8929     1
   8909   8964     1
   8909   8914     1
   8909   8912     1
   8909   8913     1
   8910   8964     1
   8910   8914     1
   8910   8912     1
   8910   8913     1
   8911   8964     1
   8911   8953     1
   8912   8915     1
   8912   8963     1
   8913   8915     1
   8913   8963     1
   8914   8946     1
   8915   8953     1
   8916   8923     1
   8916   8938     1
   8916   8933     1
   8916   8924     1
   8917   8930     1
   8917   8931     1
   8917   8922     1
   8917   8928     1
   8918   8919     1
   8918   8937     1
   8918   8936     1
   8918   8932     1
   8918   8930     1
   8918   8931     1
   8918   8921     1
   8919   8938     1
   8919   8924     1
   8919   8929     1
   8920   8936     1
   8920   8928     1
   8920   8935     1
   8921   8923     1
   8921   8929     1
   8922   8926     1
   8922   8923     1
   8922   8925     1
   8922   8934     1
   8922   8924     1
   8922   8929     1
   8923   8937     1
   8923   8936     1
   8923   8939     1
   8923   8928     1
   8924   8939     1
   8924   8935     1
   8926   8936     1
   8927   8936     1
   8930   8934     1
   8930   8933     1
   8931   8934     1
   8931   8933     1
   8934   8936     1
   8934   8935     1
   8936   8938     1
   8940   8947     1
   8940   8962     1
   8940   8957     1
   8940   8948     1
   8941   8954     1
   8941   8955     1
   8941   8946     1
   8941   8952     1
   8942   8943     1
   8942   8961     1
   8942   8960     1
   8942   8956     1
   8942   8954     1
   8942   8955     1
   8942   8945     1
   8943   8962     1
   8943   8948     1
   8943   8953     1
   8944   8960     1
   8944   8952     1
   8944   8959     1
   8945   8947     1
   8945   8953     1
   8946   8950     1
   8946   8947     1
   8946   8949     1
   8946   8958     1
   8946   8948     1
   8946   8953     1
   8947   8961     1
   8947   8960     1
   8947   8963     1
   8947   8952     1
   8948   8963     1
   8948   8959     1
   8950   8960     1
   8951   8960     1
   8954   8958     1
   8954   8957     1
   8955   8958     1
   8955   8957     1
   8958   8960     1
   8958   8959     1
   8960   8962     1
   8965   8971     1
   8965   8972     1
   8966   8969     1
   8966   8968     1
   8966   8970     1
   8967   9038     1
   8968   8973     1
   8968   8971     1
   8968   8972     1
   8969   8983     1
   8969   8984     1
   8969   8976     1
   8969   8978     1
   8970   8973     1
   8970   8971     1
   8970   8972     1
   8971   8974     1
   8971   8975     1
   8971   9038     1
   8972   8974     1
   8972   8975     1
   8972   9038     1
   8973   8986     1
   8973   8987     1
   8973   8979     1
   8973   8980     1
   8974   8976     1
   8974   8978     1
   8975   8983     1
   8975   8984     1
   8976   8981     1
   8976   8979     1
   8976   8980     1
   8976   9038     1
   8977   9003     1
   8977   9038     1
   8978   8981     1
   8978   8979     1
   8978   8980     1
   8978   9038     1
   8979   8982     1
   8979   9013     1
   8980   8982     1
   8980   9013     1
   8981   8996     1
   8982   9003     1
   8983   8988     1
   8983   8986     1
   8983   8987     1
   8983   9038     1
   8984   8988     1
   8984   8986     1
   8984   8987     1
   8984   9038     1
   8985   9027     1
   8985   9038     1
   8986   8989     1
   8986   9037     1
   8987   8989     1
   8987   9037     1
   8988   9020     1
   8989   9027     1
   8990   8997     1
   8990   9012     1
   8990   9007     1
   8990   8998     1
   8991   8996     1
   8991   9002     1
   8991   9004     1
   8991   9005     1
   8992   8993     1
   8992   9011     1
   8992   9010     1
   8992   9006     1
   8992   9004     1
   8992   9005     1
   8992   8995     1
   8993   8998     1
   8993   9003     1
   8993   9012     1
   8994   9009     1
   8994   9002     1
   8994   9010     1
   8995   9003     1
   8995   8997     1
   8996   8999     1
   8996   9008     1
   8996   8998     1
   8996   9003     1
   8996   9000     1
   8996   8997     1
   8997   9013     1
   8997   9002     1
   8997   9011     1
   8997   9010     1
   8998   9009     1
   8998   9013     1
   9000   9010     1
   9001   9010     1
   9004   9007     1
   9004   9008     1
   9005   9007     1
   9005   9008     1
   9008   9009     1
   9008   9010     1
   9010   9012     1
   9014   9021     1
   9014   9036     1
   9014   9031     1
   9014   9022     1
   9015   9020     1
   9015   9026     1
   9015   9028     1
   9015   9029     1
   9016   9017     1
   9016   9035     1
   9016   9034     1
   9016   9030     1
   9016   9028     1
   9016   9029     1
   9016   9019     1
   9017   9022     1
   9017   9027     1
   9017   9036     1
   9018   9033     1
   9018   9026     1
   9018   9034     1
   9019   9027     1
   9019   9021     1
   9020   9023     1
   9020   9032     1
   9020   9022     1
   9020   9027     1
   9020   9024     1
   9020   9021     1
   9021   9037     1
   9021   9026     1
   9021   9035     1
   9021   9034     1
   9022   9033     1
   9022   9037     1
   9024   9034     1
   9025   9034     1
   9028   9031     1
   9028   9032     1
   9029   9031     1
   9029   9032     1
   9032   9033     1
   9032   9034     1
   9034   9036     1
   9039   9045     1
   9039   9046     1
   9040   9043     1
   9040   9042     1
   9040   9044     1
   9041   9112     1
   9042   9047     1
   9042   9045     1
   9042   9046     1
   9043   9057     1
   9043   9058     1
   9043   9050     1
   9043   9052     1
   9044   9047     1
   9044   9045     1
   9044   9046     1
   9045   9048     1
   9045   9049     1
   9045   9112     1
   9046   9048     1
   9046   9049     1
   9046   9112     1
   9047   9060     1
   9047   9061     1
   9047   9053     1
   9047   9054     1
   9048   9050     1
   9048   9052     1
   9049   9057     1
   9049   9058     1
   9050   9112     1
   9050   9055     1
   9050   9053     1
   9050   9054     1
   9051   9112     1
   9051   9077     1
   9052   9112     1
   9052   9055     1
   9052   9053     1
   9052   9054     1
   9053   9056     1
   9053   9087     1
   9054   9056     1
   9054   9087     1
   9055   9070     1
   9056   9077     1
   9057   9112     1
   9057   9062     1
   9057   9060     1
   9057   9061     1
   9058   9112     1
   9058   9062     1
   9058   9060     1
   9058   9061     1
   9059   9112     1
   9059   9101     1
   9060   9063     1
   9060   9111     1
   9061   9063     1
   9061   9111     1
   9062   9094     1
   9063   9101     1
   9064   9071     1
   9064   9086     1
   9064   9081     1
   9064   9072     1
   9065   9078     1
   9065   9079     1
   9065   9070     1
   9065   9076     1
   9066   9067     1
   9066   9085     1
   9066   9084     1
   9066   9080     1
   9066   9078     1
   9066   9079     1
   9066   9069     1
   9067   9086     1
   9067   9072     1
   9067   9077     1
   9068   9084     1
   9068   9076     1
   9068   9083     1
   9069   9071     1
   9069   9077     1
   9070   9074     1
   9070   9071     1
   9070   9073     1
   9070   9082     1
   9070   9072     1
   9070   9077     1
   9071   9085     1
   9071   9084     1
   9071   9087     1
   9071   9076     1
   9072   9087     1
   9072   9083     1
   9074   9084     1
   9075   9084     1
   9078   9082     1
   9078   9081     1
   9079   9082     1
   9079   9081     1
   9082   9084     1
   9082   9083     1
   9084   9086     1
   9088   9095     1
   9088   9110     1
   9088   9105     1
   9088   9096     1
   9089   9102     1
   9089   9103     1
   9089   9094     1
   9089   9100     1
   9090   9091     1
   9090   9109     1
   9090   9108     1
   9090   9104     1
   9090   9102     1
   9090   9103     1
   9090   9093     1
   9091   9110     1
   9091   9096     1
   9091   9101     1
   9092   9108     1
   9092   9100     1
   9092   9107     1
   9093   9095     1
   9093   9101     1
   9094   9098     1
   9094   9095     1
   9094   9097     1
   9094   9106     1
   9094   9096     1
   9094   9101     1
   9095   9109     1
   9095   9108     1
   9095   9111     1
   9095   9100     1
   9096   9111     1
   9096   9107     1
   9098   9108     1
   9099   9108     1
   9102   9106     1
   9102   9105     1
   9103   9106     1
   9103   9105     1
   9106   9108     1
   9106   9107     1
   9108   9110     1
   9113   9119     1
   9113   9120     1
   9114   9117     1
   9114   9116     1
   9114   9118     1
   9115   9186     1
   9116   9121     1
   9116   9119     1
   9116   9120     1
   9117   9131     1
   9117   9132     1
   9117   9124     1
   9117   9126     1
   9118   9121     1
   9118   9119     1
   9118   9120     1
   9119   9122     1
   9119   9123     1
   9119   9186     1
   9120   9122     1
   9120   9123     1
   9120   9186     1
   9121   9134     1
   9121   9135     1
   9121   9127     1
   9121   9128     1
   9122   9124     1
   9122   9126     1
   9123   9131     1
   9123   9132     1
   9124   9129     1
   9124   9127     1
   9124   9128     1
   9124   9186     1
   9125   9151     1
   9125   9186     1
   9126   9129     1
   9126   9127     1
   9126   9128     1
   9126   9186     1
   9127   9130     1
   9127   9161     1
   9128   9130     1
   9128   9161     1
   9129   9144     1
   9130   9151     1
   9131   9136     1
   9131   9134     1
   9131   9135     1
   9131   9186     1
   9132   9136     1
   9132   9134     1
   9132   9135     1
   9132   9186     1
   9133   9175     1
   9133   9186     1
   9134   9137     1
   9134   9185     1
   9135   9137     1
   9135   9185     1
   9136   9168     1
   9137   9175     1
   9138   9145     1
   9138   9160     1
   9138   9155     1
   9138   9146     1
   9139   9144     1
   9139   9150     1
   9139   9152     1
   9139   9153     1
   9140   9141     1
   9140   9159     1
   9140   9158     1
   9140   9154     1
   9140   9152     1
   9140   9153     1
   9140   9143     1
   9141   9146     1
   9141   9151     1
   9141   9160     1
   9142   9157     1
   9142   9150     1
   9142   9158     1
   9143   9151     1
   9143   9145     1
   9144   9147     1
   9144   9156     1
   9144   9146     1
   9144   9151     1
   9144   9148     1
   9144   9145     1
   9145   9161     1
   9145   9150     1
   9145   9159     1
   9145   9158     1
   9146   9157     1
   9146   9161     1
   9148   9158     1
   9149   9158     1
   9152   9155     1
   9152   9156     1
   9153   9155     1
   9153   9156     1
   9156   9157     1
   9156   9158     1
   9158   9160     1
   9162   9169     1
   9162   9184     1
   9162   9179     1
   9162   9170     1
   9163   9168     1
   9163   9174     1
   9163   9176     1
   9163   9177     1
   9164   9165     1
   9164   9183     1
   9164   9182     1
   9164   9178     1
   9164   9176     1
   9164   9177     1
   9164   9167     1
   9165   9170     1
   9165   9175     1
   9165   9184     1
   9166   9181     1
   9166   9174     1
   9166   9182     1
   9167   9175     1
   9167   9169     1
   9168   9171     1
   9168   9180     1
   9168   9170     1
   9168   9175     1
   9168   9172     1
   9168   9169     1
   9169   9185     1
   9169   9174     1
   9169   9183     1
   9169   9182     1
   9170   9181     1
   9170   9185     1
   9172   9182     1
   9173   9182     1
   9176   9179     1
   9176   9180     1
   9177   9179     1
   9177   9180     1
   9180   9181     1
   9180   9182     1
   9182   9184     1
   9187   9193     1
   9187   9194     1
   9188   9191     1
   9188   9190     1
   9188   9192     1
   9189   9260     1
   9190   9195     1
   9190   9193     1
   9190   9194     1
   9191   9205     1
   9191   9206     1
   9191   9198     1
   9191   9200     1
   9192   9195     1
   9192   9193     1
   9192   9194     1
   9193   9196     1
   9193   9197     1
   9193   9260     1
   9194   9196     1
   9194   9197     1
   9194   9260     1
   9195   9208     1
   9195   9209     1
   9195   9201     1
   9195   9202     1
   9196   9198     1
   9196   9200     1
   9197   9205     1
   9197   9206     1
   9198   9260     1
   9198   9203     1
   9198   9201     1
   9198   9202     1
   9199   9260     1
   9199   9225     1
   9200   9260     1
   9200   9203     1
   9200   9201     1
   9200   9202     1
   9201   9204     1
   9201   9235     1
   9202   9204     1
   9202   9235     1
   9203   9218     1
   9204   9225     1
   9205   9260     1
   9205   9210     1
   9205   9208     1
   9205   9209     1
   9206   9260     1
   9206   9210     1
   9206   9208     1
   9206   9209     1
   9207   9260     1
   9207   9249     1
   9208   9211     1
   9208   9259     1
   9209   9211     1
   9209   9259     1
   9210   9242     1
   9211   9249     1
   9212   9219     1
   9212   9234     1
   9212   9229     1
   9212   9220     1
   9213   9226     1
   9213   9227     1
   9213   9218     1
   9213   9224     1
   9214   9215     1
   9214   9233     1
   9214   9232     1
   9214   9228     1
   9214   9226     1
   9214   9227     1
   9214   9217     1
   9215   9234     1
   9215   9220     1
   9215   9225     1
   9216   9232     1
   9216   9224     1
   9216   9231     1
   9217   9219     1
   9217   9225     1
   9218   9222     1
   9218   9219     1
   9218   9221     1
   9218   9230     1
   9218   9220     1
   9218   9225     1
   9219   9233     1
   9219   9232     1
   9219   9235     1
   9219   9224     1
   9220   9235     1
   9220   9231     1
   9222   9232     1
   9223   9232     1
   9226   9230     1
   9226   9229     1
   9227   9230     1
   9227   9229     1
   9230   9232     1
   9230   9231     1
   9232   9234     1
   9236   9243     1
   9236   9258     1
   9236   9253     1
   9236   9244     1
   9237   9250     1
   9237   9251     1
   9237   9242     1
   9237   9248     1
   9238   9239     1
   9238   9257     1
   9238   9256     1
   9238   9252     1
   9238   9250     1
   9238   9251     1
   9238   9241     1
   9239   9258     1
   9239   9244     1
   9239   9249     1
   9240   9256     1
   9240   9248     1
   9240   9255     1
   9241   9243     1
   9241   9249     1
   9242   9246     1
   9242   9243     1
   9242   9245     1
   9242   9254     1
   9242   9244     1
   9242   9249     1
   9243   9257     1
   9243   9256     1
   9243   9259     1
   9243   9248     1
   9244   9259     1
   9244   9255     1
   9246   9256     1
   9247   9256     1
   9250   9254     1
   9250   9253     1
   9251   9254     1
   9251   9253     1
   9254   9256     1
   9254   9255     1
   9256   9258     1
   9261   9267     1
   9261   9268     1
   9262   9265     1
   9262   9264     1
   9262   9266     1
   9263   9334     1
   9264   9269     1
   9264   9267     1
   9264   9268     1
   9265   9279     1
   9265   9280     1
   9265   9272     1
   9265   9274     1
   9266   9269     1
   9266   9267     1
   9266   9268     1
   9267   9270     1
   9267   9271     1
   9267   9334     1
   9268   9270     1
   9268   9271     1
   9268   9334     1
   9269   9282     1
   9269   9283     1
   9269   9275     1
   9269   9276     1
   9270   9272     1
   9270   9274     1
   9271   9279     1
   9271   9280     1
   9272   9277     1
   9272   9275     1
   9272   9276     1
   9272   9334     1
   9273   9299     1
   9273   9334     1
   9274   9277     1
   9274   9275     1
   9274   9276     1
   9274   9334     1
   9275   9278     1
   9275   9309     1
   9276   9278     1
   9276   9309     1
   9277   9292     1
   9278   9299     1
   9279   9284     1
   9279   9282     1
   9279   9283     1
   9279   9334     1
   9280   9284     1
   9280   9282     1
   9280   9283     1
   9280   9334     1
   9281   9323     1
   9281   9334     1
   9282   9285     1
   9282   9333     1
   9283   9285     1
   9283   9333     1
   9284   9316     1
   9285   9323     1
   9286   9293     1
   9286   9308     1
   9286   9303     1
   9286   9294     1
   9287   9292     1
   9287   9298     1
   9287   9300     1
   9287   9301     1
   9288   9289     1
   9288   9307     1
   9288   9306     1
   9288   9302     1
   9288   9300     1
   9288   9301     1
   9288   9291     1
   9289   9294     1
   9289   9299     1
   9289   9308     1
   9290   9305     1
   9290   9298     1
   9290   9306     1
   9291   9299     1
   9291   9293     1
   9292   9295     1
   9292   9304     1
   9292   9294     1
   9292   9299     1
   9292   9296     1
   9292   9293     1
   9293   9309     1
   9293   9298     1
   9293   9307     1
   9293   9306     1
   9294   9305     1
   9294   9309     1
   9296   9306     1
   9297   9306     1
   9300   9303     1
   9300   9304     1
   9301   9303     1
   9301   9304     1
   9304   9305     1
   9304   9306     1
   9306   9308     1
   9310   9317     1
   9310   9332     1
   9310   9327     1
   9310   9318     1
   9311   9316     1
   9311   9322     1
   9311   9324     1
   9311   9325     1
   9312   9313     1
   9312   9331     1
   9312   9330     1
   9312   9326     1
   9312   9324     1
   9312   9325     1
   9312   9315     1
   9313   9318     1
   9313   9323     1
   9313   9332     1
   9314   9329     1
   9314   9322     1
   9314   9330     1
   9315   9323     1
   9315   9317     1
   9316   9319     1
   9316   9328     1
   9316   9318     1
   9316   9323     1
   9316   9320     1
   9316   9317     1
   9317   9333     1
   9317   9322     1
   9317   9331     1
   9317   9330     1
   9318   9329     1
   9318   9333     1
   9320   9330     1
   9321   9330     1
   9324   9327     1
   9324   9328     1
   9325   9327     1
   9325   9328     1
   9328   9329     1
   9328   9330     1
   9330   9332     1
   9335   9341     1
   9335   9342     1
   9336   9339     1
   9336   9338     1
   9336   9340     1
   9337   9408     1
   9338   9343     1
   9338   9341     1
   9338   9342     1
   9339   9353     1
   9339   9354     1
   9339   9346     1
   9339   9348     1
   9340   9343     1
   9340   9341     1
   9340   9342     1
   9341   9344     1
   9341   9345     1
   9341   9408     1
   9342   9344     1
   9342   9345     1
   9342   9408     1
   9343   9356     1
   9343   9357     1
   9343   9349     1
   9343   9350     1
   9344   9346     1
   9344   9348     1
   9345   9353     1
   9345   9354     1
   9346   9408     1
   9346   9351     1
   9346   9349     1
   9346   9350     1
   9347   9408     1
   9347   9373     1
   9348   9408     1
   9348   9351     1
   9348   9349     1
   9348   9350     1
   9349   9352     1
   9349   9383     1
   9350   9352     1
   9350   9383     1
   9351   9366     1
   9352   9373     1
   9353   9408     1
   9353   9358     1
   9353   9356     1
   9353   9357     1
   9354   9408     1
   9354   9358     1
   9354   9356     1
   9354   9357     1
   9355   9408     1
   9355   9397     1
   9356   9359     1
   9356   9407     1
   9357   9359     1
   9357   9407     1
   9358   9390     1
   9359   9397     1
   9360   9367     1
   9360   9382     1
   9360   9377     1
   9360   9368     1
   9361   9374     1
   9361   9375     1
   9361   9366     1
   9361   9372     1
   9362   9363     1
   9362   9381     1
   9362   9380     1
   9362   9376     1
   9362   9374     1
   9362   9375     1
   9362   9365     1
   9363   9382     1
   9363   9368     1
   9363   9373     1
   9364   9380     1
   9364   9372     1
   9364   9379     1
   9365   9367     1
   9365   9373     1
   9366   9370     1
   9366   9367     1
   9366   9369     1
   9366   9378     1
   9366   9368     1
   9366   9373     1
   9367   9381     1
   9367   9380     1
   9367   9383     1
   9367   9372     1
   9368   9383     1
   9368   9379     1
   9370   9380     1
   9371   9380     1
   9374   9378     1
   9374   9377     1
   9375   9378     1
   9375   9377     1
   9378   9380     1
   9378   9379     1
   9380   9382     1
   9384   9391     1
   9384   9406     1
   9384   9401     1
   9384   9392     1
   9385   9398     1
   9385   9399     1
   9385   9390     1
   9385   9396     1
   9386   9387     1
   9386   9405     1
   9386   9404     1
   9386   9400     1
   9386   9398     1
   9386   9399     1
   9386   9389     1
   9387   9406     1
   9387   9392     1
   9387   9397     1
   9388   9404     1
   9388   9396     1
   9388   9403     1
   9389   9391     1
   9389   9397     1
   9390   9394     1
   9390   9391     1
   9390   9393     1
   9390   9402     1
   9390   9392     1
   9390   9397     1
   9391   9405     1
   9391   9404     1
   9391   9407     1
   9391   9396     1
   9392   9407     1
   9392   9403     1
   9394   9404     1
   9395   9404     1
   9398   9402     1
   9398   9401     1
   9399   9402     1
   9399   9401     1
   9402   9404     1
   9402   9403     1
   9404   9406     1
   9409   9415     1
   9409   9416     1
   9410   9413     1
   9410   9412     1
   9410   9414     1
   9411   9482     1
   9412   9417     1
   9412   9415     1
   9412   9416     1
   9413   9427     1
   9413   9428     1
   9413   9420     1
   9413   9422     1
   9414   9417     1
   9414   9415     1
   9414   9416     1
   9415   9418     1
   9415   9419     1
   9415   9482     1
   9416   9418     1
   9416   9419     1
   9416   9482     1
   9417   9430     1
   9417   9431     1
   9417   9423     1
   9417   9424     1
   9418   9420     1
   9418   9422     1
   9419   9427     1
   9419   9428     1
   9420   9425     1
   9420   9423     1
   9420   9424     1
   9420   9482     1
   9421   9447     1
   9421   9482     1
   9422   9425     1
   9422   9423     1
   9422   9424     1
   9422   9482     1
   9423   9426     1
   9423   9457     1
   9424   9426     1
   9424   9457     1
   9425   9440     1
   9426   9447     1
   9427   9432     1
   9427   9430     1
   9427   9431     1
   9427   9482     1
   9428   9432     1
   9428   9430     1
   9428   9431     1
   9428   9482     1
   9429   9471     1
   9429   9482     1
   9430   9433     1
   9430   9481     1
   9431   9433     1
   9431   9481     1
   9432   9464     1
   9433   9471     1
   9434   9441     1
   9434   9456     1
   9434   9451     1
   9434   9442     1
   9435   9440     1
   9435   9446     1
   9435   9448     1
   9435   9449     1
   9436   9437     1
   9436   9455     1
   9436   9454     1
   9436   9450     1
   9436   9448     1
   9436   9449     1
   9436   9439     1
   9437   9442     1
   9437   9447     1
   9437   9456     1
   9438   9453     1
   9438   9446     1
   9438   9454     1
   9439   9447     1
   9439   9441     1
   9440   9443     1
   9440   9452     1
   9440   9442     1
   9440   9447     1
   9440   9444     1
   9440   9441     1
   9441   9457     1
   9441   9446     1
   9441   9455     1
   9441   9454     1
   9442   9453     1
   9442   9457     1
   9444   9454     1
   9445   9454     1
   9448   9451     1
   9448   9452     1
   9449   9451     1
   9449   9452     1
   9452   9453     1
   9452   9454     1
   9454   9456     1
   9458   9465     1
   9458   9480     1
   9458   9475     1
   9458   9466     1
   9459   9464     1
   9459   9470     1
   9459   9472     1
   9459   9473     1
   9460   9461     1
   9460   9479     1
   9460   9478     1
   9460   9474     1
   9460   9472     1
   9460   9473     1
   9460   9463     1
   9461   9466     1
   9461   9471     1
   9461   9480     1
   9462   9477     1
   9462   9470     1
   9462   9478     1
   9463   9471     1
   9463   9465     1
   9464   9467     1
   9464   9476     1
   9464   9466     1
   9464   9471     1
   9464   9468     1
   9464   9465     1
   9465   9481     1
   9465   9470     1
   9465   9479     1
   9465   9478     1
   9466   9477     1
   9466   9481     1
   9468   9478     1
   9469   9478     1
   9472   9475     1
   9472   9476     1
   9473   9475     1
   9473   9476     1
   9476   9477     1
   9476   9478     1
   9478   9480     1
   9483   9489     1
   9483   9490     1
   9484   9487     1
   9484   9486     1
   9484   9488     1
   9485   9556     1
   9486   9491     1
   9486   9489     1
   9486   9490     1
   9487   9501     1
   9487   9502     1
   9487   9494     1
   9487   9496     1
   9488   9491     1
   9488   9489     1
   9488   9490     1
   9489   9492     1
   9489   9493     1
   9489   9556     1
   9490   9492     1
   9490   9493     1
   9490   9556     1
   9491   9504     1
   9491   9505     1
   9491   9497     1
   9491   9498     1
   9492   9494     1
   9492   9496     1
   9493   9501     1
   9493   9502     1
   9494   9556     1
   9494   9499     1
   9494   9497     1
   9494   9498     1
   9495   9556     1
   9495   9521     1
   9496   9556     1
   9496   9499     1
   9496   9497     1
   9496   9498     1
   9497   9500     1
   9497   9531     1
   9498   9500     1
   9498   9531     1
   9499   9514     1
   9500   9521     1
   9501   9556     1
   9501   9506     1
   9501   9504     1
   9501   9505     1
   9502   9556     1
   9502   9506     1
   9502   9504     1
   9502   9505     1
   9503   9556     1
   9503   9545     1
   9504   9507     1
   9504   9555     1
   9505   9507     1
   9505   9555     1
   9506   9538     1
   9507   9545     1
   9508   9515     1
   9508   9530     1
   9508   9525     1
   9508   9516     1
   9509   9522     1
   9509   9523     1
   9509   9514     1
   9509   9520     1
   9510   9511     1
   9510   9529     1
   9510   9528     1
   9510   9524     1
   9510   9522     1
   9510   9523     1
   9510   9513     1
   9511   9530     1
   9511   9516     1
   9511   9521     1
   9512   9528     1
   9512   9520     1
   9512   9527     1
   9513   9515     1
   9513   9521     1
   9514   9518     1
   9514   9515     1
   9514   9517     1
   9514   9526     1
   9514   9516     1
   9514   9521     1
   9515   9529     1
   9515   9528     1
   9515   9531     1
   9515   9520     1
   9516   9531     1
   9516   9527     1
   9518   9528     1
   9519   9528     1
   9522   9526     1
   9522   9525     1
   9523   9526     1
   9523   9525     1
   9526   9528     1
   9526   9527     1
   9528   9530     1
   9532   9539     1
   9532   9554     1
   9532   9549     1
   9532   9540     1
   9533   9546     1
   9533   9547     1
   9533   9538     1
   9533   9544     1
   9534   9535     1
   9534   9553     1
   9534   9552     1
   9534   9548     1
   9534   9546     1
   9534   9547     1
   9534   9537     1
   9535   9554     1
   9535   9540     1
   9535   9545     1
   9536   9552     1
   9536   9544     1
   9536   9551     1
   9537   9539     1
   9537   9545     1
   9538   9542     1
   9538   9539     1
   9538   9541     1
   9538   9550     1
   9538   9540     1
   9538   9545     1
   9539   9553     1
   9539   9552     1
   9539   9555     1
   9539   9544     1
   9540   9555     1
   9540   9551     1
   9542   9552     1
   9543   9552     1
   9546   9550     1
   9546   9549     1
   9547   9550     1
   9547   9549     1
   9550   9552     1
   9550   9551     1
   9552   9554     1
   9557   9563     1
   9557   9564     1
   9558   9561     1
   9558   9560     1
   9558   9562     1
   9559   9630     1
   9560   9565     1
   9560   9563     1
   9560   9564     1
   9561   9575     1
   9561   9576     1
   9561   9568     1
   9561   9570     1
   9562   9565     1
   9562   9563     1
   9562   9564     1
   9563   9566     1
   9563   9567     1
   9563   9630     1
   9564   9566     1
   9564   9567     1
   9564   9630     1
   9565   9578     1
   9565   9579     1
   9565   9571     1
   9565   9572     1
   9566   9568     1
   9566   9570     1
   9567   9575     1
   9567   9576     1
   9568   9573     1
   9568   9571     1
   9568   9572     1
   9568   9630     1
   9569   9595     1
   9569   9630     1
   9570   9573     1
   9570   9571     1
   9570   9572     1
   9570   9630     1
   9571   9574     1
   9571   9605     1
   9572   9574     1
   9572   9605     1
   9573   9588     1
   9574   9595     1
   9575   9580     1
   9575   9578     1
   9575   9579     1
   9575   9630     1
   9576   9580     1
   9576   9578     1
   9576   9579     1
   9576   9630     1
   9577   9619     1
   9577   9630     1
   9578   9581     1
   9578   9629     1
   9579   9581     1
   9579   9629     1
   9580   9612     1
   9581   9619     1
   9582   9589     1
   9582   9604     1
   9582   9599     1
   9582   9590     1
   9583   9588     1
   9583   9594     1
   9583   9596     1
   9583   9597     1
   9584   9585     1
   9584   9603     1
   9584   9602     1
   9584   9598     1
   9584   9596     1
   9584   9597     1
   9584   9587     1
   9585   9590     1
   9585   9595     1
   9585   9604     1
   9586   9601     1
   9586   9594     1
   9586   9602     1
   9587   9595     1
   9587   9589     1
   9588   9591     1
   9588   9600     1
   9588   9590     1
   9588   9595     1
   9588   9592     1
   9588   9589     1
   9589   9605     1
   9589   9594     1
   9589   9603     1
   9589   9602     1
   9590   9601     1
   9590   9605     1
   9592   9602     1
   9593   9602     1
   9596   9599     1
   9596   9600     1
   9597   9599     1
   9597   9600     1
   9600   9601     1
   9600   9602     1
   9602   9604     1
   9606   9613     1
   9606   9628     1
   9606   9623     1
   9606   9614     1
   9607   9612     1
   9607   9618     1
   9607   9620     1
   9607   9621     1
   9608   9609     1
   9608   9627     1
   9608   9626     1
   9608   9622     1
   9608   9620     1
   9608   9621     1
   9608   9611     1
   9609   9614     1
   9609   9619     1
   9609   9628     1
   9610   9625     1
   9610   9618     1
   9610   9626     1
   9611   9619     1
   9611   9613     1
   9612   9615     1
   9612   9624     1
   9612   9614     1
   9612   9619     1
   9612   9616     1
   9612   9613     1
   9613   9629     1
   9613   9618     1
   9613   9627     1
   9613   9626     1
   9614   9625     1
   9614   9629     1
   9616   9626     1
   9617   9626     1
   9620   9623     1
   9620   9624     1
   9621   9623     1
   9621   9624     1
   9624   9625     1
   9624   9626     1
   9626   9628     1
   9631   9637     1
   9631   9638     1
   9632   9635     1
   9632   9634     1
   9632   9636     1
   9633   9704     1
   9634   9639     1
   9634   9637     1
   9634   9638     1
   9635   9649     1
   9635   9650     1
   9635   9642     1
   9635   9644     1
   9636   9639     1
   9636   9637     1
   9636   9638     1
   9637   9640     1
   9637   9641     1
   9637   9704     1
   9638   9640     1
   9638   9641     1
   9638   9704     1
   9639   9652     1
   9639   9653     1
   9639   9645     1
   9639   9646     1
   9640   9642     1
   9640   9644     1
   9641   9649     1
   9641   9650     1
   9642   9704     1
   9642   9647     1
   9642   9645     1
   9642   9646     1
   9643   9704     1
   9643   9669     1
   9644   9704     1
   9644   9647     1
   9644   9645     1
   9644   9646     1
   9645   9648     1
   9645   9679     1
   9646   9648     1
   9646   9679     1
   9647   9662     1
   9648   9669     1
   9649   9704     1
   9649   9654     1
   9649   9652     1
   9649   9653     1
   9650   9704     1
   9650   9654     1
   9650   9652     1
   9650   9653     1
   9651   9704     1
   9651   9693     1
   9652   9655     1
   9652   9703     1
   9653   9655     1
   9653   9703     1
   9654   9686     1
   9655   9693     1
   9656   9663     1
   9656   9678     1
   9656   9673     1
   9656   9664     1
   9657   9670     1
   9657   9671     1
   9657   9662     1
   9657   9668     1
   9658   9659     1
   9658   9677     1
   9658   9676     1
   9658   9672     1
   9658   9670     1
   9658   9671     1
   9658   9661     1
   9659   9678     1
   9659   9664     1
   9659   9669     1
   9660   9676     1
   9660   9668     1
   9660   9675     1
   9661   9663     1
   9661   9669     1
   9662   9666     1
   9662   9663     1
   9662   9665     1
   9662   9674     1
   9662   9664     1
   9662   9669     1
   9663   9677     1
   9663   9676     1
   9663   9679     1
   9663   9668     1
   9664   9679     1
   9664   9675     1
   9666   9676     1
   9667   9676     1
   9670   9674     1
   9670   9673     1
   9671   9674     1
   9671   9673     1
   9674   9676     1
   9674   9675     1
   9676   9678     1
   9680   9687     1
   9680   9702     1
   9680   9697     1
   9680   9688     1
   9681   9694     1
   9681   9695     1
   9681   9686     1
   9681   9692     1
   9682   9683     1
   9682   9701     1
   9682   9700     1
   9682   9696     1
   9682   9694     1
   9682   9695     1
   9682   9685     1
   9683   9702     1
   9683   9688     1
   9683   9693     1
   9684   9700     1
   9684   9692     1
   9684   9699     1
   9685   9687     1
   9685   9693     1
   9686   9690     1
   9686   9687     1
   9686   9689     1
   9686   9698     1
   9686   9688     1
   9686   9693     1
   9687   9701     1
   9687   9700     1
   9687   9703     1
   9687   9692     1
   9688   9703     1
   9688   9699     1
   9690   9700     1
   9691   9700     1
   9694   9698     1
   9694   9697     1
   9695   9698     1
   9695   9697     1
   9698   9700     1
   9698   9699     1
   9700   9702     1
   9705   9711     1
   9705   9712     1
   9706   9709     1
   9706   9708     1
   9706   9710     1
   9707   9778     1
   9708   9713     1
   9708   9711     1
   9708   9712     1
   9709   9723     1
   9709   9724     1
   9709   9716     1
   9709   9718     1
   9710   9713     1
   9710   9711     1
   9710   9712     1
   9711   9714     1
   9711   9715     1
   9711   9778     1
   9712   9714     1
   9712   9715     1
   9712   9778     1
   9713   9726     1
   9713   9727     1
   9713   9719     1
   9713   9720     1
   9714   9716     1
   9714   9718     1
   9715   9723     1
   9715   9724     1
   9716   9721     1
   9716   9719     1
   9716   9720     1
   9716   9778     1
   9717   9743     1
   9717   9778     1
   9718   9721     1
   9718   9719     1
   9718   9720     1
   9718   9778     1
   9719   9722     1
   9719   9753     1
   9720   9722     1
   9720   9753     1
   9721   9736     1
   9722   9743     1
   9723   9728     1
   9723   9726     1
   9723   9727     1
   9723   9778     1
   9724   9728     1
   9724   9726     1
   9724   9727     1
   9724   9778     1
   9725   9767     1
   9725   9778     1
   9726   9729     1
   9726   9777     1
   9727   9729     1
   9727   9777     1
   9728   9760     1
   9729   9767     1
   9730   9737     1
   9730   9752     1
   9730   9747     1
   9730   9738     1
   9731   9736     1
   9731   9742     1
   9731   9744     1
   9731   9745     1
   9732   9733     1
   9732   9751     1
   9732   9750     1
   9732   9746     1
   9732   9744     1
   9732   9745     1
   9732   9735     1
   9733   9738     1
   9733   9743     1
   9733   9752     1
   9734   9749     1
   9734   9742     1
   9734   9750     1
   9735   9743     1
   9735   9737     1
   9736   9739     1
   9736   9748     1
   9736   9738     1
   9736   9743     1
   9736   9740     1
   9736   9737     1
   9737   9753     1
   9737   9742     1
   9737   9751     1
   9737   9750     1
   9738   9749     1
   9738   9753     1
   9740   9750     1
   9741   9750     1
   9744   9747     1
   9744   9748     1
   9745   9747     1
   9745   9748     1
   9748   9749     1
   9748   9750     1
   9750   9752     1
   9754   9761     1
   9754   9776     1
   9754   9771     1
   9754   9762     1
   9755   9760     1
   9755   9766     1
   9755   9768     1
   9755   9769     1
   9756   9757     1
   9756   9775     1
   9756   9774     1
   9756   9770     1
   9756   9768     1
   9756   9769     1
   9756   9759     1
   9757   9762     1
   9757   9767     1
   9757   9776     1
   9758   9773     1
   9758   9766     1
   9758   9774     1
   9759   9767     1
   9759   9761     1
   9760   9763     1
   9760   9772     1
   9760   9762     1
   9760   9767     1
   9760   9764     1
   9760   9761     1
   9761   9777     1
   9761   9766     1
   9761   9775     1
   9761   9774     1
   9762   9773     1
   9762   9777     1
   9764   9774     1
   9765   9774     1
   9768   9771     1
   9768   9772     1
   9769   9771     1
   9769   9772     1
   9772   9773     1
   9772   9774     1
   9774   9776     1
   9779   9785     1
   9779   9786     1
   9780   9783     1
   9780   9782     1
   9780   9784     1
   9781   9852     1
   9782   9787     1
   9782   9785     1
   9782   9786     1
   9783   9797     1
   9783   9798     1
   9783   9790     1
   9783   9792     1
   9784   9787     1
   9784   9785     1
   9784   9786     1
   9785   9788     1
   9785   9789     1
   9785   9852     1
   9786   9788     1
   9786   9789     1
   9786   9852     1
   9787   9800     1
   9787   9801     1
   9787   9793     1
   9787   9794     1
   9788   9790     1
   9788   9792     1
   9789   9797     1
   9789   9798     1
   9790   9852     1
   9790   9795     1
   9790   9793     1
   9790   9794     1
   9791   9852     1
   9791   9817     1
   9792   9852     1
   9792   9795     1
   9792   9793     1
   9792   9794     1
   9793   9796     1
   9793   9827     1
   9794   9796     1
   9794   9827     1
   9795   9810     1
   9796   9817     1
   9797   9852     1
   9797   9802     1
   9797   9800     1
   9797   9801     1
   9798   9852     1
   9798   9802     1
   9798   9800     1
   9798   9801     1
   9799   9852     1
   9799   9841     1
   9800   9803     1
   9800   9851     1
   9801   9803     1
   9801   9851     1
   9802   9834     1
   9803   9841     1
   9804   9811     1
   9804   9826     1
   9804   9821     1
   9804   9812     1
   9805   9818     1
   9805   9819     1
   9805   9810     1
   9805   9816     1
   9806   9807     1
   9806   9825     1
   9806   9824     1
   9806   9820     1
   9806   9818     1
   9806   9819     1
   9806   9809     1
   9807   9826     1
   9807   9812     1
   9807   9817     1
   9808   9824     1
   9808   9816     1
   9808   9823     1
   9809   9811     1
   9809   9817     1
   9810   9814     1
   9810   9811     1
   9810   9813     1
   9810   9822     1
   9810   9812     1
   9810   9817     1
   9811   9825     1
   9811   9824     1
   9811   9827     1
   9811   9816     1
   9812   9827     1
   9812   9823     1
   9814   9824     1
   9815   9824     1
   9818   9822     1
   9818   9821     1
   9819   9822     1
   9819   9821     1
   9822   9824     1
   9822   9823     1
   9824   9826     1
   9828   9835     1
   9828   9850     1
   9828   9845     1
   9828   9836     1
   9829   9842     1
   9829   9843     1
   9829   9834     1
   9829   9840     1
   9830   9831     1
   9830   9849     1
   9830   9848     1
   9830   9844     1
   9830   9842     1
   9830   9843     1
   9830   9833     1
   9831   9850     1
   9831   9836     1
   9831   9841     1
   9832   9848     1
   9832   9840     1
   9832   9847     1
   9833   9835     1
   9833   9841     1
   9834   9838     1
   9834   9835     1
   9834   9837     1
   9834   9846     1
   9834   9836     1
   9834   9841     1
   9835   9849     1
   9835   9848     1
   9835   9851     1
   9835   9840     1
   9836   9851     1
   9836   9847     1
   9838   9848     1
   9839   9848     1
   9842   9846     1
   9842   9845     1
   9843   9846     1
   9843   9845     1
   9846   9848     1
   9846   9847     1
   9848   9850     1
   9853   9859     1
   9853   9860     1
   9854   9857     1
   9854   9856     1
   9854   9858     1
   9855   9926     1
   9856   9861     1
   9856   9859     1
   9856   9860     1
   9857   9871     1
   9857   9872     1
   9857   9864     1
   9857   9866     1
   9858   9861     1
   9858   9859     1
   9858   9860     1
   9859   9862     1
   9859   9863     1
   9859   9926     1
   9860   9862     1
   9860   9863     1
   9860   9926     1
   9861   9874     1
   9861   9875     1
   9861   9867     1
   9861   9868     1
   9862   9864     1
   9862   9866     1
   9863   9871     1
   9863   9872     1
   9864   9869     1
   9864   9867     1
   9864   9868     1
   9864   9926     1
   9865   9891     1
   9865   9926     1
   9866   9869     1
   9866   9867     1
   9866   9868     1
   9866   9926     1
   9867   9870     1
   9867   9901     1
   9868   9870     1
   9868   9901     1
   9869   9884     1
   9870   9891     1
   9871   9876     1
   9871   9874     1
   9871   9875     1
   9871   9926     1
   9872   9876     1
   9872   9874     1
   9872   9875     1
   9872   9926     1
   9873   9915     1
   9873   9926     1
   9874   9877     1
   9874   9925     1
   9875   9877     1
   9875   9925     1
   9876   9908     1
   9877   9915     1
   9878   9885     1
   9878   9900     1
   9878   9895     1
   9878   9886     1
   9879   9884     1
   9879   9890     1
   9879   9892     1
   9879   9893     1
   9880   9881     1
   9880   9899     1
   9880   9898     1
   9880   9894     1
   9880   9892     1
   9880   9893     1
   9880   9883     1
   9881   9886     1
   9881   9891     1
   9881   9900     1
   9882   9897     1
   9882   9890     1
   9882   9898     1
   9883   9891     1
   9883   9885     1
   9884   9887     1
   9884   9896     1
   9884   9886     1
   9884   9891     1
   9884   9888     1
   9884   9885     1
   9885   9901     1
   9885   9890     1
   9885   9899     1
   9885   9898     1
   9886   9897     1
   9886   9901     1
   9888   9898     1
   9889   9898     1
   9892   9895     1
   9892   9896     1
   9893   9895     1
   9893   9896     1
   9896   9897     1
   9896   9898     1
   9898   9900     1
   9902   9909     1
   9902   9924     1
   9902   9919     1
   9902   9910     1
   9903   9908     1
   9903   9914     1
   9903   9916     1
   9903   9917     1
   9904   9905     1
   9904   9923     1
   9904   9922     1
   9904   9918     1
   9904   9916     1
   9904   9917     1
   9904   9907     1
   9905   9910     1
   9905   9915     1
   9905   9924     1
   9906   9921     1
   9906   9914     1
   9906   9922     1
   9907   9915     1
   9907   9909     1
   9908   9911     1
   9908   9920     1
   9908   9910     1
   9908   9915     1
   9908   9912     1
   9908   9909     1
   9909   9925     1
   9909   9914     1
   9909   9923     1
   9909   9922     1
   9910   9921     1
   9910   9925     1
   9912   9922     1
   9913   9922     1
   9916   9919     1
   9916   9920     1
   9917   9919     1
   9917   9920     1
   9920   9921     1
   9920   9922     1
   9922   9924     1
   9927   9933     1
   9927   9934     1
   9928   9931     1
   9928   9930     1
   9928   9932     1
   9929  10000     1
   9930   9935     1
   9930   9933     1
   9930   9934     1
   9931   9945     1
   9931   9946     1
   9931   9938     1
   9931   9940     1
   9932   9935     1
   9932   9933     1
   9932   9934     1
   9933   9936     1
   9933   9937     1
   9933  10000     1
   9934   9936     1
   9934   9937     1
   9934  10000     1
   9935   9948     1
   9935   9949     1
   9935   9941     1
   9935   9942     1
   9936   9938     1
   9936   9940     1
   9937   9945     1
   9937   9946     1
   9938  10000     1
   9938   9943     1
   9938   9941     1
   9938   9942     1
   9939  10000     1
   9939   9965     1
   9940  10000     1
   9940   9943     1
   9940   9941     1
   9940   9942     1
   9941   9944     1
   9941   9975     1
   9942   9944     1
   9942   9975     1
   9943   9958     1
   9944   9965     1
   9945  10000     1
   9945   9950     1
   9945   9948     1
   9945   9949     1
   9946  10000     1
   9946   9950     1
   9946   9948     1
   9946   9949     1
   9947  10000     1
   9947   9989     1
   9948   9951     1
   9948   9999     1
   9949   9951     1
   9949   9999     1
   9950   9982     1
   9951   9989     1
   9952   9959     1
   9952   9974     1
   9952   9969     1
   9952   9960     1
   9953   9966     1
   9953   9967     1
   9953   9958     1
   9953   9964     1
   9954   9955     1
   9954   9973     1
   9954   9972     1
   9954   9968     1
   9954   9966     1
   9954   9967     1
   9954   9957     1
   9955   9974     1
   9955   9960     1
   9955   9965     1
   9956   9972     1
   9956   9964     1
   9956   9971     1
   9957   9959     1
   9957   9965     1
   9958   9962     1
   9958   9959     1
   9958   9961     1
   9958   9970     1
   9958   9960     1
   9958   9965     1
   9959   9973     1
   9959   9972     1
   9959   9975     1
   9959   9964     1
   9960   9975     1
   9960   9971     1
   9962   9972     1
   9963   9972     1
   9966   9970     1
   9966   9969     1
   9967   9970     1
   9967   9969     1
   9970   9972     1
   9970   9971     1
   9972   9974     1
   9976   9983     1
   9976   9998     1
   9976   9993     1
   9976   9984     1
   9977   9990     1
   9977   9991     1
   9977   9982     1
   9977   9988     1
   9978   9979     1
   9978   9997     1
   9978   9996     1
   9978   9992     1
   9978   9990     1
   9978   9991     1
   9978   9981     1
   9979   9998     1
   9979   9984     1
   9979   9989     1
   9980   9996     1
   9980   9988     1
   9980   9995     1
   9981   9983     1
   9981   9989     1
   9982   9986     1
   9982   9983     1
   9982   9985     1
   9982   9994     1
   9982   9984     1
   9982   9989     1
   9983   9997     1
   9983   9996     1
   9983   9999     1
   9983   9988     1
   9984   9999     1
   9984   9995     1
   9986   9996     1
   9987   9996     1
   9990   9994     1
   9990   9993     1
   9991   9994     1
   9991   9993     1
   9994   9996     1
   9994   9995     1
   9996   9998     1
  10001  10007     1
  10001  10008     1
  10002  10005     1
  10002  10004     1
  10002  10006     1
  10003  10074     1
  10004  10009     1
  10004  10007     1
  10004  10008     1
  10005  10019     1
  10005  10020     1
  10005  10012     1
  10005  10014     1
  10006  10009     1
  10006  10007     1
  10006  10008     1
  10007  10010     1
  10007  10011     1
  10007  10074     1
  10008  10010     1
  10008  10011     1
  10008  10074     1
  10009  10022     1
  10009  10023     1
  10009  10015     1
  10009  10016     1
  10010  10012     1
  10010  10014     1
  10011  10019     1
  10011  10020     1
  10012  10017     1
  10012  10015     1
  10012  10016     1
  10012  10074     1
  10013  10039     1
  10013  10074     1
  10014  10017     1
  10014  10015     1
  10014  10016     1
  10014  10074     1
  10015  10018     1
  10015  10049     1
  10016  10018     1
  10016  10049     1
  10017  10032     1
  10018  10039     1
  10019  10024     1
  10019  10022     1
  10019  10023     1
  10019  10074     1
  10020  10024     1
  10020  10022     1
  10020  10023     1
  10020  10074     1
  10021  10063     1
  10021  10074     1
  10022  10025     1
  10022  10073     1
  10023  10025     1
  10023  10073     1
  10024  10056     1
  10025  10063     1
  10026  10033     1
  10026  10048     1
  10026  10043     1
  10026  10034     1
  10027  10032     1
  10027  10038     1
  10027  10040     1
  10027  10041     1
  10028  10029     1
  10028  10047     1
  10028  10046     1
  10028  10042     1
  10028  10040     1
  10028  10041     1
  10028  10031     1
  10029  10034     1
  10029  10039     1
  10029  10048     1
  10030  10045     1
  10030  10038     1
  10030  10046     1
  10031  10039     1
  10031  10033     1
  10032  10035     1
  10032  10044     1
  10032  10034     1
  10032  10039     1
  10032  10036     1
  10032  10033     1
  10033  10049     1
  10033  10038     1
  10033  10047     1
  10033  10046     1
  10034  10045     1
  10034  10049     1
  10036  10046     1
  10037  10046     1
  10040  10043     1
  10040  10044     1
  10041  10043     1
  10041  10044     1
  10044  10045     1
  10044  10046     1
  10046  10048     1
  10050  10057     1
  10050  10072     1
  10050  10067     1
  10050  10058     1
  10051  10056     1
  10051  10062     1
  10051  10064     1
  10051  10065     1
  10052  10053     1
  10052  10071     1
  10052  10070     1
  10052  10066     1
  10052  10064     1
  10052  10065     1
  10052  10055     1
  10053  10058     1
  10053  10063     1
  10053  10072     1
  10054  10069     1
  10054  10062     1
  10054  10070     1
  10055  10063     1
  10055  10057     1
  10056  10059     1
  10056  10068     1
  10056  10058     1
  10056  10063     1
  10056  10060     1
  10056  10057     1
  10057  10073     1
  10057  10062     1
  10057  10071     1
  10057  10070     1
  10058  10069     1
  10058  10073     1
  10060  10070     1
  10061  10070     1
  10064  10067     1
  10064  10068     1
  10065  10067     1
  10065  10068     1
  10068  10069     1
  10068  10070     1
  10070  10072     1
  10075  10081     1
  10075  10082     1
  10076  10079     1
  10076  10078     1
  10076  10080     1
  10077  10148     1
  10078  10083     1
  10078  10081     1
  10078  10082     1
  10079  10093     1
  10079  10094     1
  10079  10086     1
  10079  10088     1
  10080  10083     1
  10080  10081     1
  10080  10082     1
  10081  10084     1
  10081  10085     1
  10081  10148     1
  10082  10084     1
  10082  10085     1
  10082  10148     1
  10083  10096     1
  10083  10097     1
  10083  10089     1
  10083  10090     1
  10084  10086     1
  10084  10088     1
  10085  10093     1
  10085  10094     1
  10086  10148     1
  10086  10091     1
  10086  10089     1
  10086  10090     1
  10087  10148     1
  10087  10113     1
  10088  10148     1
  10088  10091     1
  10088  10089     1
  10088  10090     1
  10089  10092     1
  10089  10123     1
  10090  10092     1
  10090  10123     1
  10091  10106     1
  10092  10113     1
  10093  10148     1
  10093  10098     1
  10093  10096     1
  10093  10097     1
  10094  10148     1
  10094  10098     1
  10094  10096     1
  10094  10097     1
  10095  10148     1
  10095  10137     1
  10096  10099     1
  10096  10147     1
  10097  10099     1
  10097  10147     1
  10098  10130     1
  10099  10137     1
  10100  10107     1
  10100  10122     1
  10100  10117     1
  10100  10108     1
  10101  10114     1
  10101  10115     1
  10101  10106     1
  10101  10112     1
  10102  10103     1
  10102  10121     1
  10102  10120     1
  10102  10116     1
  10102  10114     1
  10102  10115     1
  10102  10105     1
  10103  10122     1
  10103  10108     1
  10103  10113     1
  10104  10120     1
  10104  10112     1
  10104  10119     1
  10105  10107     1
  10105  10113     1
  10106  10110     1
  10106  10107     1
  10106  10109     1
  10106  10118     1
  10106  10108     1
  10106  10113     1
  10107  10121     1
  10107  10120     1
  10107  10123     1
  10107  10112     1
  10108  10123     1
  10108  10119     1
  10110  10120     1
  10111  10120     1
  10114  10118     1
  10114  10117     1
  10115  10118     1
  10115  10117     1
  10118  10120     1
  10118  10119     1
  10120  10122     1
  10124  10131     1
  10124  10146     1
  10124  10141     1
  10124  10132     1
  10125  10138     1
  10125  10139     1
  10125  10130     1
  10125  10136     1
  10126  10127     1
  10126  10145     1
  10126  10144     1
  10126  10140     1
  10126  10138     1
  10126  10139     1
  10126  10129     1
  10127  10146     1
  10127  10132     1
  10127  10137     1
  10128  10144     1
  10128  10136     1
  10128  10143     1
  10129  10131     1
  10129  10137     1
  10130  10134     1
  10130  10131     1
  10130  10133     1
  10130  10142     1
  10130  10132     1
  10130  10137     1
  10131  10145     1
  10131  10144     1
  10131  10147     1
  10131  10136     1
  10132  10147     1
  10132  10143     1
  10134  10144     1
  10135  10144     1
  10138  10142     1
  10138  10141     1
  10139  10142     1
  10139  10141     1
  10142  10144     1
  10142  10143     1
  10144  10146     1
  10149  10155     1
  10149  10156     1
  10150  10153     1
  10150  10152     1
  10150  10154     1
  10151  10222     1
  10152  10157     1
  10152  10155     1
  10152  10156     1
  10153  10167     1
  10153  10168     1
  10153  10160     1
  10153  10162     1
  10154  10157     1
  10154  10155     1
  10154  10156     1
  10155  10158     1
  10155  10159     1
  10155  10222     1
  10156  10158     1
  10156  10159     1
  10156  10222     1
  10157  10170     1
  10157  10171     1
  10157  10163     1
  10157  10164     1
  10158  10160     1
  10158  10162     1
  10159  10167     1
  10159  10168     1
  10160  10165     1
  10160  10163     1
  10160  10164     1
  10160  10222     1
  10161  10187     1
  10161  10222     1
  10162  10165     1
  10162  10163     1
  10162  10164     1
  10162  10222     1
  10163  10166     1
  10163  10197     1
  10164  10166     1
  10164  10197     1
  10165  10180     1
  10166  10187     1
  10167  10172     1
  10167  10170     1
  10167  10171     1
  10167  10222     1
  10168  10172     1
  10168  10170     1
  10168  10171     1
  10168  10222     1
  10169  10211     1
  10169  10222     1
  10170  10173     1
  10170  10221     1
  10171  10173     1
  10171  10221     1
  10172  10204     1
  10173  10211     1
  10174  10181     1
  10174  10196     1
  10174  10191     1
  10174  10182     1
  10175  10180     1
  10175  10186     1
  10175  10188     1
  10175  10189     1
  10176  10177     1
  10176  10195     1
  10176  10194     1
  10176  10190     1
  10176  10188     1
  10176  10189     1
  10176  10179     1
  10177  10182     1
  10177  10187     1
  10177  10196     1
  10178  10193     1
  10178  10186     1
  10178  10194     1
  10179  10187     1
  10179  10181     1
  10180  10183     1
  10180  10192     1
  10180  10182     1
  10180  10187     1
  10180  10184     1
  10180  10181     1
  10181  10197     1
  10181  10186     1
  10181  10195     1
  10181  10194     1
  10182  10193     1
  10182  10197     1
  10184  10194     1
  10185  10194     1
  10188  10191     1
  10188  10192     1
  10189  10191     1
  10189  10192     1
  10192  10193     1
  10192  10194     1
  10194  10196     1
  10198  10205     1
  10198  10220     1
  10198  10215     1
  10198  10206     1
  10199  10204     1
  10199  10210     1
  10199  10212     1
  10199  10213     1
  10200  10201     1
  10200  10219     1
  10200  10218     1
  10200  10214     1
  10200  10212     1
  10200  10213     1
  10200  10203     1
  10201  10206     1
  10201  10211     1
  10201  10220     1
  10202  10217     1
  10202  10210     1
  10202  10218     1
  10203  10211     1
  10203  10205     1
  10204  10207     1
  10204  10216     1
  10204  10206     1
  10204  10211     1
  10204  10208     1
  10204  10205     1
  10205  10221     1
  10205  10210     1
  10205  10219     1
  10205  10218     1
  10206  10217     1
  10206  10221     1
  10208  10218     1
  10209  10218     1
  10212  10215     1
  10212  10216     1
  10213  10215     1
  10213  10216     1
  10216  10217     1
  10216  10218     1
  10218  10220     1
  10223  10229     1
  10223  10230     1
  10224  10227     1
  10224  10226     1
  10224  10228     1
  10225  10296     1
  10226  10231     1
  10226  10229     1
  10226  10230     1
  10227  10241     1
  10227  10242     1
  10227  10234     1
  10227  10236     1
  10228  10231     1
  10228  10229     1
  10228  10230     1
  10229  10232     1
  10229  10233     1
  10229  10296     1
  10230  10232     1
  10230  10233     1
  10230  10296     1
  10231  10244     1
  10231  10245     1
  10231  10237     1
  10231  10238     1
  10232  10234     1
  10232  10236     1
  10233  10241     1
  10233  10242     1
  10234  10296     1
  10234  10239     1
  10234  10237     1
  10234  10238     1
  10235  10296     1
  10235  10261     1
  10236  10296     1
  10236  10239     1
  10236  10237     1
  10236  10238     1
  10237  10240     1
  10237  10271     1
  10238  10240     1
  10238  10271     1
  10239  10254     1
  10240  10261     1
  10241  10296     1
  10241  10246     1
  10241  10244     1
  10241  10245     1
  10242  10296     1
  10242  10246     1
  10242  10244     1
  10242  10245     1
  10243  10296     1
  10243  10285     1
  10244  10247     1
  10244  10295     1
  10245  10247     1
  10245  10295     1
  10246  10278     1
  10247  10285     1
  10248  10255     1
  10248  10270     1
  10248  10265     1
  10248  10256     1
  10249  10262     1
  10249  10263     1
  10249  10254     1
  10249  10260     1
  10250  10251     1
  10250  10269     1
  10250  10268     1
  10250  10264     1
  10250  10262     1
  10250  10263     1
  10250  10253     1
  10251  10270     1
  10251  10256     1
  10251  10261     1
  10252  10268     1
  10252  10260     1
  10252  10267     1
  10253  10255     1
  10253  10261     1
  10254  10258     1
  10254  10255     1
  10254  10257     1
  10254  10266     1
  10254  10256     1
  10254  10261     1
  10255  10269     1
  10255  10268     1
  10255  10271     1
  10255  10260     1
  10256  10271     1
  10256  10267     1
  10258  10268     1
  10259  10268     1
  10262  10266     1
  10262  10265     1
  10263  10266     1
  10263  10265     1
  10266  10268     1
  10266  10267     1
  10268  10270     1
  10272  10279     1
  10272  10294     1
  10272  10289     1
  10272  10280     1
  10273  10286     1
  10273  10287     1
  10273  10278     1
  10273  10284     1
  10274  10275     1
  10274  10293     1
  10274  10292     1
  10274  10288     1
  10274  10286     1
  10274  10287     1
  10274  10277     1
  10275  10294     1
  10275  10280     1
  10275  10285     1
  10276  10292     1
  10276  10284     1
  10276  10291     1
  10277  10279     1
  10277  10285     1
  10278  10282     1
  10278  10279     1
  10278  10281     1
  10278  10290     1
  10278  10280     1
  10278  10285     1
  10279  10293     1
  10279  10292     1
  10279  10295     1
  10279  10284     1
  10280  10295     1
  10280  10291     1
  10282  10292     1
  10283  10292     1
  10286  10290     1
  10286  10289     1
  10287  10290     1
  10287  10289     1
  10290  10292     1
  10290  10291     1
  10292  10294     1
  10297  10303     1
  10297  10304     1
  10298  10301     1
  10298  10300     1
  10298  10302     1
  10299  10370     1
  10300  10305     1
  10300  10303     1
  10300  10304     1
  10301  10315     1
  10301  10316     1
  10301  10308     1
  10301  10310     1
  10302  10305     1
  10302  10303     1
  10302  10304     1
  10303  10306     1
  10303  10307     1
  10303  10370     1
  10304  10306     1
  10304  10307     1
  10304  10370     1
  10305  10318     1
  10305  10319     1
  10305  10311     1
  10305  10312     1
  10306  10308     1
  10306  10310     1
  10307  10315     1
  10307  10316     1
  10308  10313     1
  10308  10311     1
  10308  10312     1
  10308  10370     1
  10309  10335     1
  10309  10370     1
  10310  10313     1
  10310  10311     1
  10310  10312     1
  10310  10370     1
  10311  10314     1
  10311  10345     1
  10312  10314     1
  10312  10345     1
  10313  10328     1
  10314  10335     1
  10315  10320     1
  10315  10318     1
  10315  10319     1
  10315  10370     1
  10316  10320     1
  10316  10318     1
  10316  10319     1
  10316  10370     1
  10317  10359     1
  10317  10370     1
  10318  10321     1
  10318  10369     1
  10319  10321     1
  10319  10369     1
  10320  10352     1
  10321  10359     1
  10322  10329     1
  10322  10344     1
  10322  10339     1
  10322  10330     1
  10323  10328     1
  10323  10334     1
  10323  10336     1
  10323  10337     1
  10324  10325     1
  10324  10343     1
  10324  10342     1
  10324  10338     1
  10324  10336     1
  10324  10337     1
  10324  10327     1
  10325  10330     1
  10325  10335     1
  10325  10344     1
  10326  10341     1
  10326  10334     1
  10326  10342     1
  10327  10335     1
  10327  10329     1
  10328  10331     1
  10328  10340     1
  10328  10330     1
  10328  10335     1
  10328  10332     1
  10328  10329     1
  10329  10345     1
  10329  10334     1
  10329  10343     1
  10329  10342     1
  10330  10341     1
  10330  10345     1
  10332  10342     1
  10333  10342     1
  10336  10339     1
  10336  10340     1
  10337  10339     1
  10337  10340     1
  10340  10341     1
  10340  10342     1
  10342  10344     1
  10346  10353     1
  10346  10368     1
  10346  10363     1
  10346  10354     1
  10347  10352     1
  10347  10358     1
  10347  10360     1
  10347  10361     1
  10348  10349     1
  10348  10367     1
  10348  10366     1
  10348  10362     1
  10348  10360     1
  10348  10361     1
  10348  10351     1
  10349  10354     1
  10349  10359     1
  10349  10368     1
  10350  10365     1
  10350  10358     1
  10350  10366     1
  10351  10359     1
  10351  10353     1
  10352  10355     1
  10352  10364     1
  10352  10354     1
  10352  10359     1
  10352  10356     1
  10352  10353     1
  10353  10369     1
  10353  10358     1
  10353  10367     1
  10353  10366     1
  10354  10365     1
  10354  10369     1
  10356  10366     1
  10357  10366     1
  10360  10363     1
  10360  10364     1
  10361  10363     1
  10361  10364     1
  10364  10365     1
  10364  10366     1
  10366  10368     1
  10371  10377     1
  10371  10378     1
  10372  10375     1
  10372  10374     1
  10372  10376     1
  10373  10444     1
  10374  10379     1
  10374  10377     1
  10374  10378     1
  10375  10389     1
  10375  10390     1
  10375  10382     1
  10375  10384     1
  10376  10379     1
  10376  10377     1
  10376  10378     1
  10377  10380     1
  10377  10381     1
  10377  10444     1
  10378  10380     1
  10378  10381     1
  10378  10444     1
  10379  10392     1
  10379  10393     1
  10379  10385     1
  10379  10386     1
  10380  10382     1
  10380  10384     1
  10381  10389     1
  10381  10390     1
  10382  10444     1
  10382  10387     1
  10382  10385     1
  10382  10386     1
  10383  10444     1
  10383  10409     1
  10384  10444     1
  10384  10387     1
  10384  10385     1
  10384  10386     1
  10385  10388     1
  10385  10419     1
  10386  10388     1
  10386  10419     1
  10387  10402     1
  10388  10409     1
  10389  10444     1
  10389  10394     1
  10389  10392     1
  10389  10393     1
  10390  10444     1
  10390  10394     1
  10390  10392     1
  10390  10393     1
  10391  10444     1
  10391  10433     1
  10392  10395     1
  10392  10443     1
  10393  10395     1
  10393  10443     1
  10394  10426     1
  10395  10433     1
  10396  10403     1
  10396  10418     1
  10396  10413     1
  10396  10404     1
  10397  10410     1
  10397  10411     1
  10397  10402     1
  10397  10408     1
  10398  10399     1
  10398  10417     1
  10398  10416     1
  10398  10412     1
  10398  10410     1
  10398  10411     1
  10398  10401     1
  10399  10418     1
  10399  10404     1
  10399  10409     1
  10400  10416     1
  10400  10408     1
  10400  10415     1
  10401  10403     1
  10401  10409     1
  10402  10406     1
  10402  10403     1
  10402  10405     1
  10402  10414     1
  10402  10404     1
  10402  10409     1
  10403  10417     1
  10403  10416     1
  10403  10419     1
  10403  10408     1
  10404  10419     1
  10404  10415     1
  10406  10416     1
  10407  10416     1
  10410  10414     1
  10410  10413     1
  10411  10414     1
  10411  10413     1
  10414  10416     1
  10414  10415     1
  10416  10418     1
  10420  10427     1
  10420  10442     1
  10420  10437     1
  10420  10428     1
  10421  10434     1
  10421  10435     1
  10421  10426     1
  10421  10432     1
  10422  10423     1
  10422  10441     1
  10422  10440     1
  10422  10436     1
  10422  10434     1
  10422  10435     1
  10422  10425     1
  10423  10442     1
  10423  10428     1
  10423  10433     1
  10424  10440     1
  10424  10432     1
  10424  10439     1
  10425  10427     1
  10425  10433     1
  10426  10430     1
  10426  10427     1
  10426  10429     1
  10426  10438     1
  10426  10428     1
  10426  10433     1
  10427  10441     1
  10427  10440     1
  10427  10443     1
  10427  10432     1
  10428  10443     1
  10428  10439     1
  10430  10440     1
  10431  10440     1
  10434  10438     1
  10434  10437     1
  10435  10438     1
  10435  10437     1
  10438  10440     1
  10438  10439     1
  10440  10442     1
  10445  10451     1
  10445  10452     1
  10446  10449     1
  10446  10448     1
  10446  10450     1
  10447  10518     1
  10448  10453     1
  10448  10451     1
  10448  10452     1
  10449  10463     1
  10449  10464     1
  10449  10456     1
  10449  10458     1
  10450  10453     1
  10450  10451     1
  10450  10452     1
  10451  10454     1
  10451  10455     1
  10451  10518     1
  10452  10454     1
  10452  10455     1
  10452  10518     1
  10453  10466     1
  10453  10467     1
  10453  10459     1
  10453  10460     1
  10454  10456     1
  10454  10458     1
  10455  10463     1
  10455  10464     1
  10456  10461     1
  10456  10459     1
  10456  10460     1
  10456  10518     1
  10457  10483     1
  10457  10518     1
  10458  10461     1
  10458  10459     1
  10458  10460     1
  10458  10518     1
  10459  10462     1
  10459  10493     1
  10460  10462     1
  10460  10493     1
  10461  10476     1
  10462  10483     1
  10463  10468     1
  10463  10466     1
  10463  10467     1
  10463  10518     1
  10464  10468     1
  10464  10466     1
  10464  10467     1
  10464  10518     1
  10465  10507     1
  10465  10518     1
  10466  10469     1
  10466  10517     1
  10467  10469     1
  10467  10517     1
  10468  10500     1
  10469  10507     1
  10470  10477     1
  10470  10492     1
  10470  10487     1
  10470  10478     1
  10471  10476     1
  10471  10482     1
  10471  10484     1
  10471  10485     1
  10472  10473     1
  10472  10491     1
  10472  10490     1
  10472  10486     1
  10472  10484     1
  10472  10485     1
  10472  10475     1
  10473  10478     1
  10473  10483     1
  10473  10492     1
  10474  10489     1
  10474  10482     1
  10474  10490     1
  10475  10483     1
  10475  10477     1
  10476  10479     1
  10476  10488     1
  10476  10478     1
  10476  10483     1
  10476  10480     1
  10476  10477     1
  10477  10493     1
  10477  10482     1
  10477  10491     1
  10477  10490     1
  10478  10489     1
  10478  10493     1
  10480  10490     1
  10481  10490     1
  10484  10487     1
  10484  10488     1
  10485  10487     1
  10485  10488     1
  10488  10489     1
  10488  10490     1
  10490  10492     1
  10494  10501     1
  10494  10516     1
  10494  10511     1
  10494  10502     1
  10495  10500     1
  10495  10506     1
  10495  10508     1
  10495  10509     1
  10496  10497     1
  10496  10515     1
  10496  10514     1
  10496  10510     1
  10496  10508     1
  10496  10509     1
  10496  10499     1
  10497  10502     1
  10497  10507     1
  10497  10516     1
  10498  10513     1
  10498  10506     1
  10498  10514     1
  10499  10507     1
  10499  10501     1
  10500  10503     1
  10500  10512     1
  10500  10502     1
  10500  10507     1
  10500  10504     1
  10500  10501     1
  10501  10517     1
  10501  10506     1
  10501  10515     1
  10501  10514     1
  10502  10513     1
  10502  10517     1
  10504  10514     1
  10505  10514     1
  10508  10511     1
  10508  10512     1
  10509  10511     1
  10509  10512     1
  10512  10513     1
  10512  10514     1
  10514  10516     1
  10519  10525     1
  10519  10526     1
  10520  10523     1
  10520  10522     1
  10520  10524     1
  10521  10592     1
  10522  10527     1
  10522  10525     1
  10522  10526     1
  10523  10537     1
  10523  10538     1
  10523  10530     1
  10523  10532     1
  10524  10527     1
  10524  10525     1
  10524  10526     1
  10525  10528     1
  10525  10529     1
  10525  10592     1
  10526  10528     1
  10526  10529     1
  10526  10592     1
  10527  10540     1
  10527  10541     1
  10527  10533     1
  10527  10534     1
  10528  10530     1
  10528  10532     1
  10529  10537     1
  10529  10538     1
  10530  10592     1
  10530  10535     1
  10530  10533     1
  10530  10534     1
  10531  10592     1
  10531  10557     1
  10532  10592     1
  10532  10535     1
  10532  10533     1
  10532  10534     1
  10533  10536     1
  10533  10567     1
  10534  10536     1
  10534  10567     1
  10535  10550     1
  10536  10557     1
  10537  10592     1
  10537  10542     1
  10537  10540     1
  10537  10541     1
  10538  10592     1
  10538  10542     1
  10538  10540     1
  10538  10541     1
  10539  10592     1
  10539  10581     1
  10540  10543     1
  10540  10591     1
  10541  10543     1
  10541  10591     1
  10542  10574     1
  10543  10581     1
  10544  10551     1
  10544  10566     1
  10544  10561     1
  10544  10552     1
  10545  10558     1
  10545  10559     1
  10545  10550     1
  10545  10556     1
  10546  10547     1
  10546  10565     1
  10546  10564     1
  10546  10560     1
  10546  10558     1
  10546  10559     1
  10546  10549     1
  10547  10566     1
  10547  10552     1
  10547  10557     1
  10548  10564     1
  10548  10556     1
  10548  10563     1
  10549  10551     1
  10549  10557     1
  10550  10554     1
  10550  10551     1
  10550  10553     1
  10550  10562     1
  10550  10552     1
  10550  10557     1
  10551  10565     1
  10551  10564     1
  10551  10567     1
  10551  10556     1
  10552  10567     1
  10552  10563     1
  10554  10564     1
  10555  10564     1
  10558  10562     1
  10558  10561     1
  10559  10562     1
  10559  10561     1
  10562  10564     1
  10562  10563     1
  10564  10566     1
  10568  10575     1
  10568  10590     1
  10568  10585     1
  10568  10576     1
  10569  10582     1
  10569  10583     1
  10569  10574     1
  10569  10580     1
  10570  10571     1
  10570  10589     1
  10570  10588     1
  10570  10584     1
  10570  10582     1
  10570  10583     1
  10570  10573     1
  10571  10590     1
  10571  10576     1
  10571  10581     1
  10572  10588     1
  10572  10580     1
  10572  10587     1
  10573  10575     1
  10573  10581     1
  10574  10578     1
  10574  10575     1
  10574  10577     1
  10574  10586     1
  10574  10576     1
  10574  10581     1
  10575  10589     1
  10575  10588     1
  10575  10591     1
  10575  10580     1
  10576  10591     1
  10576  10587     1
  10578  10588     1
  10579  10588     1
  10582  10586     1
  10582  10585     1
  10583  10586     1
  10583  10585     1
  10586  10588     1
  10586  10587     1
  10588  10590     1
  10593  10599     1
  10593  10600     1
  10594  10597     1
  10594  10596     1
  10594  10598     1
  10595  10666     1
  10596  10601     1
  10596  10599     1
  10596  10600     1
  10597  10611     1
  10597  10612     1
  10597  10604     1
  10597  10606     1
  10598  10601     1
  10598  10599     1
  10598  10600     1
  10599  10602     1
  10599  10603     1
  10599  10666     1
  10600  10602     1
  10600  10603     1
  10600  10666     1
  10601  10614     1
  10601  10615     1
  10601  10607     1
  10601  10608     1
  10602  10604     1
  10602  10606     1
  10603  10611     1
  10603  10612     1
  10604  10609     1
  10604  10607     1
  10604  10608     1
  10604  10666     1
  10605  10631     1
  10605  10666     1
  10606  10609     1
  10606  10607     1
  10606  10608     1
  10606  10666     1
  10607  10610     1
  10607  10641     1
  10608  10610     1
  10608  10641     1
  10609  10624     1
  10610  10631     1
  10611  10616     1
  10611  10614     1
  10611  10615     1
  10611  10666     1
  10612  10616     1
  10612  10614     1
  10612  10615     1
  10612  10666     1
  10613  10655     1
  10613  10666     1
  10614  10617     1
  10614  10665     1
  10615  10617     1
  10615  10665     1
  10616  10648     1
  10617  10655     1
  10618  10625     1
  10618  10640     1
  10618  10635     1
  10618  10626     1
  10619  10624     1
  10619  10630     1
  10619  10632     1
  10619  10633     1
  10620  10621     1
  10620  10639     1
  10620  10638     1
  10620  10634     1
  10620  10632     1
  10620  10633     1
  10620  10623     1
  10621  10626     1
  10621  10631     1
  10621  10640     1
  10622  10637     1
  10622  10630     1
  10622  10638     1
  10623  10631     1
  10623  10625     1
  10624  10627     1
  10624  10636     1
  10624  10626     1
  10624  10631     1
  10624  10628     1
  10624  10625     1
  10625  10641     1
  10625  10630     1
  10625  10639     1
  10625  10638     1
  10626  10637     1
  10626  10641     1
  10628  10638     1
  10629  10638     1
  10632  10635     1
  10632  10636     1
  10633  10635     1
  10633  10636     1
  10636  10637     1
  10636  10638     1
  10638  10640     1
  10642  10649     1
  10642  10664     1
  10642  10659     1
  10642  10650     1
  10643  10648     1
  10643  10654     1
  10643  10656     1
  10643  10657     1
  10644  10645     1
  10644  10663     1
  10644  10662     1
  10644  10658     1
  10644  10656     1
  10644  10657     1
  10644  10647     1
  10645  10650     1
  10645  10655     1
  10645  10664     1
  10646  10661     1
  10646  10654     1
  10646  10662     1
  10647  10655     1
  10647  10649     1
  10648  10651     1
  10648  10660     1
  10648  10650     1
  10648  10655     1
  10648  10652     1
  10648  10649     1
  10649  10665     1
  10649  10654     1
  10649  10663     1
  10649  10662     1
  10650  10661     1
  10650  10665     1
  10652  10662     1
  10653  10662     1
  10656  10659     1
  10656  10660     1
  10657  10659     1
  10657  10660     1
  10660  10661     1
  10660  10662     1
  10662  10664     1
  10667  10673     1
  10667  10674     1
  10668  10671     1
  10668  10670     1
  10668  10672     1
  10669  10740     1
  10670  10675     1
  10670  10673     1
  10670  10674     1
  10671  10685     1
  10671  10686     1
  10671  10678     1
  10671  10680     1
  10672  10675     1
  10672  10673     1
  10672  10674     1
  10673  10676     1
  10673  10677     1
  10673  10740     1
  10674  10676     1
  10674  10677     1
  10674  10740     1
  10675  10688     1
  10675  10689     1
  10675  10681     1
  10675  10682     1
  10676  10678     1
  10676  10680     1
  10677  10685     1
  10677  10686     1
  10678  10740     1
  10678  10683     1
  10678  10681     1
  10678  10682     1
  10679  10740     1
  10679  10705     1
  10680  10740     1
  10680  10683     1
  10680  10681     1
  10680  10682     1
  10681  10684     1
  10681  10715     1
  10682  10684     1
  10682  10715     1
  10683  10698     1
  10684  10705     1
  10685  10740     1
  10685  10690     1
  10685  10688     1
  10685  10689     1
  10686  10740     1
  10686  10690     1
  10686  10688     1
  10686  10689     1
  10687  10740     1
  10687  10729     1
  10688  10691     1
  10688  10739     1
  10689  10691     1
  10689  10739     1
  10690  10722     1
  10691  10729     1
  10692  10699     1
  10692  10714     1
  10692  10709     1
  10692  10700     1
  10693  10706     1
  10693  10707     1
  10693  10698     1
  10693  10704     1
  10694  10695     1
  10694  10713     1
  10694  10712     1
  10694  10708     1
  10694  10706     1
  10694  10707     1
  10694  10697     1
  10695  10714     1
  10695  10700     1
  10695  10705     1
  10696  10712     1
  10696  10704     1
  10696  10711     1
  10697  10699     1
  10697  10705     1
  10698  10702     1
  10698  10699     1
  10698  10701     1
  10698  10710     1
  10698  10700     1
  10698  10705     1
  10699  10713     1
  10699  10712     1
  10699  10715     1
  10699  10704     1
  10700  10715     1
  10700  10711     1
  10702  10712     1
  10703  10712     1
  10706  10710     1
  10706  10709     1
  10707  10710     1
  10707  10709     1
  10710  10712     1
  10710  10711     1
  10712  10714     1
  10716  10723     1
  10716  10738     1
  10716  10733     1
  10716  10724     1
  10717  10730     1
  10717  10731     1
  10717  10722     1
  10717  10728     1
  10718  10719     1
  10718  10737     1
  10718  10736     1
  10718  10732     1
  10718  10730     1
  10718  10731     1
  10718  10721     1
  10719  10738     1
  10719  10724     1
  10719  10729     1
  10720  10736     1
  10720  10728     1
  10720  10735     1
  10721  10723     1
  10721  10729     1
  10722  10726     1
  10722  10723     1
  10722  10725     1
  10722  10734     1
  10722  10724     1
  10722  10729     1
  10723  10737     1
  10723  10736     1
  10723  10739     1
  10723  10728     1
  10724  10739     1
  10724  10735     1
  10726  10736     1
  10727  10736     1
  10730  10734     1
  10730  10733     1
  10731  10734     1
  10731  10733     1
  10734  10736     1
  10734  10735     1
  10736  10738     1
  10741  10747     1
  10741  10748     1
  10742  10745     1
  10742  10744     1
  10742  10746     1
  10743  10814     1
  10744  10749     1
  10744  10747     1
  10744  10748     1
  10745  10759     1
  10745  10760     1
  10745  10752     1
  10745  10754     1
  10746  10749     1
  10746  10747     1
  10746  10748     1
  10747  10750     1
  10747  10751     1
  10747  10814     1
  10748  10750     1
  10748  10751     1
  10748  10814     1
  10749  10762     1
  10749  10763     1
  10749  10755     1
  10749  10756     1
  10750  10752     1
  10750  10754     1
  10751  10759     1
  10751  10760     1
  10752  10757     1
  10752  10755     1
  10752  10756     1
  10752  10814     1
  10753  10779     1
  10753  10814     1
  10754  10757     1
  10754  10755     1
  10754  10756     1
  10754  10814     1
  10755  10758     1
  10755  10789     1
  10756  10758     1
  10756  10789     1
  10757  10772     1
  10758  10779     1
  10759  10764     1
  10759  10762     1
  10759  10763     1
  10759  10814     1
  10760  10764     1
  10760  10762     1
  10760  10763     1
  10760  10814     1
  10761  10803     1
  10761  10814     1
  10762  10765     1
  10762  10813     1
  10763  10765     1
  10763  10813     1
  10764  10796     1
  10765  10803     1
  10766  10773     1
  10766  10788     1
  10766  10783     1
  10766  10774     1
  10767  10772     1
  10767  10778     1
  10767  10780     1
  10767  10781     1
  10768  10769     1
  10768  10787     1
  10768  10786     1
  10768  10782     1
  10768  10780     1
  10768  10781     1
  10768  10771     1
  10769  10774     1
  10769  10779     1
  10769  10788     1
  10770  10785     1
  10770  10778     1
  10770  10786     1
  10771  10779     1
  10771  10773     1
  10772  10775     1
  10772  10784     1
  10772  10774     1
  10772  10779     1
  10772  10776     1
  10772  10773     1
  10773  10789     1
  10773  10778     1
  10773  10787     1
  10773  10786     1
  10774  10785     1
  10774  10789     1
  10776  10786     1
  10777  10786     1
  10780  10783     1
  10780  10784     1
  10781  10783     1
  10781  10784     1
  10784  10785     1
  10784  10786     1
  10786  10788     1
  10790  10797     1
  10790  10812     1
  10790  10807     1
  10790  10798     1
  10791  10796     1
  10791  10802     1
  10791  10804     1
  10791  10805     1
  10792  10793     1
  10792  10811     1
  10792  10810     1
  10792  10806     1
  10792  10804     1
  10792  10805     1
  10792  10795     1
  10793  10798     1
  10793  10803     1
  10793  10812     1
  10794  10809     1
  10794  10802     1
  10794  10810     1
  10795  10803     1
  10795  10797     1
  10796  10799     1
  10796  10808     1
  10796  10798     1
  10796  10803     1
  10796  10800     1
  10796  10797     1
  10797  10813     1
  10797  10802     1
  10797  10811     1
  10797  10810     1
  10798  10809     1
  10798  10813     1
  10800  10810     1
  10801  10810     1
  10804  10807     1
  10804  10808     1
  10805  10807     1
  10805  10808     1
  10808  10809     1
  10808  10810     1
  10810  10812     1
  10815  10821     1
  10815  10822     1
  10816  10819     1
  10816  10818     1
  10816  10820     1
  10817  10888     1
  10818  10823     1
  10818  10821     1
  10818  10822     1
  10819  10833     1
  10819  10834     1
  10819  10826     1
  10819  10828     1
  10820  10823     1
  10820  10821     1
  10820  10822     1
  10821  10824     1
  10821  10825     1
  10821  10888     1
  10822  10824     1
  10822  10825     1
  10822  10888     1
  10823  10836     1
  10823  10837     1
  10823  10829     1
  10823  10830     1
  10824  10826     1
  10824  10828     1
  10825  10833     1
  10825  10834     1
  10826  10888     1
  10826  10831     1
  10826  10829     1
  10826  10830     1
  10827  10888     1
  10827  10853     1
  10828  10888     1
  10828  10831     1
  10828  10829     1
  10828  10830     1
  10829  10832     1
  10829  10863     1
  10830  10832     1
  10830  10863     1
  10831  10846     1
  10832  10853     1
  10833  10888     1
  10833  10838     1
  10833  10836     1
  10833  10837     1
  10834  10888     1
  10834  10838     1
  10834  10836     1
  10834  10837     1
  10835  10888     1
  10835  10877     1
  10836  10839     1
  10836  10887     1
  10837  10839     1
  10837  10887     1
  10838  10870     1
  10839  10877     1
  10840  10847     1
  10840  10862     1
  10840  10857     1
  10840  10848     1
  10841  10854     1
  10841  10855     1
  10841  10846     1
  10841  10852     1
  10842  10843     1
  10842  10861     1
  10842  10860     1
  10842  10856     1
  10842  10854     1
  10842  10855     1
  10842  10845     1
  10843  10862     1
  10843  10848     1
  10843  10853     1
  10844  10860     1
  10844  10852     1
  10844  10859     1
  10845  10847     1
  10845  10853     1
  10846  10850     1
  10846  10847     1
  10846  10849     1
  10846  10858     1
  10846  10848     1
  10846  10853     1
  10847  10861     1
  10847  10860     1
  10847  10863     1
  10847  10852     1
  10848  10863     1
  10848  10859     1
  10850  10860     1
  10851  10860     1
  10854  10858     1
  10854  10857     1
  10855  10858     1
  10855  10857     1
  10858  10860     1
  10858  10859     1
  10860  10862     1
  10864  10871     1
  10864  10886     1
  10864  10881     1
  10864  10872     1
  10865  10878     1
  10865  10879     1
  10865  10870     1
  10865  10876     1
  10866  10867     1
  10866  10885     1
  10866  10884     1
  10866  10880     1
  10866  10878     1
  10866  10879     1
  10866  10869     1
  10867  10886     1
  10867  10872     1
  10867  10877     1
  10868  10884     1
  10868  10876     1
  10868  10883     1
  10869  10871     1
  10869  10877     1
  10870  10874     1
  10870  10871     1
  10870  10873     1
  10870  10882     1
  10870  10872     1
  10870  10877     1
  10871  10885     1
  10871  10884     1
  10871  10887     1
  10871  10876     1
  10872  10887     1
  10872  10883     1
  10874  10884     1
  10875  10884     1
  10878  10882     1
  10878  10881     1
  10879  10882     1
  10879  10881     1
  10882  10884     1
  10882  10883     1
  10884  10886     1
  10889  10895     1
  10889  10896     1
  10890  10893     1
  10890  10892     1
  10890  10894     1
  10891  10962     1
  10892  10897     1
  10892  10895     1
  10892  10896     1
  10893  10907     1
  10893  10908     1
  10893  10900     1
  10893  10902     1
  10894  10897     1
  10894  10895     1
  10894  10896     1
  10895  10898     1
  10895  10899     1
  10895  10962     1
  10896  10898     1
  10896  10899     1
  10896  10962     1
  10897  10910     1
  10897  10911     1
  10897  10903     1
  10897  10904     1
  10898  10900     1
  10898  10902     1
  10899  10907     1
  10899  10908     1
  10900  10905     1
  10900  10903     1
  10900  10904     1
  10900  10962     1
  10901  10927     1
  10901  10962     1
  10902  10905     1
  10902  10903     1
  10902  10904     1
  10902  10962     1
  10903  10906     1
  10903  10937     1
  10904  10906     1
  10904  10937     1
  10905  10920     1
  10906  10927     1
  10907  10912     1
  10907  10910     1
  10907  10911     1
  10907  10962     1
  10908  10912     1
  10908  10910     1
  10908  10911     1
  10908  10962     1
  10909  10951     1
  10909  10962     1
  10910  10913     1
  10910  10961     1
  10911  10913     1
  10911  10961     1
  10912  10944     1
  10913  10951     1
  10914  10921     1
  10914  10936     1
  10914  10931     1
  10914  10922     1
  10915  10920     1
  10915  10926     1
  10915  10928     1
  10915  10929     1
  10916  10917     1
  10916  10935     1
  10916  10934     1
  10916  10930     1
  10916  10928     1
  10916  10929     1
  10916  10919     1
  10917  10922     1
  10917  10927     1
  10917  10936     1
  10918  10933     1
  10918  10926     1
  10918  10934     1
  10919  10927     1
  10919  10921     1
  10920  10923     1
  10920  10932     1
  10920  10922     1
  10920  10927     1
  10920  10924     1
  10920  10921     1
  10921  10937     1
  10921  10926     1
  10921  10935     1
  10921  10934     1
  10922  10933     1
  10922  10937     1
  10924  10934     1
  10925  10934     1
  10928  10931     1
  10928  10932     1
  10929  10931     1
  10929  10932     1
  10932  10933     1
  10932  10934     1
  10934  10936     1
  10938  10945     1
  10938  10960     1
  10938  10955     1
  10938  10946     1
  10939  10944     1
  10939  10950     1
  10939  10952     1
  10939  10953     1
  10940  10941     1
  10940  10959     1
  10940  10958     1
  10940  10954     1
  10940  10952     1
  10940  10953     1
  10940  10943     1
  10941  10946     1
  10941  10951     1
  10941  10960     1
  10942  10957     1
  10942  10950     1
  10942  10958     1
  10943  10951     1
  10943  10945     1
  10944  10947     1
  10944  10956     1
  10944  10946     1
  10944  10951     1
  10944  10948     1
  10944  10945     1
  10945  10961     1
  10945  10950     1
  10945  10959     1
  10945  10958     1
  10946  10957     1
  10946  10961     1
  10948  10958     1
  10949  10958     1
  10952  10955     1
  10952  10956     1
  10953  10955     1
  10953  10956     1
  10956  10957     1
  10956  10958     1
  10958  10960     1
  10963  10969     1
  10963  10970     1
  10964  10967     1
  10964  10966     1
  10964  10968     1
  10965  11036     1
  10966  10971     1
  10966  10969     1
  10966  10970     1
  10967  10981     1
  10967  10982     1
  10967  10974     1
  10967  10976     1
  10968  10971     1
  10968  10969     1
  10968  10970     1
  10969  10972     1
  10969  10973     1
  10969  11036     1
  10970  10972     1
  10970  10973     1
  10970  11036     1
  10971  10984     1
  10971  10985     1
  10971  10977     1
  10971  10978     1
  10972  10974     1
  10972  10976     1
  10973  10981     1
  10973  10982     1
  10974  11036     1
  10974  10979     1
  10974  10977     1
  10974  10978     1
  10975  11036     1
  10975  11001     1
  10976  11036     1
  10976  10979     1
  10976  10977     1
  10976  10978     1
  10977  10980     1
  10977  11011     1
  10978  10980     1
  10978  11011     1
  10979  10994     1
  10980  11001     1
  10981  11036     1
  10981  10986     1
  10981  10984     1
  10981  10985     1
  10982  11036     1
  10982  10986     1
  10982  10984     1
  10982  10985     1
  10983  11036     1
  10983  11025     1
  10984  10987     1
  10984  11035     1
  10985  10987     1
  10985  11035     1
  10986  11018     1
  10987  11025     1
  10988  10995     1
  10988  11010     1
  10988  11005     1
  10988  10996     1
  10989  11002     1
  10989  11003     1
  10989  10994     1
  10989  11000     1
  10990  10991     1
  10990  11009     1
  10990  11008     1
  10990  11004     1
  10990  11002     1
  10990  11003     1
  10990  10993     1
  10991  11010     1
  10991  10996     1
  10991  11001     1
  10992  11008     1
  10992  11000     1
  10992  11007     1
  10993  10995     1
  10993  11001     1
  10994  10998     1
  10994  10995     1
  10994  10997     1
  10994  11006     1
  10994  10996     1
  10994  11001     1
  10995  11009     1
  10995  11008     1
  10995  11011     1
  10995  11000     1
  10996  11011     1
  10996  11007     1
  10998  11008     1
  10999  11008     1
  11002  11006     1
  11002  11005     1
  11003  11006     1
  11003  11005     1
  11006  11008     1
  11006  11007     1
  11008  11010     1
  11012  11019     1
  11012  11034     1
  11012  11029     1
  11012  11020     1
  11013  11026     1
  11013  11027     1
  11013  11018     1
  11013  11024     1
  11014  11015     1
  11014  11033     1
  11014  11032     1
  11014  11028     1
  11014  11026     1
  11014  11027     1
  11014  11017     1
  11015  11034     1
  11015  11020     1
  11015  11025     1
  11016  11032     1
  11016  11024     1
  11016  11031     1
  11017  11019     1
  11017  11025     1
  11018  11022     1
  11018  11019     1
  11018  11021     1
  11018  11030     1
  11018  11020     1
  11018  11025     1
  11019  11033     1
  11019  11032     1
  11019  11035     1
  11019  11024     1
  11020  11035     1
  11020  11031     1
  11022  11032     1
  11023  11032     1
  11026  11030     1
  11026  11029     1
  11027  11030     1
  11027  11029     1
  11030  11032     1
  11030  11031     1
  11032  11034     1
  11037  11043     1
  11037  11044     1
  11038  11041     1
  11038  11040     1
  11038  11042     1
  11039  11110     1
  11040  11045     1
  11040  11043     1
  11040  11044     1
  11041  11055     1
  11041  11056     1
  11041  11048     1
  11041  11050     1
  11042  11045     1
  11042  11043     1
  11042  11044     1
  11043  11046     1
  11043  11047     1
  11043  11110     1
  11044  11046     1
  11044  11047     1
  11044  11110     1
  11045  11058     1
  11045  11059     1
  11045  11051     1
  11045  11052     1
  11046  11048     1
  11046  11050     1
  11047  11055     1
  11047  11056     1
  11048  11053     1
  11048  11051     1
  11048  11052     1
  11048  11110     1
  11049  11075     1
  11049  11110     1
  11050  11053     1
  11050  11051     1
  11050  11052     1
  11050  11110     1
  11051  11054     1
  11051  11085     1
  11052  11054     1
  11052  11085     1
  11053  11068     1
  11054  11075     1
  11055  11060     1
  11055  11058     1
  11055  11059     1
  11055  11110     1
  11056  11060     1
  11056  11058     1
  11056  11059     1
  11056  11110     1
  11057  11099     1
  11057  11110     1
  11058  11061     1
  11058  11109     1
  11059  11061     1
  11059  11109     1
  11060  11092     1
  11061  11099     1
  11062  11069     1
  11062  11084     1
  11062  11079     1
  11062  11070     1
  11063  11068     1
  11063  11074     1
  11063  11076     1
  11063  11077     1
  11064  11065     1
  11064  11083     1
  11064  11082     1
  11064  11078     1
  11064  11076     1
  11064  11077     1
  11064  11067     1
  11065  11070     1
  11065  11075     1
  11065  11084     1
  11066  11081     1
  11066  11074     1
  11066  11082     1
  11067  11075     1
  11067  11069     1
  11068  11071     1
  11068  11080     1
  11068  11070     1
  11068  11075     1
  11068  11072     1
  11068  11069     1
  11069  11085     1
  11069  11074     1
  11069  11083     1
  11069  11082     1
  11070  11081     1
  11070  11085     1
  11072  11082     1
  11073  11082     1
  11076  11079     1
  11076  11080     1
  11077  11079     1
  11077  11080     1
  11080  11081     1
  11080  11082     1
  11082  11084     1
  11086  11093     1
  11086  11108     1
  11086  11103     1
  11086  11094     1
  11087  11092     1
  11087  11098     1
  11087  11100     1
  11087  11101     1
  11088  11089     1
  11088  11107     1
  11088  11106     1
  11088  11102     1
  11088  11100     1
  11088  11101     1
  11088  11091     1
  11089  11094     1
  11089  11099     1
  11089  11108     1
  11090  11105     1
  11090  11098     1
  11090  11106     1
  11091  11099     1
  11091  11093     1
  11092  11095     1
  11092  11104     1
  11092  11094     1
  11092  11099     1
  11092  11096     1
  11092  11093     1
  11093  11109     1
  11093  11098     1
  11093  11107     1
  11093  11106     1
  11094  11105     1
  11094  11109     1
  11096  11106     1
  11097  11106     1
  11100  11103     1
  11100  11104     1
  11101  11103     1
  11101  11104     1
  11104  11105     1
  11104  11106     1
  11106  11108     1
  11111  11117     1
  11111  11118     1
  11112  11115     1
  11112  11114     1
  11112  11116     1
  11113  11184     1
  11114  11119     1
  11114  11117     1
  11114  11118     1
  11115  11129     1
  11115  11130     1
  11115  11122     1
  11115  11124     1
  11116  11119     1
  11116  11117     1
  11116  11118     1
  11117  11120     1
  11117  11121     1
  11117  11184     1
  11118  11120     1
  11118  11121     1
  11118  11184     1
  11119  11132     1
  11119  11133     1
  11119  11125     1
  11119  11126     1
  11120  11122     1
  11120  11124     1
  11121  11129     1
  11121  11130     1
  11122  11184     1
  11122  11127     1
  11122  11125     1
  11122  11126     1
  11123  11184     1
  11123  11149     1
  11124  11184     1
  11124  11127     1
  11124  11125     1
  11124  11126     1
  11125  11128     1
  11125  11159     1
  11126  11128     1
  11126  11159     1
  11127  11142     1
  11128  11149     1
  11129  11184     1
  11129  11134     1
  11129  11132     1
  11129  11133     1
  11130  11184     1
  11130  11134     1
  11130  11132     1
  11130  11133     1
  11131  11184     1
  11131  11173     1
  11132  11135     1
  11132  11183     1
  11133  11135     1
  11133  11183     1
  11134  11166     1
  11135  11173     1
  11136  11143     1
  11136  11158     1
  11136  11153     1
  11136  11144     1
  11137  11150     1
  11137  11151     1
  11137  11142     1
  11137  11148     1
  11138  11139     1
  11138  11157     1
  11138  11156     1
  11138  11152     1
  11138  11150     1
  11138  11151     1
  11138  11141     1
  11139  11158     1
  11139  11144     1
  11139  11149     1
  11140  11156     1
  11140  11148     1
  11140  11155     1
  11141  11143     1
  11141  11149     1
  11142  11146     1
  11142  11143     1
  11142  11145     1
  11142  11154     1
  11142  11144     1
  11142  11149     1
  11143  11157     1
  11143  11156     1
  11143  11159     1
  11143  11148     1
  11144  11159     1
  11144  11155     1
  11146  11156     1
  11147  11156     1
  11150  11154     1
  11150  11153     1
  11151  11154     1
  11151  11153     1
  11154  11156     1
  11154  11155     1
  11156  11158     1
  11160  11167     1
  11160  11182     1
  11160  11177     1
  11160  11168     1
  11161  11174     1
  11161  11175     1
  11161  11166     1
  11161  11172     1
  11162  11163     1
  11162  11181     1
  11162  11180     1
  11162  11176     1
  11162  11174     1
  11162  11175     1
  11162  11165     1
  11163  11182     1
  11163  11168     1
  11163  11173     1
  11164  11180     1
  11164  11172     1
  11164  11179     1
  11165  11167     1
  11165  11173     1
  11166  11170     1
  11166  11167     1
  11166  11169     1
  11166  11178     1
  11166  11168     1
  11166  11173     1
  11167  11181     1
  11167  11180     1
  11167  11183     1
  11167  11172     1
  11168  11183     1
  11168  11179     1
  11170  11180     1
  11171  11180     1
  11174  11178     1
  11174  11177     1
  11175  11178     1
  11175  11177     1
  11178  11180     1
  11178  11179     1
  11180  11182     1
  11185  11191     1
  11185  11192     1
  11186  11189     1
  11186  11188     1
  11186  11190     1
  11187  11258     1
  11188  11193     1
  11188  11191     1
  11188  11192     1
  11189  11203     1
  11189  11204     1
  11189  11196     1
  11189  11198     1
  11190  11193     1
  11190  11191     1
  11190  11192     1
  11191  11194     1
  11191  11195     1
  11191  11258     1
  11192  11194     1
  11192  11195     1
  11192  11258     1
  11193  11206     1
  11193  11207     1
  11193  11199     1
  11193  11200     1
  11194  11196     1
  11194  11198     1
  11195  11203     1
  11195  11204     1
  11196  11201     1
  11196  11199     1
  11196  11200     1
  11196  11258     1
  11197  11223     1
  11197  11258     1
  11198  11201     1
  11198  11199     1
  11198  11200     1
  11198  11258     1
  11199  11202     1
  11199  11233     1
  11200  11202     1
  11200  11233     1
  11201  11216     1
  11202  11223     1
  11203  11208     1
  11203  11206     1
  11203  11207     1
  11203  11258     1
  11204  11208     1
  11204  11206     1
  11204  11207     1
  11204  11258     1
  11205  11247     1
  11205  11258     1
  11206  11209     1
  11206  11257     1
  11207  11209     1
  11207  11257     1
  11208  11240     1
  11209  11247     1
  11210  11217     1
  11210  11232     1
  11210  11227     1
  11210  11218     1
  11211  11216     1
  11211  11222     1
  11211  11224     1
  11211  11225     1
  11212  11213     1
  11212  11231     1
  11212  11230     1
  11212  11226     1
  11212  11224     1
  11212  11225     1
  11212  11215     1
  11213  11218     1
  11213  11223     1
  11213  11232     1
  11214  11229     1
  11214  11222     1
  11214  11230     1
  11215  11223     1
  11215  11217     1
  11216  11219     1
  11216  11228     1
  11216  11218     1
  11216  11223     1
  11216  11220     1
  11216  11217     1
  11217  11233     1
  11217  11222     1
  11217  11231     1
  11217  11230     1
  11218  11229     1
  11218  11233     1
  11220  11230     1
  11221  11230     1
  11224  11227     1
  11224  11228     1
  11225  11227     1
  11225  11228     1
  11228  11229     1
  11228  11230     1
  11230  11232     1
  11234  11241     1
  11234  11256     1
  11234  11251     1
  11234  11242     1
  11235  11240     1
  11235  11246     1
  11235  11248     1
  11235  11249     1
  11236  11237     1
  11236  11255     1
  11236  11254     1
  11236  11250     1
  11236  11248     1
  11236  11249     1
  11236  11239     1
  11237  11242     1
  11237  11247     1
  11237  11256     1
  11238  11253     1
  11238  11246     1
  11238  11254     1
  11239  11247     1
  11239  11241     1
  11240  11243     1
  11240  11252     1
  11240  11242     1
  11240  11247     1
  11240  11244     1
  11240  11241     1
  11241  11257     1
  11241  11246     1
  11241  11255     1
  11241  11254     1
  11242  11253     1
  11242  11257     1
  11244  11254     1
  11245  11254     1
  11248  11251     1
  11248  11252     1
  11249  11251     1
  11249  11252     1
  11252  11253     1
  11252  11254     1
  11254  11256     1
  11259  11265     1
  11259  11266     1
  11260  11263     1
  11260  11262     1
  11260  11264     1
  11261  11332     1
  11262  11267     1
  11262  11265     1
  11262  11266     1
  11263  11277     1
  11263  11278     1
  11263  11270     1
  11263  11272     1
  11264  11267     1
  11264  11265     1
  11264  11266     1
  11265  11268     1
  11265  11269     1
  11265  11332     1
  11266  11268     1
  11266  11269     1
  11266  11332     1
  11267  11280     1
  11267  11281     1
  11267  11273     1
  11267  11274     1
  11268  11270     1
  11268  11272     1
  11269  11277     1
  11269  11278     1
  11270  11332     1
  11270  11275     1
  11270  11273     1
  11270  11274     1
  11271  11332     1
  11271  11297     1
  11272  11332     1
  11272  11275     1
  11272  11273     1
  11272  11274     1
  11273  11276     1
  11273  11307     1
  11274  11276     1
  11274  11307     1
  11275  11290     1
  11276  11297     1
  11277  11332     1
  11277  11282     1
  11277  11280     1
  11277  11281     1
  11278  11332     1
  11278  11282     1
  11278  11280     1
  11278  11281     1
  11279  11332     1
  11279  11321     1
  11280  11283     1
  11280  11331     1
  11281  11283     1
  11281  11331     1
  11282  11314     1
  11283  11321     1
  11284  11291     1
  11284  11306     1
  11284  11301     1
  11284  11292     1
  11285  11298     1
  11285  11299     1
  11285  11290     1
  11285  11296     1
  11286  11287     1
  11286  11305     1
  11286  11304     1
  11286  11300     1
  11286  11298     1
  11286  11299     1
  11286  11289     1
  11287  11306     1
  11287  11292     1
  11287  11297     1
  11288  11304     1
  11288  11296     1
  11288  11303     1
  11289  11291     1
  11289  11297     1
  11290  11294     1
  11290  11291     1
  11290  11293     1
  11290  11302     1
  11290  11292     1
  11290  11297     1
  11291  11305     1
  11291  11304     1
  11291  11307     1
  11291  11296     1
  11292  11307     1
  11292  11303     1
  11294  11304     1
  11295  11304     1
  11298  11302     1
  11298  11301     1
  11299  11302     1
  11299  11301     1
  11302  11304     1
  11302  11303     1
  11304  11306     1
  11308  11315     1
  11308  11330     1
  11308  11325     1
  11308  11316     1
  11309  11322     1
  11309  11323     1
  11309  11314     1
  11309  11320     1
  11310  11311     1
  11310  11329     1
  11310  11328     1
  11310  11324     1
  11310  11322     1
  11310  11323     1
  11310  11313     1
  11311  11330     1
  11311  11316     1
  11311  11321     1
  11312  11328     1
  11312  11320     1
  11312  11327     1
  11313  11315     1
  11313  11321     1
  11314  11318     1
  11314  11315     1
  11314  11317     1
  11314  11326     1
  11314  11316     1
  11314  11321     1
  11315  11329     1
  11315  11328     1
  11315  11331     1
  11315  11320     1
  11316  11331     1
  11316  11327     1
  11318  11328     1
  11319  11328     1
  11322  11326     1
  11322  11325     1
  11323  11326     1
  11323  11325     1
  11326  11328     1
  11326  11327     1
  11328  11330     1
  11333  11339     1
  11333  11340     1
  11334  11337     1
  11334  11336     1
  11334  11338     1
  11335  11406     1
  11336  11341     1
  11336  11339     1
  11336  11340     1
  11337  11351     1
  11337  11352     1
  11337  11344     1
  11337  11346     1
  11338  11341     1
  11338  11339     1
  11338  11340     1
  11339  11342     1
  11339  11343     1
  11339  11406     1
  11340  11342     1
  11340  11343     1
  11340  11406     1
  11341  11354     1
  11341  11355     1
  11341  11347     1
  11341  11348     1
  11342  11344     1
  11342  11346     1
  11343  11351     1
  11343  11352     1
  11344  11349     1
  11344  11347     1
  11344  11348     1
  11344  11406     1
  11345  11371     1
  11345  11406     1
  11346  11349     1
  11346  11347     1
  11346  11348     1
  11346  11406     1
  11347  11350     1
  11347  11381     1
  11348  11350     1
  11348  11381     1
  11349  11364     1
  11350  11371     1
  11351  11356     1
  11351  11354     1
  11351  11355     1
  11351  11406     1
  11352  11356     1
  11352  11354     1
  11352  11355     1
  11352  11406     1
  11353  11395     1
  11353  11406     1
  11354  11357     1
  11354  11405     1
  11355  11357     1
  11355  11405     1
  11356  11388     1
  11357  11395     1
  11358  11365     1
  11358  11380     1
  11358  11375     1
  11358  11366     1
  11359  11364     1
  11359  11370     1
  11359  11372     1
  11359  11373     1
  11360  11361     1
  11360  11379     1
  11360  11378     1
  11360  11374     1
  11360  11372     1
  11360  11373     1
  11360  11363     1
  11361  11366     1
  11361  11371     1
  11361  11380     1
  11362  11377     1
  11362  11370     1
  11362  11378     1
  11363  11371     1
  11363  11365     1
  11364  11367     1
  11364  11376     1
  11364  11366     1
  11364  11371     1
  11364  11368     1
  11364  11365     1
  11365  11381     1
  11365  11370     1
  11365  11379     1
  11365  11378     1
  11366  11377     1
  11366  11381     1
  11368  11378     1
  11369  11378     1
  11372  11375     1
  11372  11376     1
  11373  11375     1
  11373  11376     1
  11376  11377     1
  11376  11378     1
  11378  11380     1
  11382  11389     1
  11382  11404     1
  11382  11399     1
  11382  11390     1
  11383  11388     1
  11383  11394     1
  11383  11396     1
  11383  11397     1
  11384  11385     1
  11384  11403     1
  11384  11402     1
  11384  11398     1
  11384  11396     1
  11384  11397     1
  11384  11387     1
  11385  11390     1
  11385  11395     1
  11385  11404     1
  11386  11401     1
  11386  11394     1
  11386  11402     1
  11387  11395     1
  11387  11389     1
  11388  11391     1
  11388  11400     1
  11388  11390     1
  11388  11395     1
  11388  11392     1
  11388  11389     1
  11389  11405     1
  11389  11394     1
  11389  11403     1
  11389  11402     1
  11390  11401     1
  11390  11405     1
  11392  11402     1
  11393  11402     1
  11396  11399     1
  11396  11400     1
  11397  11399     1
  11397  11400     1
  11400  11401     1
  11400  11402     1
  11402  11404     1
  11407  11413     1
  11407  11414     1
  11408  11411     1
  11408  11410     1
  11408  11412     1
  11409  11480     1
  11410  11415     1
  11410  11413     1
  11410  11414     1
  11411  11425     1
  11411  11426     1
  11411  11418     1
  11411  11420     1
  11412  11415     1
  11412  11413     1
  11412  11414     1
  11413  11416     1
  11413  11417     1
  11413  11480     1
  11414  11416     1
  11414  11417     1
  11414  11480     1
  11415  11428     1
  11415  11429     1
  11415  11421     1
  11415  11422     1
  11416  11418     1
  11416  11420     1
  11417  11425     1
  11417  11426     1
  11418  11480     1
  11418  11423     1
  11418  11421     1
  11418  11422     1
  11419  11480     1
  11419  11445     1
  11420  11480     1
  11420  11423     1
  11420  11421     1
  11420  11422     1
  11421  11424     1
  11421  11455     1
  11422  11424     1
  11422  11455     1
  11423  11438     1
  11424  11445     1
  11425  11480     1
  11425  11430     1
  11425  11428     1
  11425  11429     1
  11426  11480     1
  11426  11430     1
  11426  11428     1
  11426  11429     1
  11427  11480     1
  11427  11469     1
  11428  11431     1
  11428  11479     1
  11429  11431     1
  11429  11479     1
  11430  11462     1
  11431  11469     1
  11432  11439     1
  11432  11454     1
  11432  11449     1
  11432  11440     1
  11433  11446     1
  11433  11447     1
  11433  11438     1
  11433  11444     1
  11434  11435     1
  11434  11453     1
  11434  11452     1
  11434  11448     1
  11434  11446     1
  11434  11447     1
  11434  11437     1
  11435  11454     1
  11435  11440     1
  11435  11445     1
  11436  11452     1
  11436  11444     1
  11436  11451     1
  11437  11439     1
  11437  11445     1
  11438  11442     1
  11438  11439     1
  11438  11441     1
  11438  11450     1
  11438  11440     1
  11438  11445     1
  11439  11453     1
  11439  11452     1
  11439  11455     1
  11439  11444     1
  11440  11455     1
  11440  11451     1
  11442  11452     1
  11443  11452     1
  11446  11450     1
  11446  11449     1
  11447  11450     1
  11447  11449     1
  11450  11452     1
  11450  11451     1
  11452  11454     1
  11456  11463     1
  11456  11478     1
  11456  11473     1
  11456  11464     1
  11457  11470     1
  11457  11471     1
  11457  11462     1
  11457  11468     1
  11458  11459     1
  11458  11477     1
  11458  11476     1
  11458  11472     1
  11458  11470     1
  11458  11471     1
  11458  11461     1
  11459  11478     1
  11459  11464     1
  11459  11469     1
  11460  11476     1
  11460  11468     1
  11460  11475     1
  11461  11463     1
  11461  11469     1
  11462  11466     1
  11462  11463     1
  11462  11465     1
  11462  11474     1
  11462  11464     1
  11462  11469     1
  11463  11477     1
  11463  11476     1
  11463  11479     1
  11463  11468     1
  11464  11479     1
  11464  11475     1
  11466  11476     1
  11467  11476     1
  11470  11474     1
  11470  11473     1
  11471  11474     1
  11471  11473     1
  11474  11476     1
  11474  11475     1
  11476  11478     1
  11481  11487     1
  11481  11488     1
  11482  11485     1
  11482  11484     1
  11482  11486     1
  11483  11554     1
  11484  11489     1
  11484  11487     1
  11484  11488     1
  11485  11499     1
  11485  11500     1
  11485  11492     1
  11485  11494     1
  11486  11489     1
  11486  11487     1
  11486  11488     1
  11487  11490     1
  11487  11491     1
  11487  11554     1
  11488  11490     1
  11488  11491     1
  11488  11554     1
  11489  11502     1
  11489  11503     1
  11489  11495     1
  11489  11496     1
  11490  11492     1
  11490  11494     1
  11491  11499     1
  11491  11500     1
  11492  11497     1
  11492  11495     1
  11492  11496     1
  11492  11554     1
  11493  11519     1
  11493  11554     1
  11494  11497     1
  11494  11495     1
  11494  11496     1
  11494  11554     1
  11495  11498     1
  11495  11529     1
  11496  11498     1
  11496  11529     1
  11497  11512     1
  11498  11519     1
  11499  11504     1
  11499  11502     1
  11499  11503     1
  11499  11554     1
  11500  11504     1
  11500  11502     1
  11500  11503     1
  11500  11554     1
  11501  11543     1
  11501  11554     1
  11502  11505     1
  11502  11553     1
  11503  11505     1
  11503  11553     1
  11504  11536     1
  11505  11543     1
  11506  11513     1
  11506  11528     1
  11506  11523     1
  11506  11514     1
  11507  11512     1
  11507  11518     1
  11507  11520     1
  11507  11521     1
  11508  11509     1
  11508  11527     1
  11508  11526     1
  11508  11522     1
  11508  11520     1
  11508  11521     1
  11508  11511     1
  11509  11514     1
  11509  11519     1
  11509  11528     1
  11510  11525     1
  11510  11518     1
  11510  11526     1
  11511  11519     1
  11511  11513     1
  11512  11515     1
  11512  11524     1
  11512  11514     1
  11512  11519     1
  11512  11516     1
  11512  11513     1
  11513  11529     1
  11513  11518     1
  11513  11527     1
  11513  11526     1
  11514  11525     1
  11514  11529     1
  11516  11526     1
  11517  11526     1
  11520  11523     1
  11520  11524     1
  11521  11523     1
  11521  11524     1
  11524  11525     1
  11524  11526     1
  11526  11528     1
  11530  11537     1
  11530  11552     1
  11530  11547     1
  11530  11538     1
  11531  11536     1
  11531  11542     1
  11531  11544     1
  11531  11545     1
  11532  11533     1
  11532  11551     1
  11532  11550     1
  11532  11546     1
  11532  11544     1
  11532  11545     1
  11532  11535     1
  11533  11538     1
  11533  11543     1
  11533  11552     1
  11534  11549     1
  11534  11542     1
  11534  11550     1
  11535  11543     1
  11535  11537     1
  11536  11539     1
  11536  11548     1
  11536  11538     1
  11536  11543     1
  11536  11540     1
  11536  11537     1
  11537  11553     1
  11537  11542     1
  11537  11551     1
  11537  11550     1
  11538  11549     1
  11538  11553     1
  11540  11550     1
  11541  11550     1
  11544  11547     1
  11544  11548     1
  11545  11547     1
  11545  11548     1
  11548  11549     1
  11548  11550     1
  11550  11552     1
  11555  11561     1
  11555  11562     1
  11556  11559     1
  11556  11558     1
  11556  11560     1
  11557  11628     1
  11558  11563     1
  11558  11561     1
  11558  11562     1
  11559  11573     1
  11559  11574     1
  11559  11566     1
  11559  11568     1
  11560  11563     1
  11560  11561     1
  11560  11562     1
  11561  11564     1
  11561  11565     1
  11561  11628     1
  11562  11564     1
  11562  11565     1
  11562  11628     1
  11563  11576     1
  11563  11577     1
  11563  11569     1
  11563  11570     1
  11564  11566     1
  11564  11568     1
  11565  11573     1
  11565  11574     1
  11566  11628     1
  11566  11571     1
  11566  11569     1
  11566  11570     1
  11567  11628     1
  11567  11593     1
  11568  11628     1
  11568  11571     1
  11568  11569     1
  11568  11570     1
  11569  11572     1
  11569  11603     1
  11570  11572     1
  11570  11603     1
  11571  11586     1
  11572  11593     1
  11573  11628     1
  11573  11578     1
  11573  11576     1
  11573  11577     1
  11574  11628     1
  11574  11578     1
  11574  11576     1
  11574  11577     1
  11575  11628     1
  11575  11617     1
  11576  11579     1
  11576  11627     1
  11577  11579     1
  11577  11627     1
  11578  11610     1
  11579  11617     1
  11580  11587     1
  11580  11602     1
  11580  11597     1
  11580  11588     1
  11581  11594     1
  11581  11595     1
  11581  11586     1
  11581  11592     1
  11582  11583     1
  11582  11601     1
  11582  11600     1
  11582  11596     1
  11582  11594     1
  11582  11595     1
  11582  11585     1
  11583  11602     1
  11583  11588     1
  11583  11593     1
  11584  11600     1
  11584  11592     1
  11584  11599     1
  11585  11587     1
  11585  11593     1
  11586  11590     1
  11586  11587     1
  11586  11589     1
  11586  11598     1
  11586  11588     1
  11586  11593     1
  11587  11601     1
  11587  11600     1
  11587  11603     1
  11587  11592     1
  11588  11603     1
  11588  11599     1
  11590  11600     1
  11591  11600     1
  11594  11598     1
  11594  11597     1
  11595  11598     1
  11595  11597     1
  11598  11600     1
  11598  11599     1
  11600  11602     1
  11604  11611     1
  11604  11626     1
  11604  11621     1
  11604  11612     1
  11605  11618     1
  11605  11619     1
  11605  11610     1
  11605  11616     1
  11606  11607     1
  11606  11625     1
  11606  11624     1
  11606  11620     1
  11606  11618     1
  11606  11619     1
  11606  11609     1
  11607  11626     1
  11607  11612     1
  11607  11617     1
  11608  11624     1
  11608  11616     1
  11608  11623     1
  11609  11611     1
  11609  11617     1
  11610  11614     1
  11610  11611     1
  11610  11613     1
  11610  11622     1
  11610  11612     1
  11610  11617     1
  11611  11625     1
  11611  11624     1
  11611  11627     1
  11611  11616     1
  11612  11627     1
  11612  11623     1
  11614  11624     1
  11615  11624     1
  11618  11622     1
  11618  11621     1
  11619  11622     1
  11619  11621     1
  11622  11624     1
  11622  11623     1
  11624  11626     1
  11629  11635     1
  11629  11636     1
  11630  11633     1
  11630  11632     1
  11630  11634     1
  11631  11702     1
  11632  11637     1
  11632  11635     1
  11632  11636     1
  11633  11647     1
  11633  11648     1
  11633  11640     1
  11633  11642     1
  11634  11637     1
  11634  11635     1
  11634  11636     1
  11635  11638     1
  11635  11639     1
  11635  11702     1
  11636  11638     1
  11636  11639     1
  11636  11702     1
  11637  11650     1
  11637  11651     1
  11637  11643     1
  11637  11644     1
  11638  11640     1
  11638  11642     1
  11639  11647     1
  11639  11648     1
  11640  11645     1
  11640  11643     1
  11640  11644     1
  11640  11702     1
  11641  11667     1
  11641  11702     1
  11642  11645     1
  11642  11643     1
  11642  11644     1
  11642  11702     1
  11643  11646     1
  11643  11677     1
  11644  11646     1
  11644  11677     1
  11645  11660     1
  11646  11667     1
  11647  11652     1
  11647  11650     1
  11647  11651     1
  11647  11702     1
  11648  11652     1
  11648  11650     1
  11648  11651     1
  11648  11702     1
  11649  11691     1
  11649  11702     1
  11650  11653     1
  11650  11701     1
  11651  11653     1
  11651  11701     1
  11652  11684     1
  11653  11691     1
  11654  11661     1
  11654  11676     1
  11654  11671     1
  11654  11662     1
  11655  11660     1
  11655  11666     1
  11655  11668     1
  11655  11669     1
  11656  11657     1
  11656  11675     1
  11656  11674     1
  11656  11670     1
  11656  11668     1
  11656  11669     1
  11656  11659     1
  11657  11662     1
  11657  11667     1
  11657  11676     1
  11658  11673     1
  11658  11666     1
  11658  11674     1
  11659  11667     1
  11659  11661     1
  11660  11663     1
  11660  11672     1
  11660  11662     1
  11660  11667     1
  11660  11664     1
  11660  11661     1
  11661  11677     1
  11661  11666     1
  11661  11675     1
  11661  11674     1
  11662  11673     1
  11662  11677     1
  11664  11674     1
  11665  11674     1
  11668  11671     1
  11668  11672     1
  11669  11671     1
  11669  11672     1
  11672  11673     1
  11672  11674     1
  11674  11676     1
  11678  11685     1
  11678  11700     1
  11678  11695     1
  11678  11686     1
  11679  11684     1
  11679  11690     1
  11679  11692     1
  11679  11693     1
  11680  11681     1
  11680  11699     1
  11680  11698     1
  11680  11694     1
  11680  11692     1
  11680  11693     1
  11680  11683     1
  11681  11686     1
  11681  11691     1
  11681  11700     1
  11682  11697     1
  11682  11690     1
  11682  11698     1
  11683  11691     1
  11683  11685     1
  11684  11687     1
  11684  11696     1
  11684  11686     1
  11684  11691     1
  11684  11688     1
  11684  11685     1
  11685  11701     1
  11685  11690     1
  11685  11699     1
  11685  11698     1
  11686  11697     1
  11686  11701     1
  11688  11698     1
  11689  11698     1
  11692  11695     1
  11692  11696     1
  11693  11695     1
  11693  11696     1
  11696  11697     1
  11696  11698     1
  11698  11700     1
  11703  11709     1
  11703  11710     1
  11704  11707     1
  11704  11706     1
  11704  11708     1
  11705  11776     1
  11706  11711     1
  11706  11709     1
  11706  11710     1
  11707  11721     1
  11707  11722     1
  11707  11714     1
  11707  11716     1
  11708  11711     1
  11708  11709     1
  11708  11710     1
  11709  11712     1
  11709  11713     1
  11709  11776     1
  11710  11712     1
  11710  11713     1
  11710  11776     1
  11711  11724     1
  11711  11725     1
  11711  11717     1
  11711  11718     1
  11712  11714     1
  11712  11716     1
  11713  11721     1
  11713  11722     1
  11714  11776     1
  11714  11719     1
  11714  11717     1
  11714  11718     1
  11715  11776     1
  11715  11741     1
  11716  11776     1
  11716  11719     1
  11716  11717     1
  11716  11718     1
  11717  11720     1
  11717  11751     1
  11718  11720     1
  11718  11751     1
  11719  11734     1
  11720  11741     1
  11721  11776     1
  11721  11726     1
  11721  11724     1
  11721  11725     1
  11722  11776     1
  11722  11726     1
  11722  11724     1
  11722  11725     1
  11723  11776     1
  11723  11765     1
  11724  11727     1
  11724  11775     1
  11725  11727     1
  11725  11775     1
  11726  11758     1
  11727  11765     1
  11728  11735     1
  11728  11750     1
  11728  11745     1
  11728  11736     1
  11729  11742     1
  11729  11743     1
  11729  11734     1
  11729  11740     1
  11730  11731     1
  11730  11749     1
  11730  11748     1
  11730  11744     1
  11730  11742     1
  11730  11743     1
  11730  11733     1
  11731  11750     1
  11731  11736     1
  11731  11741     1
  11732  11748     1
  11732  11740     1
  11732  11747     1
  11733  11735     1
  11733  11741     1
  11734  11738     1
  11734  11735     1
  11734  11737     1
  11734  11746     1
  11734  11736     1
  11734  11741     1
  11735  11749     1
  11735  11748     1
  11735  11751     1
  11735  11740     1
  11736  11751     1
  11736  11747     1
  11738  11748     1
  11739  11748     1
  11742  11746     1
  11742  11745     1
  11743  11746     1
  11743  11745     1
  11746  11748     1
  11746  11747     1
  11748  11750     1
  11752  11759     1
  11752  11774     1
  11752  11769     1
  11752  11760     1
  11753  11766     1
  11753  11767     1
  11753  11758     1
  11753  11764     1
  11754  11755     1
  11754  11773     1
  11754  11772     1
  11754  11768     1
  11754  11766     1
  11754  11767     1
  11754  11757     1
  11755  11774     1
  11755  11760     1
  11755  11765     1
  11756  11772     1
  11756  11764     1
  11756  11771     1
  11757  11759     1
  11757  11765     1
  11758  11762     1
  11758  11759     1
  11758  11761     1
  11758  11770     1
  11758  11760     1
  11758  11765     1
  11759  11773     1
  11759  11772     1
  11759  11775     1
  11759  11764     1
  11760  11775     1
  11760  11771     1
  11762  11772     1
  11763  11772     1
  11766  11770     1
  11766  11769     1
  11767  11770     1
  11767  11769     1
  11770  11772     1
  11770  11771     1
  11772  11774     1
  11777  11783     1
  11777  11784     1
  11778  11781     1
  11778  11780     1
  11778  11782     1
  11779  11850     1
  11780  11785     1
  11780  11783     1
  11780  11784     1
  11781  11795     1
  11781  11796     1
  11781  11788     1
  11781  11790     1
  11782  11785     1
  11782  11783     1
  11782  11784     1
  11783  11786     1
  11783  11787     1
  11783  11850     1
  11784  11786     1
  11784  11787     1
  11784  11850     1
  11785  11798     1
  11785  11799     1
  11785  11791     1
  11785  11792     1
  11786  11788     1
  11786  11790     1
  11787  11795     1
  11787  11796     1
  11788  11793     1
  11788  11791     1
  11788  11792     1
  11788  11850     1
  11789  11815     1
  11789  11850     1
  11790  11793     1
  11790  11791     1
  11790  11792     1
  11790  11850     1
  11791  11794     1
  11791  11825     1
  11792  11794     1
  11792  11825     1
  11793  11808     1
  11794  11815     1
  11795  11800     1
  11795  11798     1
  11795  11799     1
  11795  11850     1
  11796  11800     1
  11796  11798     1
  11796  11799     1
  11796  11850     1
  11797  11839     1
  11797  11850     1
  11798  11801     1
  11798  11849     1
  11799  11801     1
  11799  11849     1
  11800  11832     1
  11801  11839     1
  11802  11809     1
  11802  11824     1
  11802  11819     1
  11802  11810     1
  11803  11808     1
  11803  11814     1
  11803  11816     1
  11803  11817     1
  11804  11805     1
  11804  11823     1
  11804  11822     1
  11804  11818     1
  11804  11816     1
  11804  11817     1
  11804  11807     1
  11805  11810     1
  11805  11815     1
  11805  11824     1
  11806  11821     1
  11806  11814     1
  11806  11822     1
  11807  11815     1
  11807  11809     1
  11808  11811     1
  11808  11820     1
  11808  11810     1
  11808  11815     1
  11808  11812     1
  11808  11809     1
  11809  11825     1
  11809  11814     1
  11809  11823     1
  11809  11822     1
  11810  11821     1
  11810  11825     1
  11812  11822     1
  11813  11822     1
  11816  11819     1
  11816  11820     1
  11817  11819     1
  11817  11820     1
  11820  11821     1
  11820  11822     1
  11822  11824     1
  11826  11833     1
  11826  11848     1
  11826  11843     1
  11826  11834     1
  11827  11832     1
  11827  11838     1
  11827  11840     1
  11827  11841     1
  11828  11829     1
  11828  11847     1
  11828  11846     1
  11828  11842     1
  11828  11840     1
  11828  11841     1
  11828  11831     1
  11829  11834     1
  11829  11839     1
  11829  11848     1
  11830  11845     1
  11830  11838     1
  11830  11846     1
  11831  11839     1
  11831  11833     1
  11832  11835     1
  11832  11844     1
  11832  11834     1
  11832  11839     1
  11832  11836     1
  11832  11833     1
  11833  11849     1
  11833  11838     1
  11833  11847     1
  11833  11846     1
  11834  11845     1
  11834  11849     1
  11836  11846     1
  11837  11846     1
  11840  11843     1
  11840  11844     1
  11841  11843     1
  11841  11844     1
  11844  11845     1
  11844  11846     1
  11846  11848     1
  11851  11857     1
  11851  11858     1
  11852  11855     1
  11852  11854     1
  11852  11856     1
  11853  11924     1
  11854  11859     1
  11854  11857     1
  11854  11858     1
  11855  11869     1
  11855  11870     1
  11855  11862     1
  11855  11864     1
  11856  11859     1
  11856  11857     1
  11856  11858     1
  11857  11860     1
  11857  11861     1
  11857  11924     1
  11858  11860     1
  11858  11861     1
  11858  11924     1
  11859  11872     1
  11859  11873     1
  11859  11865     1
  11859  11866     1
  11860  11862     1
  11860  11864     1
  11861  11869     1
  11861  11870     1
  11862  11924     1
  11862  11867     1
  11862  11865     1
  11862  11866     1
  11863  11924     1
  11863  11889     1
  11864  11924     1
  11864  11867     1
  11864  11865     1
  11864  11866     1
  11865  11868     1
  11865  11899     1
  11866  11868     1
  11866  11899     1
  11867  11882     1
  11868  11889     1
  11869  11924     1
  11869  11874     1
  11869  11872     1
  11869  11873     1
  11870  11924     1
  11870  11874     1
  11870  11872     1
  11870  11873     1
  11871  11924     1
  11871  11913     1
  11872  11875     1
  11872  11923     1
  11873  11875     1
  11873  11923     1
  11874  11906     1
  11875  11913     1
  11876  11883     1
  11876  11898     1
  11876  11893     1
  11876  11884     1
  11877  11890     1
  11877  11891     1
  11877  11882     1
  11877  11888     1
  11878  11879     1
  11878  11897     1
  11878  11896     1
  11878  11892     1
  11878  11890     1
  11878  11891     1
  11878  11881     1
  11879  11898     1
  11879  11884     1
  11879  11889     1
  11880  11896     1
  11880  11888     1
  11880  11895     1
  11881  11883     1
  11881  11889     1
  11882  11886     1
  11882  11883     1
  11882  11885     1
  11882  11894     1
  11882  11884     1
  11882  11889     1
  11883  11897     1
  11883  11896     1
  11883  11899     1
  11883  11888     1
  11884  11899     1
  11884  11895     1
  11886  11896     1
  11887  11896     1
  11890  11894     1
  11890  11893     1
  11891  11894     1
  11891  11893     1
  11894  11896     1
  11894  11895     1
  11896  11898     1
  11900  11907     1
  11900  11922     1
  11900  11917     1
  11900  11908     1
  11901  11914     1
  11901  11915     1
  11901  11906     1
  11901  11912     1
  11902  11903     1
  11902  11921     1
  11902  11920     1
  11902  11916     1
  11902  11914     1
  11902  11915     1
  11902  11905     1
  11903  11922     1
  11903  11908     1
  11903  11913     1
  11904  11920     1
  11904  11912     1
  11904  11919     1
  11905  11907     1
  11905  11913     1
  11906  11910     1
  11906  11907     1
  11906  11909     1
  11906  11918     1
  11906  11908     1
  11906  11913     1
  11907  11921     1
  11907  11920     1
  11907  11923     1
  11907  11912     1
  11908  11923     1
  11908  11919     1
  11910  11920     1
  11911  11920     1
  11914  11918     1
  11914  11917     1
  11915  11918     1
  11915  11917     1
  11918  11920     1
  11918  11919     1
  11920  11922     1
  11925  11931     1
  11925  11932     1
  11926  11929     1
  11926  11928     1
  11926  11930     1
  11927  11998     1
  11928  11933     1
  11928  11931     1
  11928  11932     1
  11929  11943     1
  11929  11944     1
  11929  11936     1
  11929  11938     1
  11930  11933     1
  11930  11931     1
  11930  11932     1
  11931  11934     1
  11931  11935     1
  11931  11998     1
  11932  11934     1
  11932  11935     1
  11932  11998     1
  11933  11946     1
  11933  11947     1
  11933  11939     1
  11933  11940     1
  11934  11936     1
  11934  11938     1
  11935  11943     1
  11935  11944     1
  11936  11941     1
  11936  11939     1
  11936  11940     1
  11936  11998     1
  11937  11963     1
  11937  11998     1
  11938  11941     1
  11938  11939     1
  11938  11940     1
  11938  11998     1
  11939  11942     1
  11939  11973     1
  11940  11942     1
  11940  11973     1
  11941  11956     1
  11942  11963     1
  11943  11948     1
  11943  11946     1
  11943  11947     1
  11943  11998     1
  11944  11948     1
  11944  11946     1
  11944  11947     1
  11944  11998     1
  11945  11987     1
  11945  11998     1
  11946  11949     1
  11946  11997     1
  11947  11949     1
  11947  11997     1
  11948  11980     1
  11949  11987     1
  11950  11957     1
  11950  11972     1
  11950  11967     1
  11950  11958     1
  11951  11956     1
  11951  11962     1
  11951  11964     1
  11951  11965     1
  11952  11953     1
  11952  11971     1
  11952  11970     1
  11952  11966     1
  11952  11964     1
  11952  11965     1
  11952  11955     1
  11953  11958     1
  11953  11963     1
  11953  11972     1
  11954  11969     1
  11954  11962     1
  11954  11970     1
  11955  11963     1
  11955  11957     1
  11956  11959     1
  11956  11968     1
  11956  11958     1
  11956  11963     1
  11956  11960     1
  11956  11957     1
  11957  11973     1
  11957  11962     1
  11957  11971     1
  11957  11970     1
  11958  11969     1
  11958  11973     1
  11960  11970     1
  11961  11970     1
  11964  11967     1
  11964  11968     1
  11965  11967     1
  11965  11968     1
  11968  11969     1
  11968  11970     1
  11970  11972     1
  11974  11981     1
  11974  11996     1
  11974  11991     1
  11974  11982     1
  11975  11980     1
  11975  11986     1
  11975  11988     1
  11975  11989     1
  11976  11977     1
  11976  11995     1
  11976  11994     1
  11976  11990     1
  11976  11988     1
  11976  11989     1
  11976  11979     1
  11977  11982     1
  11977  11987     1
  11977  11996     1
  11978  11993     1
  11978  11986     1
  11978  11994     1
  11979  11987     1
  11979  11981     1
  11980  11983     1
  11980  11992     1
  11980  11982     1
  11980  11987     1
  11980  11984     1
  11980  11981     1
  11981  11997     1
  11981  11986     1
  11981  11995     1
  11981  11994     1
  11982  11993     1
  11982  11997     1
  11984  11994     1
  11985  11994     1
  11988  11991     1
  11988  11992     1
  11989  11991     1
  11989  11992     1
  11992  11993     1
  11992  11994     1
  11994  11996     1
  11999  12005     1
  11999  12006     1
  12000  12003     1
  12000  12002     1
  12000  12004     1
  12001  12072     1
  12002  12007     1
  12002  12005     1
  12002  12006     1
  12003  12017     1
  12003  12018     1
  12003  12010     1
  12003  12012     1
  12004  12007     1
  12004  12005     1
  12004  12006     1
  12005  12008     1
  12005  12009     1
  12005  12072     1
  12006  12008     1
  12006  12009     1
  12006  12072     1
  12007  12020     1
  12007  12021     1
  12007  12013     1
  12007  12014     1
  12008  12010     1
  12008  12012     1
  12009  12017     1
  12009  12018     1
  12010  12072     1
  12010  12015     1
  12010  12013     1
  12010  12014     1
  12011  12072     1
  12011  12037     1
  12012  12072     1
  12012  12015     1
  12012  12013     1
  12012  12014     1
  12013  12016     1
  12013  12047     1
  12014  12016     1
  12014  12047     1
  12015  12030     1
  12016  12037     1
  12017  12072     1
  12017  12022     1
  12017  12020     1
  12017  12021     1
  12018  12072     1
  12018  12022     1
  12018  12020     1
  12018  12021     1
  12019  12072     1
  12019  12061     1
  12020  12023     1
  12020  12071     1
  12021  12023     1
  12021  12071     1
  12022  12054     1
  12023  12061     1
  12024  12031     1
  12024  12046     1
  12024  12041     1
  12024  12032     1
  12025  12038     1
  12025  12039     1
  12025  12030     1
  12025  12036     1
  12026  12027     1
  12026  12045     1
  12026  12044     1
  12026  12040     1
  12026  12038     1
  12026  12039     1
  12026  12029     1
  12027  12046     1
  12027  12032     1
  12027  12037     1
  12028  12044     1
  12028  12036     1
  12028  12043     1
  12029  12031     1
  12029  12037     1
  12030  12034     1
  12030  12031     1
  12030  12033     1
  12030  12042     1
  12030  12032     1
  12030  12037     1
  12031  12045     1
  12031  12044     1
  12031  12047     1
  12031  12036     1
  12032  12047     1
  12032  12043     1
  12034  12044     1
  12035  12044     1
  12038  12042     1
  12038  12041     1
  12039  12042     1
  12039  12041     1
  12042  12044     1
  12042  12043     1
  12044  12046     1
  12048  12055     1
  12048  12070     1
  12048  12065     1
  12048  12056     1
  12049  12062     1
  12049  12063     1
  12049  12054     1
  12049  12060     1
  12050  12051     1
  12050  12069     1
  12050  12068     1
  12050  12064     1
  12050  12062     1
  12050  12063     1
  12050  12053     1
  12051  12070     1
  12051  12056     1
  12051  12061     1
  12052  12068     1
  12052  12060     1
  12052  12067     1
  12053  12055     1
  12053  12061     1
  12054  12058     1
  12054  12055     1
  12054  12057     1
  12054  12066     1
  12054  12056     1
  12054  12061     1
  12055  12069     1
  12055  12068     1
  12055  12071     1
  12055  12060     1
  12056  12071     1
  12056  12067     1
  12058  12068     1
  12059  12068     1
  12062  12066     1
  12062  12065     1
  12063  12066     1
  12063  12065     1
  12066  12068     1
  12066  12067     1
  12068  12070     1
  12073  12079     1
  12073  12080     1
  12074  12077     1
  12074  12076     1
  12074  12078     1
  12075  12146     1
  12076  12081     1
  12076  12079     1
  12076  12080     1
  12077  12091     1
  12077  12092     1
  12077  12084     1
  12077  12086     1
  12078  12081     1
  12078  12079     1
  12078  12080     1
  12079  12082     1
  12079  12083     1
  12079  12146     1
  12080  12082     1
  12080  12083     1
  12080  12146     1
  12081  12094     1
  12081  12095     1
  12081  12087     1
  12081  12088     1
  12082  12084     1
  12082  12086     1
  12083  12091     1
  12083  12092     1
  12084  12089     1
  12084  12087     1
  12084  12088     1
  12084  12146     1
  12085  12111     1
  12085  12146     1
  12086  12089     1
  12086  12087     1
  12086  12088     1
  12086  12146     1
  12087  12090     1
  12087  12121     1
  12088  12090     1
  12088  12121     1
  12089  12104     1
  12090  12111     1
  12091  12096     1
  12091  12094     1
  12091  12095     1
  12091  12146     1
  12092  12096     1
  12092  12094     1
  12092  12095     1
  12092  12146     1
  12093  12135     1
  12093  12146     1
  12094  12097     1
  12094  12145     1
  12095  12097     1
  12095  12145     1
  12096  12128     1
  12097  12135     1
  12098  12105     1
  12098  12120     1
  12098  12115     1
  12098  12106     1
  12099  12104     1
  12099  12110     1
  12099  12112     1
  12099  12113     1
  12100  12101     1
  12100  12119     1
  12100  12118     1
  12100  12114     1
  12100  12112     1
  12100  12113     1
  12100  12103     1
  12101  12106     1
  12101  12111     1
  12101  12120     1
  12102  12117     1
  12102  12110     1
  12102  12118     1
  12103  12111     1
  12103  12105     1
  12104  12107     1
  12104  12116     1
  12104  12106     1
  12104  12111     1
  12104  12108     1
  12104  12105     1
  12105  12121     1
  12105  12110     1
  12105  12119     1
  12105  12118     1
  12106  12117     1
  12106  12121     1
  12108  12118     1
  12109  12118     1
  12112  12115     1
  12112  12116     1
  12113  12115     1
  12113  12116     1
  12116  12117     1
  12116  12118     1
  12118  12120     1
  12122  12129     1
  12122  12144     1
  12122  12139     1
  12122  12130     1
  12123  12128     1
  12123  12134     1
  12123  12136     1
  12123  12137     1
  12124  12125     1
  12124  12143     1
  12124  12142     1
  12124  12138     1
  12124  12136     1
  12124  12137     1
  12124  12127     1
  12125  12130     1
  12125  12135     1
  12125  12144     1
  12126  12141     1
  12126  12134     1
  12126  12142     1
  12127  12135     1
  12127  12129     1
  12128  12131     1
  12128  12140     1
  12128  12130     1
  12128  12135     1
  12128  12132     1
  12128  12129     1
  12129  12145     1
  12129  12134     1
  12129  12143     1
  12129  12142     1
  12130  12141     1
  12130  12145     1
  12132  12142     1
  12133  12142     1
  12136  12139     1
  12136  12140     1
  12137  12139     1
  12137  12140     1
  12140  12141     1
  12140  12142     1
  12142  12144     1
  12147  12153     1
  12147  12154     1
  12148  12151     1
  12148  12150     1
  12148  12152     1
  12149  12220     1
  12150  12155     1
  12150  12153     1
  12150  12154     1
  12151  12165     1
  12151  12166     1
  12151  12158     1
  12151  12160     1
  12152  12155     1
  12152  12153     1
  12152  12154     1
  12153  12156     1
  12153  12157     1
  12153  12220     1
  12154  12156     1
  12154  12157     1
  12154  12220     1
  12155  12168     1
  12155  12169     1
  12155  12161     1
  12155  12162     1
  12156  12158     1
  12156  12160     1
  12157  12165     1
  12157  12166     1
  12158  12220     1
  12158  12163     1
  12158  12161     1
  12158  12162     1
  12159  12220     1
  12159  12185     1
  12160  12220     1
  12160  12163     1
  12160  12161     1
  12160  12162     1
  12161  12164     1
  12161  12195     1
  12162  12164     1
  12162  12195     1
  12163  12178     1
  12164  12185     1
  12165  12220     1
  12165  12170     1
  12165  12168     1
  12165  12169     1
  12166  12220     1
  12166  12170     1
  12166  12168     1
  12166  12169     1
  12167  12220     1
  12167  12209     1
  12168  12171     1
  12168  12219     1
  12169  12171     1
  12169  12219     1
  12170  12202     1
  12171  12209     1
  12172  12179     1
  12172  12194     1
  12172  12189     1
  12172  12180     1
  12173  12186     1
  12173  12187     1
  12173  12178     1
  12173  12184     1
  12174  12175     1
  12174  12193     1
  12174  12192     1
  12174  12188     1
  12174  12186     1
  12174  12187     1
  12174  12177     1
  12175  12194     1
  12175  12180     1
  12175  12185     1
  12176  12192     1
  12176  12184     1
  12176  12191     1
  12177  12179     1
  12177  12185     1
  12178  12182     1
  12178  12179     1
  12178  12181     1
  12178  12190     1
  12178  12180     1
  12178  12185     1
  12179  12193     1
  12179  12192     1
  12179  12195     1
  12179  12184     1
  12180  12195     1
  12180  12191     1
  12182  12192     1
  12183  12192     1
  12186  12190     1
  12186  12189     1
  12187  12190     1
  12187  12189     1
  12190  12192     1
  12190  12191     1
  12192  12194     1
  12196  12203     1
  12196  12218     1
  12196  12213     1
  12196  12204     1
  12197  12210     1
  12197  12211     1
  12197  12202     1
  12197  12208     1
  12198  12199     1
  12198  12217     1
  12198  12216     1
  12198  12212     1
  12198  12210     1
  12198  12211     1
  12198  12201     1
  12199  12218     1
  12199  12204     1
  12199  12209     1
  12200  12216     1
  12200  12208     1
  12200  12215     1
  12201  12203     1
  12201  12209     1
  12202  12206     1
  12202  12203     1
  12202  12205     1
  12202  12214     1
  12202  12204     1
  12202  12209     1
  12203  12217     1
  12203  12216     1
  12203  12219     1
  12203  12208     1
  12204  12219     1
  12204  12215     1
  12206  12216     1
  12207  12216     1
  12210  12214     1
  12210  12213     1
  12211  12214     1
  12211  12213     1
  12214  12216     1
  12214  12215     1
  12216  12218     1
  12221  12227     1
  12221  12228     1
  12222  12225     1
  12222  12224     1
  12222  12226     1
  12223  12294     1
  12224  12229     1
  12224  12227     1
  12224  12228     1
  12225  12239     1
  12225  12240     1
  12225  12232     1
  12225  12234     1
  12226  12229     1
  12226  12227     1
  12226  12228     1
  12227  12230     1
  12227  12231     1
  12227  12294     1
  12228  12230     1
  12228  12231     1
  12228  12294     1
  12229  12242     1
  12229  12243     1
  12229  12235     1
  12229  12236     1
  12230  12232     1
  12230  12234     1
  12231  12239     1
  12231  12240     1
  12232  12237     1
  12232  12235     1
  12232  12236     1
  12232  12294     1
  12233  12259     1
  12233  12294     1
  12234  12237     1
  12234  12235     1
  12234  12236     1
  12234  12294     1
  12235  12238     1
  12235  12269     1
  12236  12238     1
  12236  12269     1
  12237  12252     1
  12238  12259     1
  12239  12244     1
  12239  12242     1
  12239  12243     1
  12239  12294     1
  12240  12244     1
  12240  12242     1
  12240  12243     1
  12240  12294     1
  12241  12283     1
  12241  12294     1
  12242  12245     1
  12242  12293     1
  12243  12245     1
  12243  12293     1
  12244  12276     1
  12245  12283     1
  12246  12253     1
  12246  12268     1
  12246  12263     1
  12246  12254     1
  12247  12252     1
  12247  12258     1
  12247  12260     1
  12247  12261     1
  12248  12249     1
  12248  12267     1
  12248  12266     1
  12248  12262     1
  12248  12260     1
  12248  12261     1
  12248  12251     1
  12249  12254     1
  12249  12259     1
  12249  12268     1
  12250  12265     1
  12250  12258     1
  12250  12266     1
  12251  12259     1
  12251  12253     1
  12252  12255     1
  12252  12264     1
  12252  12254     1
  12252  12259     1
  12252  12256     1
  12252  12253     1
  12253  12269     1
  12253  12258     1
  12253  12267     1
  12253  12266     1
  12254  12265     1
  12254  12269     1
  12256  12266     1
  12257  12266     1
  12260  12263     1
  12260  12264     1
  12261  12263     1
  12261  12264     1
  12264  12265     1
  12264  12266     1
  12266  12268     1
  12270  12277     1
  12270  12292     1
  12270  12287     1
  12270  12278     1
  12271  12276     1
  12271  12282     1
  12271  12284     1
  12271  12285     1
  12272  12273     1
  12272  12291     1
  12272  12290     1
  12272  12286     1
  12272  12284     1
  12272  12285     1
  12272  12275     1
  12273  12278     1
  12273  12283     1
  12273  12292     1
  12274  12289     1
  12274  12282     1
  12274  12290     1
  12275  12283     1
  12275  12277     1
  12276  12279     1
  12276  12288     1
  12276  12278     1
  12276  12283     1
  12276  12280     1
  12276  12277     1
  12277  12293     1
  12277  12282     1
  12277  12291     1
  12277  12290     1
  12278  12289     1
  12278  12293     1
  12280  12290     1
  12281  12290     1
  12284  12287     1
  12284  12288     1
  12285  12287     1
  12285  12288     1
  12288  12289     1
  12288  12290     1
  12290  12292     1
  12295  12301     1
  12295  12302     1
  12296  12299     1
  12296  12298     1
  12296  12300     1
  12297  12368     1
  12298  12303     1
  12298  12301     1
  12298  12302     1
  12299  12313     1
  12299  12314     1
  12299  12306     1
  12299  12308     1
  12300  12303     1
  12300  12301     1
  12300  12302     1
  12301  12304     1
  12301  12305     1
  12301  12368     1
  12302  12304     1
  12302  12305     1
  12302  12368     1
  12303  12316     1
  12303  12317     1
  12303  12309     1
  12303  12310     1
  12304  12306     1
  12304  12308     1
  12305  12313     1
  12305  12314     1
  12306  12368     1
  12306  12311     1
  12306  12309     1
  12306  12310     1
  12307  12368     1
  12307  12333     1
  12308  12368     1
  12308  12311     1
  12308  12309     1
  12308  12310     1
  12309  12312     1
  12309  12343     1
  12310  12312     1
  12310  12343     1
  12311  12326     1
  12312  12333     1
  12313  12368     1
  12313  12318     1
  12313  12316     1
  12313  12317     1
  12314  12368     1
  12314  12318     1
  12314  12316     1
  12314  12317     1
  12315  12368     1
  12315  12357     1
  12316  12319     1
  12316  12367     1
  12317  12319     1
  12317  12367     1
  12318  12350     1
  12319  12357     1
  12320  12327     1
  12320  12342     1
  12320  12337     1
  12320  12328     1
  12321  12334     1
  12321  12335     1
  12321  12326     1
  12321  12332     1
  12322  12323     1
  12322  12341     1
  12322  12340     1
  12322  12336     1
  12322  12334     1
  12322  12335     1
  12322  12325     1
  12323  12342     1
  12323  12328     1
  12323  12333     1
  12324  12340     1
  12324  12332     1
  12324  12339     1
  12325  12327     1
  12325  12333     1
  12326  12330     1
  12326  12327     1
  12326  12329     1
  12326  12338     1
  12326  12328     1
  12326  12333     1
  12327  12341     1
  12327  12340     1
  12327  12343     1
  12327  12332     1
  12328  12343     1
  12328  12339     1
  12330  12340     1
  12331  12340     1
  12334  12338     1
  12334  12337     1
  12335  12338     1
  12335  12337     1
  12338  12340     1
  12338  12339     1
  12340  12342     1
  12344  12351     1
  12344  12366     1
  12344  12361     1
  12344  12352     1
  12345  12358     1
  12345  12359     1
  12345  12350     1
  12345  12356     1
  12346  12347     1
  12346  12365     1
  12346  12364     1
  12346  12360     1
  12346  12358     1
  12346  12359     1
  12346  12349     1
  12347  12366     1
  12347  12352     1
  12347  12357     1
  12348  12364     1
  12348  12356     1
  12348  12363     1
  12349  12351     1
  12349  12357     1
  12350  12354     1
  12350  12351     1
  12350  12353     1
  12350  12362     1
  12350  12352     1
  12350  12357     1
  12351  12365     1
  12351  12364     1
  12351  12367     1
  12351  12356     1
  12352  12367     1
  12352  12363     1
  12354  12364     1
  12355  12364     1
  12358  12362     1
  12358  12361     1
  12359  12362     1
  12359  12361     1
  12362  12364     1
  12362  12363     1
  12364  12366     1
  12369  12375     1
  12369  12376     1
  12370  12373     1
  12370  12372     1
  12370  12374     1
  12371  12442     1
  12372  12377     1
  12372  12375     1
  12372  12376     1
  12373  12387     1
  12373  12388     1
  12373  12380     1
  12373  12382     1
  12374  12377     1
  12374  12375     1
  12374  12376     1
  12375  12378     1
  12375  12379     1
  12375  12442     1
  12376  12378     1
  12376  12379     1
  12376  12442     1
  12377  12390     1
  12377  12391     1
  12377  12383     1
  12377  12384     1
  12378  12380     1
  12378  12382     1
  12379  12387     1
  12379  12388     1
  12380  12385     1
  12380  12383     1
  12380  12384     1
  12380  12442     1
  12381  12407     1
  12381  12442     1
  12382  12385     1
  12382  12383     1
  12382  12384     1
  12382  12442     1
  12383  12386     1
  12383  12417     1
  12384  12386     1
  12384  12417     1
  12385  12400     1
  12386  12407     1
  12387  12392     1
  12387  12390     1
  12387  12391     1
  12387  12442     1
  12388  12392     1
  12388  12390     1
  12388  12391     1
  12388  12442     1
  12389  12431     1
  12389  12442     1
  12390  12393     1
  12390  12441     1
  12391  12393     1
  12391  12441     1
  12392  12424     1
  12393  12431     1
  12394  12401     1
  12394  12416     1
  12394  12411     1
  12394  12402     1
  12395  12400     1
  12395  12406     1
  12395  12408     1
  12395  12409     1
  12396  12397     1
  12396  12415     1
  12396  12414     1
  12396  12410     1
  12396  12408     1
  12396  12409     1
  12396  12399     1
  12397  12402     1
  12397  12407     1
  12397  12416     1
  12398  12413     1
  12398  12406     1
  12398  12414     1
  12399  12407     1
  12399  12401     1
  12400  12403     1
  12400  12412     1
  12400  12402     1
  12400  12407     1
  12400  12404     1
  12400  12401     1
  12401  12417     1
  12401  12406     1
  12401  12415     1
  12401  12414     1
  12402  12413     1
  12402  12417     1
  12404  12414     1
  12405  12414     1
  12408  12411     1
  12408  12412     1
  12409  12411     1
  12409  12412     1
  12412  12413     1
  12412  12414     1
  12414  12416     1
  12418  12425     1
  12418  12440     1
  12418  12435     1
  12418  12426     1
  12419  12424     1
  12419  12430     1
  12419  12432     1
  12419  12433     1
  12420  12421     1
  12420  12439     1
  12420  12438     1
  12420  12434     1
  12420  12432     1
  12420  12433     1
  12420  12423     1
  12421  12426     1
  12421  12431     1
  12421  12440     1
  12422  12437     1
  12422  12430     1
  12422  12438     1
  12423  12431     1
  12423  12425     1
  12424  12427     1
  12424  12436     1
  12424  12426     1
  12424  12431     1
  12424  12428     1
  12424  12425     1
  12425  12441     1
  12425  12430     1
  12425  12439     1
  12425  12438     1
  12426  12437     1
  12426  12441     1
  12428  12438     1
  12429  12438     1
  12432  12435     1
  12432  12436     1
  12433  12435     1
  12433  12436     1
  12436  12437     1
  12436  12438     1
  12438  12440     1
  12443  12449     1
  12443  12450     1
  12444  12447     1
  12444  12446     1
  12444  12448     1
  12445  12516     1
  12446  12451     1
  12446  12449     1
  12446  12450     1
  12447  12461     1
  12447  12462     1
  12447  12454     1
  12447  12456     1
  12448  12451     1
  12448  12449     1
  12448  12450     1
  12449  12452     1
  12449  12453     1
  12449  12516     1
  12450  12452     1
  12450  12453     1
  12450  12516     1
  12451  12464     1
  12451  12465     1
  12451  12457     1
  12451  12458     1
  12452  12454     1
  12452  12456     1
  12453  12461     1
  12453  12462     1
  12454  12516     1
  12454  12459     1
  12454  12457     1
  12454  12458     1
  12455  12516     1
  12455  12481     1
  12456  12516     1
  12456  12459     1
  12456  12457     1
  12456  12458     1
  12457  12460     1
  12457  12491     1
  12458  12460     1
  12458  12491     1
  12459  12474     1
  12460  12481     1
  12461  12516     1
  12461  12466     1
  12461  12464     1
  12461  12465     1
  12462  12516     1
  12462  12466     1
  12462  12464     1
  12462  12465     1
  12463  12516     1
  12463  12505     1
  12464  12467     1
  12464  12515     1
  12465  12467     1
  12465  12515     1
  12466  12498     1
  12467  12505     1
  12468  12475     1
  12468  12490     1
  12468  12485     1
  12468  12476     1
  12469  12482     1
  12469  12483     1
  12469  12474     1
  12469  12480     1
  12470  12471     1
  12470  12489     1
  12470  12488     1
  12470  12484     1
  12470  12482     1
  12470  12483     1
  12470  12473     1
  12471  12490     1
  12471  12476     1
  12471  12481     1
  12472  12488     1
  12472  12480     1
  12472  12487     1
  12473  12475     1
  12473  12481     1
  12474  12478     1
  12474  12475     1
  12474  12477     1
  12474  12486     1
  12474  12476     1
  12474  12481     1
  12475  12489     1
  12475  12488     1
  12475  12491     1
  12475  12480     1
  12476  12491     1
  12476  12487     1
  12478  12488     1
  12479  12488     1
  12482  12486     1
  12482  12485     1
  12483  12486     1
  12483  12485     1
  12486  12488     1
  12486  12487     1
  12488  12490     1
  12492  12499     1
  12492  12514     1
  12492  12509     1
  12492  12500     1
  12493  12506     1
  12493  12507     1
  12493  12498     1
  12493  12504     1
  12494  12495     1
  12494  12513     1
  12494  12512     1
  12494  12508     1
  12494  12506     1
  12494  12507     1
  12494  12497     1
  12495  12514     1
  12495  12500     1
  12495  12505     1
  12496  12512     1
  12496  12504     1
  12496  12511     1
  12497  12499     1
  12497  12505     1
  12498  12502     1
  12498  12499     1
  12498  12501     1
  12498  12510     1
  12498  12500     1
  12498  12505     1
  12499  12513     1
  12499  12512     1
  12499  12515     1
  12499  12504     1
  12500  12515     1
  12500  12511     1
  12502  12512     1
  12503  12512     1
  12506  12510     1
  12506  12509     1
  12507  12510     1
  12507  12509     1
  12510  12512     1
  12510  12511     1
  12512  12514     1
  12517  12523     1
  12517  12524     1
  12518  12521     1
  12518  12520     1
  12518  12522     1
  12519  12590     1
  12520  12525     1
  12520  12523     1
  12520  12524     1
  12521  12535     1
  12521  12536     1
  12521  12528     1
  12521  12530     1
  12522  12525     1
  12522  12523     1
  12522  12524     1
  12523  12526     1
  12523  12527     1
  12523  12590     1
  12524  12526     1
  12524  12527     1
  12524  12590     1
  12525  12538     1
  12525  12539     1
  12525  12531     1
  12525  12532     1
  12526  12528     1
  12526  12530     1
  12527  12535     1
  12527  12536     1
  12528  12533     1
  12528  12531     1
  12528  12532     1
  12528  12590     1
  12529  12555     1
  12529  12590     1
  12530  12533     1
  12530  12531     1
  12530  12532     1
  12530  12590     1
  12531  12534     1
  12531  12565     1
  12532  12534     1
  12532  12565     1
  12533  12548     1
  12534  12555     1
  12535  12540     1
  12535  12538     1
  12535  12539     1
  12535  12590     1
  12536  12540     1
  12536  12538     1
  12536  12539     1
  12536  12590     1
  12537  12579     1
  12537  12590     1
  12538  12541     1
  12538  12589     1
  12539  12541     1
  12539  12589     1
  12540  12572     1
  12541  12579     1
  12542  12549     1
  12542  12564     1
  12542  12559     1
  12542  12550     1
  12543  12548     1
  12543  12554     1
  12543  12556     1
  12543  12557     1
  12544  12545     1
  12544  12563     1
  12544  12562     1
  12544  12558     1
  12544  12556     1
  12544  12557     1
  12544  12547     1
  12545  12550     1
  12545  12555     1
  12545  12564     1
  12546  12561     1
  12546  12554     1
  12546  12562     1
  12547  12555     1
  12547  12549     1
  12548  12551     1
  12548  12560     1
  12548  12550     1
  12548  12555     1
  12548  12552     1
  12548  12549     1
  12549  12565     1
  12549  12554     1
  12549  12563     1
  12549  12562     1
  12550  12561     1
  12550  12565     1
  12552  12562     1
  12553  12562     1
  12556  12559     1
  12556  12560     1
  12557  12559     1
  12557  12560     1
  12560  12561     1
  12560  12562     1
  12562  12564     1
  12566  12573     1
  12566  12588     1
  12566  12583     1
  12566  12574     1
  12567  12572     1
  12567  12578     1
  12567  12580     1
  12567  12581     1
  12568  12569     1
  12568  12587     1
  12568  12586     1
  12568  12582     1
  12568  12580     1
  12568  12581     1
  12568  12571     1
  12569  12574     1
  12569  12579     1
  12569  12588     1
  12570  12585     1
  12570  12578     1
  12570  12586     1
  12571  12579     1
  12571  12573     1
  12572  12575     1
  12572  12584     1
  12572  12574     1
  12572  12579     1
  12572  12576     1
  12572  12573     1
  12573  12589     1
  12573  12578     1
  12573  12587     1
  12573  12586     1
  12574  12585     1
  12574  12589     1
  12576  12586     1
  12577  12586     1
  12580  12583     1
  12580  12584     1
  12581  12583     1
  12581  12584     1
  12584  12585     1
  12584  12586     1
  12586  12588     1
  12591  12597     1
  12591  12598     1
  12592  12595     1
  12592  12594     1
  12592  12596     1
  12593  12664     1
  12594  12599     1
  12594  12597     1
  12594  12598     1
  12595  12609     1
  12595  12610     1
  12595  12602     1
  12595  12604     1
  12596  12599     1
  12596  12597     1
  12596  12598     1
  12597  12600     1
  12597  12601     1
  12597  12664     1
  12598  12600     1
  12598  12601     1
  12598  12664     1
  12599  12612     1
  12599  12613     1
  12599  12605     1
  12599  12606     1
  12600  12602     1
  12600  12604     1
  12601  12609     1
  12601  12610     1
  12602  12664     1
  12602  12607     1
  12602  12605     1
  12602  12606     1
  12603  12664     1
  12603  12629     1
  12604  12664     1
  12604  12607     1
  12604  12605     1
  12604  12606     1
  12605  12608     1
  12605  12639     1
  12606  12608     1
  12606  12639     1
  12607  12622     1
  12608  12629     1
  12609  12664     1
  12609  12614     1
  12609  12612     1
  12609  12613     1
  12610  12664     1
  12610  12614     1
  12610  12612     1
  12610  12613     1
  12611  12664     1
  12611  12653     1
  12612  12615     1
  12612  12663     1
  12613  12615     1
  12613  12663     1
  12614  12646     1
  12615  12653     1
  12616  12623     1
  12616  12638     1
  12616  12633     1
  12616  12624     1
  12617  12630     1
  12617  12631     1
  12617  12622     1
  12617  12628     1
  12618  12619     1
  12618  12637     1
  12618  12636     1
  12618  12632     1
  12618  12630     1
  12618  12631     1
  12618  12621     1
  12619  12638     1
  12619  12624     1
  12619  12629     1
  12620  12636     1
  12620  12628     1
  12620  12635     1
  12621  12623     1
  12621  12629     1
  12622  12626     1
  12622  12623     1
  12622  12625     1
  12622  12634     1
  12622  12624     1
  12622  12629     1
  12623  12637     1
  12623  12636     1
  12623  12639     1
  12623  12628     1
  12624  12639     1
  12624  12635     1
  12626  12636     1
  12627  12636     1
  12630  12634     1
  12630  12633     1
  12631  12634     1
  12631  12633     1
  12634  12636     1
  12634  12635     1
  12636  12638     1
  12640  12647     1
  12640  12662     1
  12640  12657     1
  12640  12648     1
  12641  12654     1
  12641  12655     1
  12641  12646     1
  12641  12652     1
  12642  12643     1
  12642  12661     1
  12642  12660     1
  12642  12656     1
  12642  12654     1
  12642  12655     1
  12642  12645     1
  12643  12662     1
  12643  12648     1
  12643  12653     1
  12644  12660     1
  12644  12652     1
  12644  12659     1
  12645  12647     1
  12645  12653     1
  12646  12650     1
  12646  12647     1
  12646  12649     1
  12646  12658     1
  12646  12648     1
  12646  12653     1
  12647  12661     1
  12647  12660     1
  12647  12663     1
  12647  12652     1
  12648  12663     1
  12648  12659     1
  12650  12660     1
  12651  12660     1
  12654  12658     1
  12654  12657     1
  12655  12658     1
  12655  12657     1
  12658  12660     1
  12658  12659     1
  12660  12662     1
  12665  12671     1
  12665  12672     1
  12666  12669     1
  12666  12668     1
  12666  12670     1
  12667  12738     1
  12668  12673     1
  12668  12671     1
  12668  12672     1
  12669  12683     1
  12669  12684     1
  12669  12676     1
  12669  12678     1
  12670  12673     1
  12670  12671     1
  12670  12672     1
  12671  12674     1
  12671  12675     1
  12671  12738     1
  12672  12674     1
  12672  12675     1
  12672  12738     1
  12673  12686     1
  12673  12687     1
  12673  12679     1
  12673  12680     1
  12674  12676     1
  12674  12678     1
  12675  12683     1
  12675  12684     1
  12676  12681     1
  12676  12679     1
  12676  12680     1
  12676  12738     1
  12677  12703     1
  12677  12738     1
  12678  12681     1
  12678  12679     1
  12678  12680     1
  12678  12738     1
  12679  12682     1
  12679  12713     1
  12680  12682     1
  12680  12713     1
  12681  12696     1
  12682  12703     1
  12683  12688     1
  12683  12686     1
  12683  12687     1
  12683  12738     1
  12684  12688     1
  12684  12686     1
  12684  12687     1
  12684  12738     1
  12685  12727     1
  12685  12738     1
  12686  12689     1
  12686  12737     1
  12687  12689     1
  12687  12737     1
  12688  12720     1
  12689  12727     1
  12690  12697     1
  12690  12712     1
  12690  12707     1
  12690  12698     1
  12691  12696     1
  12691  12702     1
  12691  12704     1
  12691  12705     1
  12692  12693     1
  12692  12711     1
  12692  12710     1
  12692  12706     1
  12692  12704     1
  12692  12705     1
  12692  12695     1
  12693  12698     1
  12693  12703     1
  12693  12712     1
  12694  12709     1
  12694  12702     1
  12694  12710     1
  12695  12703     1
  12695  12697     1
  12696  12699     1
  12696  12708     1
  12696  12698     1
  12696  12703     1
  12696  12700     1
  12696  12697     1
  12697  12713     1
  12697  12702     1
  12697  12711     1
  12697  12710     1
  12698  12709     1
  12698  12713     1
  12700  12710     1
  12701  12710     1
  12704  12707     1
  12704  12708     1
  12705  12707     1
  12705  12708     1
  12708  12709     1
  12708  12710     1
  12710  12712     1
  12714  12721     1
  12714  12736     1
  12714  12731     1
  12714  12722     1
  12715  12720     1
  12715  12726     1
  12715  12728     1
  12715  12729     1
  12716  12717     1
  12716  12735     1
  12716  12734     1
  12716  12730     1
  12716  12728     1
  12716  12729     1
  12716  12719     1
  12717  12722     1
  12717  12727     1
  12717  12736     1
  12718  12733     1
  12718  12726     1
  12718  12734     1
  12719  12727     1
  12719  12721     1
  12720  12723     1
  12720  12732     1
  12720  12722     1
  12720  12727     1
  12720  12724     1
  12720  12721     1
  12721  12737     1
  12721  12726     1
  12721  12735     1
  12721  12734     1
  12722  12733     1
  12722  12737     1
  12724  12734     1
  12725  12734     1
  12728  12731     1
  12728  12732     1
  12729  12731     1
  12729  12732     1
  12732  12733     1
  12732  12734     1
  12734  12736     1

[ angles ]
;    ai     aj     ak funct         c0         c1         c2         c3
      1      2      3     1   114.2100488 537.225600
      1      7     13     1   114.2100488 537.225600
      1      8     15     1   114.2100488 537.225600
      2      1      7     1   109.6600471 523.836800
      2      1      8     1   109.6600471 523.836800
      2      3      4     1   114.2100488 537.225600
      3      4      5     1   109.6600471 523.836800
      3      4      6     1   109.6600471 523.836800
      4      5     11     1   114.2100488 537.225600
      4      6      9     1   114.2100488 537.225600
      5      4      6     1   109.6600471 523.836800
      5     11     12     1   111.0400475 529.694400
      6      9     10     1   111.0400475 529.694400
      7      1      8     1   109.6600471 523.836800
      7     13     14     1   111.0400475 529.694400
      8     15     16     1   111.0400475 529.694400
      9     10     18     1   123.2000528 564.003200
      9     10     52     1   115.1800491 558.982400
     10     52     51     1   120.6900519 530.531200
     11     12     17     1   123.2000528 564.003200
     11     12     78     1   115.1800491 558.982400
     12     78     77     1   120.6900519 530.531200
     13     14     20     1   123.2000528 564.003200
     13     14    104     1   115.1800491 558.982400
     14    104    103     1   120.6900519 530.531200
     15     16     19     1   123.2000528 564.003200
     15     16    130     1   115.1800491 558.982400
     16    130    129     1   120.6900519 530.531200
     17     12     78     1   123.0500530 620.905600
     18     10     52     1   123.0500530 620.905600
     19     16    130     1   123.0500530 620.905600
     20     14    104     1   123.0500530 620.905600
     43     44     46     1   114.2100488 537.225600
     43     45     48     1   114.2100488 537.225600
     43     50     51     1   114.2100488 537.225600
     44     43     45     1   109.6600471 523.836800
     44     43     50     1   109.6600471 523.836800
     44     46     47     1   111.0400475 529.694400
     45     43     50     1   109.6600471 523.836800
     45     48     49     1   111.0400475 529.694400
     46     47     53     1   123.2000528 564.003200
     46     47    156     1   115.1800491 558.982400
     47    156    155     1   120.6900519 530.531200
     48     49     54     1   123.2000528 564.003200
     48     49    182     1   115.1800491 558.982400
     49    182    181     1   120.6900519 530.531200
     50     51     52     1   111.6100477 551.451200
     53     47    156     1   123.0500530 620.905600
     54     49    182     1   123.0500530 620.905600
     69     70     72     1   114.2100488 537.225600
     69     71     74     1   114.2100488 537.225600
     69     76     77     1   114.2100488 537.225600
     70     69     71     1   109.6600471 523.836800
     70     69     76     1   109.6600471 523.836800
     70     72     73     1   111.0400475 529.694400
     71     69     76     1   109.6600471 523.836800
     71     74     75     1   111.0400475 529.694400
     72     73     79     1   123.2000528 564.003200
     72     73    208     1   115.1800491 558.982400
     73    208    207     1   120.6900519 530.531200
     74     75     80     1   123.2000528 564.003200
     74     75    234     1   115.1800491 558.982400
     75    234    233     1   120.6900519 530.531200
     76     77     78     1   111.6100477 551.451200
     79     73    208     1   123.0500530 620.905600
     80     75    234     1   123.0500530 620.905600
     95     96     98     1   114.2100488 537.225600
     95     97    100     1   114.2100488 537.225600
     95    102    103     1   114.2100488 537.225600
     96     95     97     1   109.6600471 523.836800
     96     95    102     1   109.6600471 523.836800
     96     98     99     1   111.0400475 529.694400
     97     95    102     1   109.6600471 523.836800
     97    100    101     1   111.0400475 529.694400
     98     99    105     1   123.2000528 564.003200
     98     99    260     1   115.1800491 558.982400
     99    260    259     1   120.6900519 530.531200
    100    101    106     1   123.2000528 564.003200
    100    101    286     1   115.1800491 558.982400
    101    286    285     1   120.6900519 530.531200
    102    103    104     1   111.6100477 551.451200
    105     99    260     1   123.0500530 620.905600
    106    101    286     1   123.0500530 620.905600
    121    122    124     1   114.2100488 537.225600
    121    123    126     1   114.2100488 537.225600
    121    128    129     1   114.2100488 537.225600
    122    121    123     1   109.6600471 523.836800
    122    121    128     1   109.6600471 523.836800
    122    124    125     1   111.0400475 529.694400
    123    121    128     1   109.6600471 523.836800
    123    126    127     1   111.0400475 529.694400
    124    125    131     1   123.2000528 564.003200
    124    125    312     1   115.1800491 558.982400
    125    312    311     1   120.6900519 530.531200
    126    127    132     1   123.2000528 564.003200
    126    127    338     1   115.1800491 558.982400
    127    338    337     1   120.6900519 530.531200
    128    129    130     1   111.6100477 551.451200
    131    125    312     1   123.0500530 620.905600
    132    127    338     1   123.0500530 620.905600
    147    148    150     1   114.2100488 537.225600
    147    149    152     1   114.2100488 537.225600
    147    154    155     1   114.2100488 537.225600
    148    147    149     1   109.6600471 523.836800
    148    147    154     1   109.6600471 523.836800
    148    150    151     1   111.0400475 529.694400
    149    147    154     1   109.6600471 523.836800
    149    152    153     1   111.0400475 529.694400
    150    151    157     1   123.2000528 564.003200
    150    151    364     1   115.1800491 558.982400
    151    364    363     1   120.6900519 530.531200
    152    153    158     1   123.2000528 564.003200
    152    153    390     1   115.1800491 558.982400
    153    390    389     1   120.6900519 530.531200
    154    155    156     1   111.6100477 551.451200
    157    151    364     1   123.0500530 620.905600
    158    153    390     1   123.0500530 620.905600
    173    174    176     1   114.2100488 537.225600
    173    175    178     1   114.2100488 537.225600
    173    180    181     1   114.2100488 537.225600
    174    173    175     1   109.6600471 523.836800
    174    173    180     1   109.6600471 523.836800
    174    176    177     1   111.0400475 529.694400
    175    173    180     1   109.6600471 523.836800
    175    178    179     1   111.0400475 529.694400
    176    177    183     1   123.2000528 564.003200
    176    177    416     1   115.1800491 558.982400
    177    416    415     1   120.6900519 530.531200
    178    179    184     1   123.2000528 564.003200
    178    179    442     1   115.1800491 558.982400
    179    442    441     1   120.6900519 530.531200
    180    181    182     1   111.6100477 551.451200
    183    177    416     1   123.0500530 620.905600
    184    179    442     1   123.0500530 620.905600
    199    200    202     1   114.2100488 537.225600
    199    201    204     1   114.2100488 537.225600
    199    206    207     1   114.2100488 537.225600
    200    199    201     1   109.6600471 523.836800
    200    199    206     1   109.6600471 523.836800
    200    202    203     1   111.0400475 529.694400
    201    199    206     1   109.6600471 523.836800
    201    204    205     1   111.0400475 529.694400
    202    203    209     1   123.2000528 564.003200
    202    203    468     1   115.1800491 558.982400
    203    468    467     1   120.6900519 530.531200
    204    205    210     1   123.2000528 564.003200
    204    205    494     1   115.1800491 558.982400
    205    494    493     1   120.6900519 530.531200
    206    207    208     1   111.6100477 551.451200
    209    203    468     1   123.0500530 620.905600
    210    205    494     1   123.0500530 620.905600
    225    226    228     1   114.2100488 537.225600
    225    227    230     1   114.2100488 537.225600
    225    232    233     1   114.2100488 537.225600
    226    225    227     1   109.6600471 523.836800
    226    225    232     1   109.6600471 523.836800
    226    228    229     1   111.0400475 529.694400
    227    225    232     1   109.6600471 523.836800
    227    230    231     1   111.0400475 529.694400
    228    229    235     1   123.2000528 564.003200
    228    229    520     1   115.1800491 558.982400
    229    520    519     1   120.6900519 530.531200
    230    231    236     1   123.2000528 564.003200
    230    231    546     1   115.1800491 558.982400
    231    546    545     1   120.6900519 530.531200
    232    233    234     1   111.6100477 551.451200
    235    229    520     1   123.0500530 620.905600
    236    231    546     1   123.0500530 620.905600
    251    252    254     1   114.2100488 537.225600
    251    253    256     1   114.2100488 537.225600
    251    258    259     1   114.2100488 537.225600
    252    251    253     1   109.6600471 523.836800
    252    251    258     1   109.6600471 523.836800
    252    254    255     1   111.0400475 529.694400
    253    251    258     1   109.6600471 523.836800
    253    256    257     1   111.0400475 529.694400
    254    255    261     1   123.2000528 564.003200
    254    255    572     1   115.1800491 558.982400
    255    572    571     1   120.6900519 530.531200
    256    257    262     1   123.2000528 564.003200
    256    257    598     1   115.1800491 558.982400
    257    598    597     1   120.6900519 530.531200
    258    259    260     1   111.6100477 551.451200
    261    255    572     1   123.0500530 620.905600
    262    257    598     1   123.0500530 620.905600
    277    278    280     1   114.2100488 537.225600
    277    279    282     1   114.2100488 537.225600
    277    284    285     1   114.2100488 537.225600
    278    277    279     1   109.6600471 523.836800
    278    277    284     1   109.6600471 523.836800
    278    280    281     1   111.0400475 529.694400
    279    277    284     1   109.6600471 523.836800
    279    282    283     1   111.0400475 529.694400
    280    281    287     1   123.2000528 564.003200
    280    281    624     1   115.1800491 558.982400
    281    624    623     1   120.6900519 530.531200
    282    283    288     1   123.2000528 564.003200
    282    283    650     1   115.1800491 558.982400
    283    650    649     1   120.6900519 530.531200
    284    285    286     1   111.6100477 551.451200
    287    281    624     1   123.0500530 620.905600
    288    283    650     1   123.0500530 620.905600
    303    304    306     1   114.2100488 537.225600
    303    305    308     1   114.2100488 537.225600
    303    310    311     1   114.2100488 537.225600
    304    303    305     1   109.6600471 523.836800
    304    303    310     1   109.6600471 523.836800
    304    306    307     1   111.0400475 529.694400
    305    303    310     1   109.6600471 523.836800
    305    308    309     1   111.0400475 529.694400
    306    307    313     1   123.2000528 564.003200
    306    307    676     1   115.1800491 558.982400
    307    676    675     1   120.6900519 530.531200
    308    309    314     1   123.2000528 564.003200
    308    309    702     1   115.1800491 558.982400
    309    702    701     1   120.6900519 530.531200
    310    311    312     1   111.6100477 551.451200
    313    307    676     1   123.0500530 620.905600
    314    309    702     1   123.0500530 620.905600
    329    330    332     1   114.2100488 537.225600
    329    331    334     1   114.2100488 537.225600
    329    336    337     1   114.2100488 537.225600
    330    329    331     1   109.6600471 523.836800
    330    329    336     1   109.6600471 523.836800
    330    332    333     1   111.0400475 529.694400
    331    329    336     1   109.6600471 523.836800
    331    334    335     1   111.0400475 529.694400
    332    333    339     1   123.2000528 564.003200
    332    333    728     1   115.1800491 558.982400
    333    728    727     1   120.6900519 530.531200
    334    335    340     1   123.2000528 564.003200
    334    335    754     1   115.1800491 558.982400
    335    754    753     1   120.6900519 530.531200
    336    337    338     1   111.6100477 551.451200
    339    333    728     1   123.0500530 620.905600
    340    335    754     1   123.0500530 620.905600
    355    356    358     1   114.2100488 537.225600
    355    357    360     1   114.2100488 537.225600
    355    362    363     1   114.2100488 537.225600
    356    355    357     1   109.6600471 523.836800
    356    355    362     1   109.6600471 523.836800
    356    358    359     1   111.0400475 529.694400
    357    355    362     1   109.6600471 523.836800
    357    360    361     1   111.0400475 529.694400
    358    359    365     1   123.2000528 564.003200
    358    359    780     1   115.1800491 558.982400
    359    780    779     1   120.6900519 530.531200
    360    361    366     1   123.2000528 564.003200
    360    361    806     1   115.1800491 558.982400
    361    806    805     1   120.6900519 530.531200
    362    363    364     1   111.6100477 551.451200
    365    359    780     1   123.0500530 620.905600
    366    361    806     1   123.0500530 620.905600
    381    382    384     1   114.2100488 537.225600
    381    383    386     1   114.2100488 537.225600
    381    388    389     1   114.2100488 537.225600
    382    381    383     1   109.6600471 523.836800
    382    381    388     1   109.6600471 523.836800
    382    384    385     1   111.0400475 529.694400
    383    381    388     1   109.6600471 523.836800
    383    386    387     1   111.0400475 529.694400
    384    385    391     1   123.2000528 564.003200
    384    385    832     1   115.1800491 558.982400
    385    832    831     1   120.6900519 530.531200
    386    387    392     1   123.2000528 564.003200
    386    387    858     1   115.1800491 558.982400
    387    858    857     1   120.6900519 530.531200
    388    389    390     1   111.6100477 551.451200
    391    385    832     1   123.0500530 620.905600
    392    387    858     1   123.0500530 620.905600
    407    408    410     1   114.2100488 537.225600
    407    409    412     1   114.2100488 537.225600
    407    414    415     1   114.2100488 537.225600
    408    407    409     1   109.6600471 523.836800
    408    407    414     1   109.6600471 523.836800
    408    410    411     1   111.0400475 529.694400
    409    407    414     1   109.6600471 523.836800
    409    412    413     1   111.0400475 529.694400
    410    411    417     1   123.2000528 564.003200
    410    411    884     1   115.1800491 558.982400
    411    884    883     1   120.6900519 530.531200
    412    413    418     1   123.2000528 564.003200
    412    413    910     1   115.1800491 558.982400
    413    910    909     1   120.6900519 530.531200
    414    415    416     1   111.6100477 551.451200
    417    411    884     1   123.0500530 620.905600
    418    413    910     1   123.0500530 620.905600
    433    434    436     1   114.2100488 537.225600
    433    435    438     1   114.2100488 537.225600
    433    440    441     1   114.2100488 537.225600
    434    433    435     1   109.6600471 523.836800
    434    433    440     1   109.6600471 523.836800
    434    436    437     1   111.0400475 529.694400
    435    433    440     1   109.6600471 523.836800
    435    438    439     1   111.0400475 529.694400
    436    437    443     1   123.2000528 564.003200
    436    437    936     1   115.1800491 558.982400
    437    936    935     1   120.6900519 530.531200
    438    439    444     1   123.2000528 564.003200
    438    439    962     1   115.1800491 558.982400
    439    962    961     1   120.6900519 530.531200
    440    441    442     1   111.6100477 551.451200
    443    437    936     1   123.0500530 620.905600
    444    439    962     1   123.0500530 620.905600
    459    460    462     1   114.2100488 537.225600
    459    461    464     1   114.2100488 537.225600
    459    466    467     1   114.2100488 537.225600
    460    459    461     1   109.6600471 523.836800
    460    459    466     1   109.6600471 523.836800
    460    462    463     1   111.0400475 529.694400
    461    459    466     1   109.6600471 523.836800
    461    464    465     1   111.0400475 529.694400
    462    463    469     1   123.2000528 564.003200
    462    463    988     1   115.1800491 558.982400
    463    988    987     1   120.6900519 530.531200
    464    465    470     1   123.2000528 564.003200
    464    465   1014     1   115.1800491 558.982400
    465   1014   1013     1   120.6900519 530.531200
    466    467    468     1   111.6100477 551.451200
    469    463    988     1   123.0500530 620.905600
    470    465   1014     1   123.0500530 620.905600
    485    486    488     1   114.2100488 537.225600
    485    487    490     1   114.2100488 537.225600
    485    492    493     1   114.2100488 537.225600
    486    485    487     1   109.6600471 523.836800
    486    485    492     1   109.6600471 523.836800
    486    488    489     1   111.0400475 529.694400
    487    485    492     1   109.6600471 523.836800
    487    490    491     1   111.0400475 529.694400
    488    489    495     1   123.2000528 564.003200
    488    489   1040     1   115.1800491 558.982400
    489   1040   1039     1   120.6900519 530.531200
    490    491    496     1   123.2000528 564.003200
    490    491   1066     1   115.1800491 558.982400
    491   1066   1065     1   120.6900519 530.531200
    492    493    494     1   111.6100477 551.451200
    495    489   1040     1   123.0500530 620.905600
    496    491   1066     1   123.0500530 620.905600
    511    512    514     1   114.2100488 537.225600
    511    513    516     1   114.2100488 537.225600
    511    518    519     1   114.2100488 537.225600
    512    511    513     1   109.6600471 523.836800
    512    511    518     1   109.6600471 523.836800
    512    514    515     1   111.0400475 529.694400
    513    511    518     1   109.6600471 523.836800
    513    516    517     1   111.0400475 529.694400
    514    515    521     1   123.2000528 564.003200
    514    515   1092     1   115.1800491 558.982400
    515   1092   1091     1   120.6900519 530.531200
    516    517    522     1   123.2000528 564.003200
    516    517   1118     1   115.1800491 558.982400
    517   1118   1117     1   120.6900519 530.531200
    518    519    520     1   111.6100477 551.451200
    521    515   1092     1   123.0500530 620.905600
    522    517   1118     1   123.0500530 620.905600
    537    538    540     1   114.2100488 537.225600
    537    539    542     1   114.2100488 537.225600
    537    544    545     1   114.2100488 537.225600
    538    537    539     1   109.6600471 523.836800
    538    537    544     1   109.6600471 523.836800
    538    540    541     1   111.0400475 529.694400
    539    537    544     1   109.6600471 523.836800
    539    542    543     1   111.0400475 529.694400
    540    541    547     1   123.2000528 564.003200
    540    541   1144     1   115.1800491 558.982400
    541   1144   1143     1   120.6900519 530.531200
    542    543    548     1   123.2000528 564.003200
    542    543   1170     1   115.1800491 558.982400
    543   1170   1169     1   120.6900519 530.531200
    544    545    546     1   111.6100477 551.451200
    547    541   1144     1   123.0500530 620.905600
    548    543   1170     1   123.0500530 620.905600
    563    564    566     1   114.2100488 537.225600
    563    565    568     1   114.2100488 537.225600
    563    570    571     1   114.2100488 537.225600
    564    563    565     1   109.6600471 523.836800
    564    563    570     1   109.6600471 523.836800
    564    566    567     1   111.0400475 529.694400
    565    563    570     1   109.6600471 523.836800
    565    568    569     1   111.0400475 529.694400
    566    567    573     1   123.2000528 564.003200
    566    567   1196     1   115.1800491 558.982400
    567   1196   1195     1   120.6900519 530.531200
    568    569    574     1   123.2000528 564.003200
    568    569   1222     1   115.1800491 558.982400
    569   1222   1221     1   120.6900519 530.531200
    570    571    572     1   111.6100477 551.451200
    573    567   1196     1   123.0500530 620.905600
    574    569   1222     1   123.0500530 620.905600
    589    590    592     1   114.2100488 537.225600
    589    591    594     1   114.2100488 537.225600
    589    596    597     1   114.2100488 537.225600
    590    589    591     1   109.6600471 523.836800
    590    589    596     1   109.6600471 523.836800
    590    592    593     1   111.0400475 529.694400
    591    589    596     1   109.6600471 523.836800
    591    594    595     1   111.0400475 529.694400
    592    593    599     1   123.2000528 564.003200
    592    593   1248     1   115.1800491 558.982400
    593   1248   1247     1   120.6900519 530.531200
    594    595    600     1   123.2000528 564.003200
    594    595   1274     1   115.1800491 558.982400
    595   1274   1273     1   120.6900519 530.531200
    596    597    598     1   111.6100477 551.451200
    599    593   1248     1   123.0500530 620.905600
    600    595   1274     1   123.0500530 620.905600
    615    616    618     1   114.2100488 537.225600
    615    617    620     1   114.2100488 537.225600
    615    622    623     1   114.2100488 537.225600
    616    615    617     1   109.6600471 523.836800
    616    615    622     1   109.6600471 523.836800
    616    618    619     1   111.0400475 529.694400
    617    615    622     1   109.6600471 523.836800
    617    620    621     1   111.0400475 529.694400
    618    619    625     1   123.2000528 564.003200
    618    619   1300     1   115.1800491 558.982400
    619   1300   1299     1   120.6900519 530.531200
    620    621    626     1   123.2000528 564.003200
    620    621   1326     1   115.1800491 558.982400
    621   1326   1325     1   120.6900519 530.531200
    622    623    624     1   111.6100477 551.451200
    625    619   1300     1   123.0500530 620.905600
    626    621   1326     1   123.0500530 620.905600
    641    642    644     1   114.2100488 537.225600
    641    643    646     1   114.2100488 537.225600
    641    648    649     1   114.2100488 537.225600
    642    641    643     1   109.6600471 523.836800
    642    641    648     1   109.6600471 523.836800
    642    644    645     1   111.0400475 529.694400
    643    641    648     1   109.6600471 523.836800
    643    646    647     1   111.0400475 529.694400
    644    645    651     1   123.2000528 564.003200
    644    645   1352     1   115.1800491 558.982400
    645   1352   1351     1   120.6900519 530.531200
    646    647    652     1   123.2000528 564.003200
    646    647   1378     1   115.1800491 558.982400
    647   1378   1377     1   120.6900519 530.531200
    648    649    650     1   111.6100477 551.451200
    651    645   1352     1   123.0500530 620.905600
    652    647   1378     1   123.0500530 620.905600
    667    668    670     1   114.2100488 537.225600
    667    669    672     1   114.2100488 537.225600
    667    674    675     1   114.2100488 537.225600
    668    667    669     1   109.6600471 523.836800
    668    667    674     1   109.6600471 523.836800
    668    670    671     1   111.0400475 529.694400
    669    667    674     1   109.6600471 523.836800
    669    672    673     1   111.0400475 529.694400
    670    671    677     1   123.2000528 564.003200
    670    671   1404     1   115.1800491 558.982400
    671   1404   1403     1   120.6900519 530.531200
    672    673    678     1   123.2000528 564.003200
    672    673   1430     1   115.1800491 558.982400
    673   1430   1429     1   120.6900519 530.531200
    674    675    676     1   111.6100477 551.451200
    677    671   1404     1   123.0500530 620.905600
    678    673   1430     1   123.0500530 620.905600
    693    694    696     1   114.2100488 537.225600
    693    695    698     1   114.2100488 537.225600
    693    700    701     1   114.2100488 537.225600
    694    693    695     1   109.6600471 523.836800
    694    693    700     1   109.6600471 523.836800
    694    696    697     1   111.0400475 529.694400
    695    693    700     1   109.6600471 523.836800
    695    698    699     1   111.0400475 529.694400
    696    697    703     1   123.2000528 564.003200
    696    697   1456     1   115.1800491 558.982400
    697   1456   1455     1   120.6900519 530.531200
    698    699    704     1   123.2000528 564.003200
    698    699   1482     1   115.1800491 558.982400
    699   1482   1481     1   120.6900519 530.531200
    700    701    702     1   111.6100477 551.451200
    703    697   1456     1   123.0500530 620.905600
    704    699   1482     1   123.0500530 620.905600
    719    720    722     1   114.2100488 537.225600
    719    721    724     1   114.2100488 537.225600
    719    726    727     1   114.2100488 537.225600
    720    719    721     1   109.6600471 523.836800
    720    719    726     1   109.6600471 523.836800
    720    722    723     1   111.0400475 529.694400
    721    719    726     1   109.6600471 523.836800
    721    724    725     1   111.0400475 529.694400
    722    723    729     1   123.2000528 564.003200
    722    723   1508     1   115.1800491 558.982400
    723   1508   1507     1   120.6900519 530.531200
    724    725    730     1   123.2000528 564.003200
    724    725   1534     1   115.1800491 558.982400
    725   1534   1533     1   120.6900519 530.531200
    726    727    728     1   111.6100477 551.451200
    729    723   1508     1   123.0500530 620.905600
    730    725   1534     1   123.0500530 620.905600
    745    746    748     1   114.2100488 537.225600
    745    747    750     1   114.2100488 537.225600
    745    752    753     1   114.2100488 537.225600
    746    745    747     1   109.6600471 523.836800
    746    745    752     1   109.6600471 523.836800
    746    748    749     1   111.0400475 529.694400
    747    745    752     1   109.6600471 523.836800
    747    750    751     1   111.0400475 529.694400
    748    749    755     1   123.2000528 564.003200
    748    749   1560     1   115.1800491 558.982400
    749   1560   1559     1   120.6900519 530.531200
    750    751    756     1   123.2000528 564.003200
    750    751   1586     1   115.1800491 558.982400
    751   1586   1585     1   120.6900519 530.531200
    752    753    754     1   111.6100477 551.451200
    755    749   1560     1   123.0500530 620.905600
    756    751   1586     1   123.0500530 620.905600
    771    772    774     1   114.2100488 537.225600
    771    773    776     1   114.2100488 537.225600
    771    778    779     1   114.2100488 537.225600
    772    771    773     1   109.6600471 523.836800
    772    771    778     1   109.6600471 523.836800
    772    774    775     1   111.0400475 529.694400
    773    771    778     1   109.6600471 523.836800
    773    776    777     1   111.0400475 529.694400
    774    775    781     1   123.2000528 564.003200
    774    775   1612     1   115.1800491 558.982400
    775   1612   1611     1   120.6900519 530.531200
    776    777    782     1   123.2000528 564.003200
    776    777   1638     1   115.1800491 558.982400
    777   1638   1637     1   120.6900519 530.531200
    778    779    780     1   111.6100477 551.451200
    781    775   1612     1   123.0500530 620.905600
    782    777   1638     1   123.0500530 620.905600
    797    798    800     1   114.2100488 537.225600
    797    799    802     1   114.2100488 537.225600
    797    804    805     1   114.2100488 537.225600
    798    797    799     1   109.6600471 523.836800
    798    797    804     1   109.6600471 523.836800
    798    800    801     1   111.0400475 529.694400
    799    797    804     1   109.6600471 523.836800
    799    802    803     1   111.0400475 529.694400
    800    801    807     1   123.2000528 564.003200
    800    801   1664     1   115.1800491 558.982400
    801   1664   1663     1   120.6900519 530.531200
    802    803    808     1   123.2000528 564.003200
    802    803   1690     1   115.1800491 558.982400
    803   1690   1689     1   120.6900519 530.531200
    804    805    806     1   111.6100477 551.451200
    807    801   1664     1   123.0500530 620.905600
    808    803   1690     1   123.0500530 620.905600
    823    824    826     1   114.2100488 537.225600
    823    825    828     1   114.2100488 537.225600
    823    830    831     1   114.2100488 537.225600
    824    823    825     1   109.6600471 523.836800
    824    823    830     1   109.6600471 523.836800
    824    826    827     1   111.0400475 529.694400
    825    823    830     1   109.6600471 523.836800
    825    828    829     1   111.0400475 529.694400
    826    827    833     1   123.2000528 564.003200
    826    827   1716     1   115.1800491 558.982400
    827   1716   1715     1   120.6900519 530.531200
    828    829    834     1   123.2000528 564.003200
    828    829   1742     1   115.1800491 558.982400
    829   1742   1741     1   120.6900519 530.531200
    830    831    832     1   111.6100477 551.451200
    833    827   1716     1   123.0500530 620.905600
    834    829   1742     1   123.0500530 620.905600
    849    850    852     1   114.2100488 537.225600
    849    851    854     1   114.2100488 537.225600
    849    856    857     1   114.2100488 537.225600
    850    849    851     1   109.6600471 523.836800
    850    849    856     1   109.6600471 523.836800
    850    852    853     1   111.0400475 529.694400
    851    849    856     1   109.6600471 523.836800
    851    854    855     1   111.0400475 529.694400
    852    853    859     1   123.2000528 564.003200
    852    853   1768     1   115.1800491 558.982400
    853   1768   1767     1   120.6900519 530.531200
    854    855    860     1   123.2000528 564.003200
    854    855   1794     1   115.1800491 558.982400
    855   1794   1793     1   120.6900519 530.531200
    856    857    858     1   111.6100477 551.451200
    859    853   1768     1   123.0500530 620.905600
    860    855   1794     1   123.0500530 620.905600
    875    876    878     1   114.2100488 537.225600
    875    877    880     1   114.2100488 537.225600
    875    882    883     1   114.2100488 537.225600
    876    875    877     1   109.6600471 523.836800
    876    875    882     1   109.6600471 523.836800
    876    878    879     1   111.0400475 529.694400
    877    875    882     1   109.6600471 523.836800
    877    880    881     1   111.0400475 529.694400
    878    879    885     1   123.2000528 564.003200
    878    879   1820     1   115.1800491 558.982400
    879   1820   1819     1   120.6900519 530.531200
    880    881    886     1   123.2000528 564.003200
    880    881   1846     1   115.1800491 558.982400
    881   1846   1845     1   120.6900519 530.531200
    882    883    884     1   111.6100477 551.451200
    885    879   1820     1   123.0500530 620.905600
    886    881   1846     1   123.0500530 620.905600
    901    902    904     1   114.2100488 537.225600
    901    903    906     1   114.2100488 537.225600
    901    908    909     1   114.2100488 537.225600
    902    901    903     1   109.6600471 523.836800
    902    901    908     1   109.6600471 523.836800
    902    904    905     1   111.0400475 529.694400
    903    901    908     1   109.6600471 523.836800
    903    906    907     1   111.0400475 529.694400
    904    905    911     1   123.2000528 564.003200
    904    905   1872     1   115.1800491 558.982400
    905   1872   1871     1   120.6900519 530.531200
    906    907    912     1   123.2000528 564.003200
    906    907   1898     1   115.1800491 558.982400
    907   1898   1897     1   120.6900519 530.531200
    908    909    910     1   111.6100477 551.451200
    911    905   1872     1   123.0500530 620.905600
    912    907   1898     1   123.0500530 620.905600
    927    928    930     1   114.2100488 537.225600
    927    929    932     1   114.2100488 537.225600
    927    934    935     1   114.2100488 537.225600
    928    927    929     1   109.6600471 523.836800
    928    927    934     1   109.6600471 523.836800
    928    930    931     1   111.0400475 529.694400
    929    927    934     1   109.6600471 523.836800
    929    932    933     1   111.0400475 529.694400
    930    931    937     1   123.2000528 564.003200
    930    931   1924     1   115.1800491 558.982400
    931   1924   1923     1   120.6900519 530.531200
    932    933    938     1   123.2000528 564.003200
    932    933   1950     1   115.1800491 558.982400
    933   1950   1949     1   120.6900519 530.531200
    934    935    936     1   111.6100477 551.451200
    937    931   1924     1   123.0500530 620.905600
    938    933   1950     1   123.0500530 620.905600
    953    954    956     1   114.2100488 537.225600
    953    955    958     1   114.2100488 537.225600
    953    960    961     1   114.2100488 537.225600
    954    953    955     1   109.6600471 523.836800
    954    953    960     1   109.6600471 523.836800
    954    956    957     1   111.0400475 529.694400
    955    953    960     1   109.6600471 523.836800
    955    958    959     1   111.0400475 529.694400
    956    957    963     1   123.2000528 564.003200
    956    957   1976     1   115.1800491 558.982400
    957   1976   1975     1   120.6900519 530.531200
    958    959    964     1   123.2000528 564.003200
    958    959   2002     1   115.1800491 558.982400
    959   2002   2001     1   120.6900519 530.531200
    960    961    962     1   111.6100477 551.451200
    963    957   1976     1   123.0500530 620.905600
    964    959   2002     1   123.0500530 620.905600
    979    980    982     1   114.2100488 537.225600
    979    981    984     1   114.2100488 537.225600
    979    986    987     1   114.2100488 537.225600
    980    979    981     1   109.6600471 523.836800
    980    979    986     1   109.6600471 523.836800
    980    982    983     1   111.0400475 529.694400
    981    979    986     1   109.6600471 523.836800
    981    984    985     1   111.0400475 529.694400
    982    983    989     1   123.2000528 564.003200
    982    983   2028     1   115.1800491 558.982400
    983   2028   2027     1   120.6900519 530.531200
    984    985    990     1   123.2000528 564.003200
    984    985   2054     1   115.1800491 558.982400
    985   2054   2053     1   120.6900519 530.531200
    986    987    988     1   111.6100477 551.451200
    989    983   2028     1   123.0500530 620.905600
    990    985   2054     1   123.0500530 620.905600
   1005   1006   1008     1   114.2100488 537.225600
   1005   1007   1010     1   114.2100488 537.225600
   1005   1012   1013     1   114.2100488 537.225600
   1006   1005   1007     1   109.6600471 523.836800
   1006   1005   1012     1   109.6600471 523.836800
   1006   1008   1009     1   111.0400475 529.694400
   1007   1005   1012     1   109.6600471 523.836800
   1007   1010   1011     1   111.0400475 529.694400
   1008   1009   1015     1   123.2000528 564.003200
   1008   1009   2080     1   115.1800491 558.982400
   1009   2080   2079     1   120.6900519 530.531200
   1010   1011   1016     1   123.2000528 564.003200
   1010   1011   2106     1   115.1800491 558.982400
   1011   2106   2105     1   120.6900519 530.531200
   1012   1013   1014     1   111.6100477 551.451200
   1015   1009   2080     1   123.0500530 620.905600
   1016   1011   2106     1   123.0500530 620.905600
   1031   1032   1034     1   114.2100488 537.225600
   1031   1033   1036     1   114.2100488 537.225600
   1031   1038   1039     1   114.2100488 537.225600
   1032   1031   1033     1   109.6600471 523.836800
   1032   1031   1038     1   109.6600471 523.836800
   1032   1034   1035     1   111.0400475 529.694400
   1033   1031   1038     1   109.6600471 523.836800
   1033   1036   1037     1   111.0400475 529.694400
   1034   1035   1041     1   123.2000528 564.003200
   1034   1035   2132     1   115.1800491 558.982400
   1035   2132   2131     1   120.6900519 530.531200
   1036   1037   1042     1   123.2000528 564.003200
   1036   1037   2158     1   115.1800491 558.982400
   1037   2158   2157     1   120.6900519 530.531200
   1038   1039   1040     1   111.6100477 551.451200
   1041   1035   2132     1   123.0500530 620.905600
   1042   1037   2158     1   123.0500530 620.905600
   1057   1058   1060     1   114.2100488 537.225600
   1057   1059   1062     1   114.2100488 537.225600
   1057   1064   1065     1   114.2100488 537.225600
   1058   1057   1059     1   109.6600471 523.836800
   1058   1057   1064     1   109.6600471 523.836800
   1058   1060   1061     1   111.0400475 529.694400
   1059   1057   1064     1   109.6600471 523.836800
   1059   1062   1063     1   111.0400475 529.694400
   1060   1061   1067     1   123.2000528 564.003200
   1060   1061   2184     1   115.1800491 558.982400
   1061   2184   2183     1   120.6900519 530.531200
   1062   1063   1068     1   123.2000528 564.003200
   1062   1063   2210     1   115.1800491 558.982400
   1063   2210   2209     1   120.6900519 530.531200
   1064   1065   1066     1   111.6100477 551.451200
   1067   1061   2184     1   123.0500530 620.905600
   1068   1063   2210     1   123.0500530 620.905600
   1083   1084   1086     1   114.2100488 537.225600
   1083   1085   1088     1   114.2100488 537.225600
   1083   1090   1091     1   114.2100488 537.225600
   1084   1083   1085     1   109.6600471 523.836800
   1084   1083   1090     1   109.6600471 523.836800
   1084   1086   1087     1   111.0400475 529.694400
   1085   1083   1090     1   109.6600471 523.836800
   1085   1088   1089     1   111.0400475 529.694400
   1086   1087   1093     1   123.2000528 564.003200
   1086   1087   2236     1   115.1800491 558.982400
   1087   2236   2235     1   120.6900519 530.531200
   1088   1089   1094     1   123.2000528 564.003200
   1088   1089   2262     1   115.1800491 558.982400
   1089   2262   2261     1   120.6900519 530.531200
   1090   1091   1092     1   111.6100477 551.451200
   1093   1087   2236     1   123.0500530 620.905600
   1094   1089   2262     1   123.0500530 620.905600
   1109   1110   1112     1   114.2100488 537.225600
   1109   1111   1114     1   114.2100488 537.225600
   1109   1116   1117     1   114.2100488 537.225600
   1110   1109   1111     1   109.6600471 523.836800
   1110   1109   1116     1   109.6600471 523.836800
   1110   1112   1113     1   111.0400475 529.694400
   1111   1109   1116     1   109.6600471 523.836800
   1111   1114   1115     1   111.0400475 529.694400
   1112   1113   1119     1   123.2000528 564.003200
   1112   1113   2288     1   115.1800491 558.982400
   1113   2288   2287     1   120.6900519 530.531200
   1114   1115   1120     1   123.2000528 564.003200
   1114   1115   2314     1   115.1800491 558.982400
   1115   2314   2313     1   120.6900519 530.531200
   1116   1117   1118     1   111.6100477 551.451200
   1119   1113   2288     1   123.0500530 620.905600
   1120   1115   2314     1   123.0500530 620.905600
   1135   1136   1138     1   114.2100488 537.225600
   1135   1137   1140     1   114.2100488 537.225600
   1135   1142   1143     1   114.2100488 537.225600
   1136   1135   1137     1   109.6600471 523.836800
   1136   1135   1142     1   109.6600471 523.836800
   1136   1138   1139     1   111.0400475 529.694400
   1137   1135   1142     1   109.6600471 523.836800
   1137   1140   1141     1   111.0400475 529.694400
   1138   1139   1145     1   123.2000528 564.003200
   1138   1139   2340     1   115.1800491 558.982400
   1139   2340   2339     1   120.6900519 530.531200
   1140   1141   1146     1   123.2000528 564.003200
   1140   1141   2366     1   115.1800491 558.982400
   1141   2366   2365     1   120.6900519 530.531200
   1142   1143   1144     1   111.6100477 551.451200
   1145   1139   2340     1   123.0500530 620.905600
   1146   1141   2366     1   123.0500530 620.905600
   1161   1162   1164     1   114.2100488 537.225600
   1161   1163   1166     1   114.2100488 537.225600
   1161   1168   1169     1   114.2100488 537.225600
   1162   1161   1163     1   109.6600471 523.836800
   1162   1161   1168     1   109.6600471 523.836800
   1162   1164   1165     1   111.0400475 529.694400
   1163   1161   1168     1   109.6600471 523.836800
   1163   1166   1167     1   111.0400475 529.694400
   1164   1165   1171     1   123.2000528 564.003200
   1164   1165   2392     1   115.1800491 558.982400
   1165   2392   2391     1   120.6900519 530.531200
   1166   1167   1172     1   123.2000528 564.003200
   1166   1167   2418     1   115.1800491 558.982400
   1167   2418   2417     1   120.6900519 530.531200
   1168   1169   1170     1   111.6100477 551.451200
   1171   1165   2392     1   123.0500530 620.905600
   1172   1167   2418     1   123.0500530 620.905600
   1187   1188   1190     1   114.2100488 537.225600
   1187   1189   1192     1   114.2100488 537.225600
   1187   1194   1195     1   114.2100488 537.225600
   1188   1187   1189     1   109.6600471 523.836800
   1188   1187   1194     1   109.6600471 523.836800
   1188   1190   1191     1   111.0400475 529.694400
   1189   1187   1194     1   109.6600471 523.836800
   1189   1192   1193     1   111.0400475 529.694400
   1190   1191   1197     1   123.2000528 564.003200
   1190   1191   2444     1   115.1800491 558.982400
   1191   2444   2443     1   120.6900519 530.531200
   1192   1193   1198     1   123.2000528 564.003200
   1192   1193   2470     1   115.1800491 558.982400
   1193   2470   2469     1   120.6900519 530.531200
   1194   1195   1196     1   111.6100477 551.451200
   1197   1191   2444     1   123.0500530 620.905600
   1198   1193   2470     1   123.0500530 620.905600
   1213   1214   1216     1   114.2100488 537.225600
   1213   1215   1218     1   114.2100488 537.225600
   1213   1220   1221     1   114.2100488 537.225600
   1214   1213   1215     1   109.6600471 523.836800
   1214   1213   1220     1   109.6600471 523.836800
   1214   1216   1217     1   111.0400475 529.694400
   1215   1213   1220     1   109.6600471 523.836800
   1215   1218   1219     1   111.0400475 529.694400
   1216   1217   1223     1   123.2000528 564.003200
   1216   1217   2496     1   115.1800491 558.982400
   1217   2496   2495     1   120.6900519 530.531200
   1218   1219   1224     1   123.2000528 564.003200
   1218   1219   2522     1   115.1800491 558.982400
   1219   2522   2521     1   120.6900519 530.531200
   1220   1221   1222     1   111.6100477 551.451200
   1223   1217   2496     1   123.0500530 620.905600
   1224   1219   2522     1   123.0500530 620.905600
   1239   1240   1242     1   114.2100488 537.225600
   1239   1241   1244     1   114.2100488 537.225600
   1239   1246   1247     1   114.2100488 537.225600
   1240   1239   1241     1   109.6600471 523.836800
   1240   1239   1246     1   109.6600471 523.836800
   1240   1242   1243     1   111.0400475 529.694400
   1241   1239   1246     1   109.6600471 523.836800
   1241   1244   1245     1   111.0400475 529.694400
   1242   1243   1249     1   123.2000528 564.003200
   1242   1243   2548     1   115.1800491 558.982400
   1243   2548   2547     1   120.6900519 530.531200
   1244   1245   1250     1   123.2000528 564.003200
   1244   1245   2574     1   115.1800491 558.982400
   1245   2574   2573     1   120.6900519 530.531200
   1246   1247   1248     1   111.6100477 551.451200
   1249   1243   2548     1   123.0500530 620.905600
   1250   1245   2574     1   123.0500530 620.905600
   1265   1266   1268     1   114.2100488 537.225600
   1265   1267   1270     1   114.2100488 537.225600
   1265   1272   1273     1   114.2100488 537.225600
   1266   1265   1267     1   109.6600471 523.836800
   1266   1265   1272     1   109.6600471 523.836800
   1266   1268   1269     1   111.0400475 529.694400
   1267   1265   1272     1   109.6600471 523.836800
   1267   1270   1271     1   111.0400475 529.694400
   1268   1269   1275     1   123.2000528 564.003200
   1268   1269   2600     1   115.1800491 558.982400
   1269   2600   2599     1   120.6900519 530.531200
   1270   1271   1276     1   123.2000528 564.003200
   1270   1271   2626     1   115.1800491 558.982400
   1271   2626   2625     1   120.6900519 530.531200
   1272   1273   1274     1   111.6100477 551.451200
   1275   1269   2600     1   123.0500530 620.905600
   1276   1271   2626     1   123.0500530 620.905600
   1291   1292   1294     1   114.2100488 537.225600
   1291   1293   1296     1   114.2100488 537.225600
   1291   1298   1299     1   114.2100488 537.225600
   1292   1291   1293     1   109.6600471 523.836800
   1292   1291   1298     1   109.6600471 523.836800
   1292   1294   1295     1   111.0400475 529.694400
   1293   1291   1298     1   109.6600471 523.836800
   1293   1296   1297     1   111.0400475 529.694400
   1294   1295   1301     1   123.2000528 564.003200
   1294   1295   2652     1   115.1800491 558.982400
   1295   2652   2651     1   120.6900519 530.531200
   1296   1297   1302     1   123.2000528 564.003200
   1296   1297   2678     1   115.1800491 558.982400
   1297   2678   2677     1   120.6900519 530.531200
   1298   1299   1300     1   111.6100477 551.451200
   1301   1295   2652     1   123.0500530 620.905600
   1302   1297   2678     1   123.0500530 620.905600
   1317   1318   1320     1   114.2100488 537.225600
   1317   1319   1322     1   114.2100488 537.225600
   1317   1324   1325     1   114.2100488 537.225600
   1318   1317   1319     1   109.6600471 523.836800
   1318   1317   1324     1   109.6600471 523.836800
   1318   1320   1321     1   111.0400475 529.694400
   1319   1317   1324     1   109.6600471 523.836800
   1319   1322   1323     1   111.0400475 529.694400
   1320   1321   1327     1   123.2000528 564.003200
   1320   1321   2704     1   115.1800491 558.982400
   1321   2704   2703     1   120.6900519 530.531200
   1322   1323   1328     1   123.2000528 564.003200
   1322   1323   2730     1   115.1800491 558.982400
   1323   2730   2729     1   120.6900519 530.531200
   1324   1325   1326     1   111.6100477 551.451200
   1327   1321   2704     1   123.0500530 620.905600
   1328   1323   2730     1   123.0500530 620.905600
   1343   1344   1346     1   114.2100488 537.225600
   1343   1345   1348     1   114.2100488 537.225600
   1343   1350   1351     1   114.2100488 537.225600
   1344   1343   1345     1   109.6600471 523.836800
   1344   1343   1350     1   109.6600471 523.836800
   1344   1346   1347     1   111.0400475 529.694400
   1345   1343   1350     1   109.6600471 523.836800
   1345   1348   1349     1   111.0400475 529.694400
   1346   1347   1353     1   123.2000528 564.003200
   1346   1347   2756     1   115.1800491 558.982400
   1347   2756   2755     1   120.6900519 530.531200
   1348   1349   1354     1   123.2000528 564.003200
   1348   1349   2782     1   115.1800491 558.982400
   1349   2782   2781     1   120.6900519 530.531200
   1350   1351   1352     1   111.6100477 551.451200
   1353   1347   2756     1   123.0500530 620.905600
   1354   1349   2782     1   123.0500530 620.905600
   1369   1370   1372     1   114.2100488 537.225600
   1369   1371   1374     1   114.2100488 537.225600
   1369   1376   1377     1   114.2100488 537.225600
   1370   1369   1371     1   109.6600471 523.836800
   1370   1369   1376     1   109.6600471 523.836800
   1370   1372   1373     1   111.0400475 529.694400
   1371   1369   1376     1   109.6600471 523.836800
   1371   1374   1375     1   111.0400475 529.694400
   1372   1373   1379     1   123.2000528 564.003200
   1372   1373   2808     1   115.1800491 558.982400
   1373   2808   2807     1   120.6900519 530.531200
   1374   1375   1380     1   123.2000528 564.003200
   1374   1375   2834     1   115.1800491 558.982400
   1375   2834   2833     1   120.6900519 530.531200
   1376   1377   1378     1   111.6100477 551.451200
   1379   1373   2808     1   123.0500530 620.905600
   1380   1375   2834     1   123.0500530 620.905600
   1395   1396   1398     1   114.2100488 537.225600
   1395   1397   1400     1   114.2100488 537.225600
   1395   1402   1403     1   114.2100488 537.225600
   1396   1395   1397     1   109.6600471 523.836800
   1396   1395   1402     1   109.6600471 523.836800
   1396   1398   1399     1   111.0400475 529.694400
   1397   1395   1402     1   109.6600471 523.836800
   1397   1400   1401     1   111.0400475 529.694400
   1398   1399   1405     1   123.2000528 564.003200
   1398   1399   2860     1   115.1800491 558.982400
   1399   2860   2859     1   120.6900519 530.531200
   1400   1401   1406     1   123.2000528 564.003200
   1400   1401   2886     1   115.1800491 558.982400
   1401   2886   2885     1   120.6900519 530.531200
   1402   1403   1404     1   111.6100477 551.451200
   1405   1399   2860     1   123.0500530 620.905600
   1406   1401   2886     1   123.0500530 620.905600
   1421   1422   1424     1   114.2100488 537.225600
   1421   1423   1426     1   114.2100488 537.225600
   1421   1428   1429     1   114.2100488 537.225600
   1422   1421   1423     1   109.6600471 523.836800
   1422   1421   1428     1   109.6600471 523.836800
   1422   1424   1425     1   111.0400475 529.694400
   1423   1421   1428     1   109.6600471 523.836800
   1423   1426   1427     1   111.0400475 529.694400
   1424   1425   1431     1   123.2000528 564.003200
   1424   1425   2912     1   115.1800491 558.982400
   1425   2912   2911     1   120.6900519 530.531200
   1426   1427   1432     1   123.2000528 564.003200
   1426   1427   2938     1   115.1800491 558.982400
   1427   2938   2937     1   120.6900519 530.531200
   1428   1429   1430     1   111.6100477 551.451200
   1431   1425   2912     1   123.0500530 620.905600
   1432   1427   2938     1   123.0500530 620.905600
   1447   1448   1450     1   114.2100488 537.225600
   1447   1449   1452     1   114.2100488 537.225600
   1447   1454   1455     1   114.2100488 537.225600
   1448   1447   1449     1   109.6600471 523.836800
   1448   1447   1454     1   109.6600471 523.836800
   1448   1450   1451     1   111.0400475 529.694400
   1449   1447   1454     1   109.6600471 523.836800
   1449   1452   1453     1   111.0400475 529.694400
   1450   1451   1457     1   123.2000528 564.003200
   1450   1451   2964     1   115.1800491 558.982400
   1451   2964   2963     1   120.6900519 530.531200
   1452   1453   1458     1   123.2000528 564.003200
   1452   1453   2990     1   115.1800491 558.982400
   1453   2990   2989     1   120.6900519 530.531200
   1454   1455   1456     1   111.6100477 551.451200
   1457   1451   2964     1   123.0500530 620.905600
   1458   1453   2990     1   123.0500530 620.905600
   1473   1474   1476     1   114.2100488 537.225600
   1473   1475   1478     1   114.2100488 537.225600
   1473   1480   1481     1   114.2100488 537.225600
   1474   1473   1475     1   109.6600471 523.836800
   1474   1473   1480     1   109.6600471 523.836800
   1474   1476   1477     1   111.0400475 529.694400
   1475   1473   1480     1   109.6600471 523.836800
   1475   1478   1479     1   111.0400475 529.694400
   1476   1477   1483     1   123.2000528 564.003200
   1476   1477   3016     1   115.1800491 558.982400
   1477   3016   3015     1   120.6900519 530.531200
   1478   1479   1484     1   123.2000528 564.003200
   1478   1479   3042     1   115.1800491 558.982400
   1479   3042   3041     1   120.6900519 530.531200
   1480   1481   1482     1   111.6100477 551.451200
   1483   1477   3016     1   123.0500530 620.905600
   1484   1479   3042     1   123.0500530 620.905600
   1499   1500   1502     1   114.2100488 537.225600
   1499   1501   1504     1   114.2100488 537.225600
   1499   1506   1507     1   114.2100488 537.225600
   1500   1499   1501     1   109.6600471 523.836800
   1500   1499   1506     1   109.6600471 523.836800
   1500   1502   1503     1   111.0400475 529.694400
   1501   1499   1506     1   109.6600471 523.836800
   1501   1504   1505     1   111.0400475 529.694400
   1502   1503   1509     1   123.2000528 564.003200
   1502   1503   3068     1   115.1800491 558.982400
   1503   3068   3067     1   120.6900519 530.531200
   1504   1505   1510     1   123.2000528 564.003200
   1504   1505   3094     1   115.1800491 558.982400
   1505   3094   3093     1   120.6900519 530.531200
   1506   1507   1508     1   111.6100477 551.451200
   1509   1503   3068     1   123.0500530 620.905600
   1510   1505   3094     1   123.0500530 620.905600
   1525   1526   1528     1   114.2100488 537.225600
   1525   1527   1530     1   114.2100488 537.225600
   1525   1532   1533     1   114.2100488 537.225600
   1526   1525   1527     1   109.6600471 523.836800
   1526   1525   1532     1   109.6600471 523.836800
   1526   1528   1529     1   111.0400475 529.694400
   1527   1525   1532     1   109.6600471 523.836800
   1527   1530   1531     1   111.0400475 529.694400
   1528   1529   1535     1   123.2000528 564.003200
   1528   1529   3120     1   115.1800491 558.982400
   1529   3120   3119     1   120.6900519 530.531200
   1530   1531   1536     1   123.2000528 564.003200
   1530   1531   3146     1   115.1800491 558.982400
   1531   3146   3145     1   120.6900519 530.531200
   1532   1533   1534     1   111.6100477 551.451200
   1535   1529   3120     1   123.0500530 620.905600
   1536   1531   3146     1   123.0500530 620.905600
   1551   1552   1554     1   114.2100488 537.225600
   1551   1553   1556     1   114.2100488 537.225600
   1551   1558   1559     1   114.2100488 537.225600
   1552   1551   1553     1   109.6600471 523.836800
   1552   1551   1558     1   109.6600471 523.836800
   1552   1554   1555     1   111.0400475 529.694400
   1553   1551   1558     1   109.6600471 523.836800
   1553   1556   1557     1   111.0400475 529.694400
   1554   1555   1561     1   123.2000528 564.003200
   1554   1555   3172     1   115.1800491 558.982400
   1555   3172   3171     1   120.6900519 530.531200
   1556   1557   1562     1   123.2000528 564.003200
   1556   1557   3198     1   115.1800491 558.982400
   1557   3198   3197     1   120.6900519 530.531200
   1558   1559   1560     1   111.6100477 551.451200
   1561   1555   3172     1   123.0500530 620.905600
   1562   1557   3198     1   123.0500530 620.905600
   1577   1578   1580     1   114.2100488 537.225600
   1577   1579   1582     1   114.2100488 537.225600
   1577   1584   1585     1   114.2100488 537.225600
   1578   1577   1579     1   109.6600471 523.836800
   1578   1577   1584     1   109.6600471 523.836800
   1578   1580   1581     1   111.0400475 529.694400
   1579   1577   1584     1   109.6600471 523.836800
   1579   1582   1583     1   111.0400475 529.694400
   1580   1581   1587     1   123.2000528 564.003200
   1580   1581   3224     1   115.1800491 558.982400
   1581   3224   3223     1   120.6900519 530.531200
   1582   1583   1588     1   123.2000528 564.003200
   1582   1583   3250     1   115.1800491 558.982400
   1583   3250   3249     1   120.6900519 530.531200
   1584   1585   1586     1   111.6100477 551.451200
   1587   1581   3224     1   123.0500530 620.905600
   1588   1583   3250     1   123.0500530 620.905600
   1603   1604   1606     1   114.2100488 537.225600
   1603   1605   1608     1   114.2100488 537.225600
   1603   1610   1611     1   114.2100488 537.225600
   1604   1603   1605     1   109.6600471 523.836800
   1604   1603   1610     1   109.6600471 523.836800
   1604   1606   1607     1   111.0400475 529.694400
   1605   1603   1610     1   109.6600471 523.836800
   1605   1608   1609     1   111.0400475 529.694400
   1606   1607   3267     1   115.1800491 558.982400
   1606   1607   1613     1   123.2000528 564.003200
   1607   3267   3269     1   120.6900519 530.531200
   1608   1609   1614     1   123.2000528 564.003200
   1608   1609   3341     1   115.1800491 558.982400
   1609   3341   3343     1   120.6900519 530.531200
   1610   1611   1612     1   111.6100477 551.451200
   1613   1607   3267     1   123.0500530 620.905600
   1614   1609   3341     1   123.0500530 620.905600
   1629   1630   1632     1   114.2100488 537.225600
   1629   1631   1634     1   114.2100488 537.225600
   1629   1636   1637     1   114.2100488 537.225600
   1630   1629   1631     1   109.6600471 523.836800
   1630   1629   1636     1   109.6600471 523.836800
   1630   1632   1633     1   111.0400475 529.694400
   1631   1629   1636     1   109.6600471 523.836800
   1631   1634   1635     1   111.0400475 529.694400
   1632   1633   3415     1   115.1800491 558.982400
   1632   1633   1639     1   123.2000528 564.003200
   1633   3415   3417     1   120.6900519 530.531200
   1634   1635   1640     1   123.2000528 564.003200
   1634   1635   3489     1   115.1800491 558.982400
   1635   3489   3491     1   120.6900519 530.531200
   1636   1637   1638     1   111.6100477 551.451200
   1639   1633   3415     1   123.0500530 620.905600
   1640   1635   3489     1   123.0500530 620.905600
   1655   1656   1658     1   114.2100488 537.225600
   1655   1657   1660     1   114.2100488 537.225600
   1655   1662   1663     1   114.2100488 537.225600
   1656   1655   1657     1   109.6600471 523.836800
   1656   1655   1662     1   109.6600471 523.836800
   1656   1658   1659     1   111.0400475 529.694400
   1657   1655   1662     1   109.6600471 523.836800
   1657   1660   1661     1   111.0400475 529.694400
   1658   1659   3563     1   115.1800491 558.982400
   1658   1659   1665     1   123.2000528 564.003200
   1659   3563   3565     1   120.6900519 530.531200
   1660   1661   1666     1   123.2000528 564.003200
   1660   1661   3637     1   115.1800491 558.982400
   1661   3637   3639     1   120.6900519 530.531200
   1662   1663   1664     1   111.6100477 551.451200
   1665   1659   3563     1   123.0500530 620.905600
   1666   1661   3637     1   123.0500530 620.905600
   1681   1682   1684     1   114.2100488 537.225600
   1681   1683   1686     1   114.2100488 537.225600
   1681   1688   1689     1   114.2100488 537.225600
   1682   1681   1683     1   109.6600471 523.836800
   1682   1681   1688     1   109.6600471 523.836800
   1682   1684   1685     1   111.0400475 529.694400
   1683   1681   1688     1   109.6600471 523.836800
   1683   1686   1687     1   111.0400475 529.694400
   1684   1685   3711     1   115.1800491 558.982400
   1684   1685   1691     1   123.2000528 564.003200
   1685   3711   3713     1   120.6900519 530.531200
   1686   1687   1692     1   123.2000528 564.003200
   1686   1687   3785     1   115.1800491 558.982400
   1687   3785   3787     1   120.6900519 530.531200
   1688   1689   1690     1   111.6100477 551.451200
   1691   1685   3711     1   123.0500530 620.905600
   1692   1687   3785     1   123.0500530 620.905600
   1707   1708   1710     1   114.2100488 537.225600
   1707   1709   1712     1   114.2100488 537.225600
   1707   1714   1715     1   114.2100488 537.225600
   1708   1707   1709     1   109.6600471 523.836800
   1708   1707   1714     1   109.6600471 523.836800
   1708   1710   1711     1   111.0400475 529.694400
   1709   1707   1714     1   109.6600471 523.836800
   1709   1712   1713     1   111.0400475 529.694400
   1710   1711   3859     1   115.1800491 558.982400
   1710   1711   1717     1   123.2000528 564.003200
   1711   3859   3861     1   120.6900519 530.531200
   1712   1713   1718     1   123.2000528 564.003200
   1712   1713   3933     1   115.1800491 558.982400
   1713   3933   3935     1   120.6900519 530.531200
   1714   1715   1716     1   111.6100477 551.451200
   1717   1711   3859     1   123.0500530 620.905600
   1718   1713   3933     1   123.0500530 620.905600
   1733   1734   1736     1   114.2100488 537.225600
   1733   1735   1738     1   114.2100488 537.225600
   1733   1740   1741     1   114.2100488 537.225600
   1734   1733   1735     1   109.6600471 523.836800
   1734   1733   1740     1   109.6600471 523.836800
   1734   1736   1737     1   111.0400475 529.694400
   1735   1733   1740     1   109.6600471 523.836800
   1735   1738   1739     1   111.0400475 529.694400
   1736   1737   4007     1   115.1800491 558.982400
   1736   1737   1743     1   123.2000528 564.003200
   1737   4007   4009     1   120.6900519 530.531200
   1738   1739   1744     1   123.2000528 564.003200
   1738   1739   4081     1   115.1800491 558.982400
   1739   4081   4083     1   120.6900519 530.531200
   1740   1741   1742     1   111.6100477 551.451200
   1743   1737   4007     1   123.0500530 620.905600
   1744   1739   4081     1   123.0500530 620.905600
   1759   1760   1762     1   114.2100488 537.225600
   1759   1761   1764     1   114.2100488 537.225600
   1759   1766   1767     1   114.2100488 537.225600
   1760   1759   1761     1   109.6600471 523.836800
   1760   1759   1766     1   109.6600471 523.836800
   1760   1762   1763     1   111.0400475 529.694400
   1761   1759   1766     1   109.6600471 523.836800
   1761   1764   1765     1   111.0400475 529.694400
   1762   1763   4155     1   115.1800491 558.982400
   1762   1763   1769     1   123.2000528 564.003200
   1763   4155   4157     1   120.6900519 530.531200
   1764   1765   1770     1   123.2000528 564.003200
   1764   1765   4229     1   115.1800491 558.982400
   1765   4229   4231     1   120.6900519 530.531200
   1766   1767   1768     1   111.6100477 551.451200
   1769   1763   4155     1   123.0500530 620.905600
   1770   1765   4229     1   123.0500530 620.905600
   1785   1786   1788     1   114.2100488 537.225600
   1785   1787   1790     1   114.2100488 537.225600
   1785   1792   1793     1   114.2100488 537.225600
   1786   1785   1787     1   109.6600471 523.836800
   1786   1785   1792     1   109.6600471 523.836800
   1786   1788   1789     1   111.0400475 529.694400
   1787   1785   1792     1   109.6600471 523.836800
   1787   1790   1791     1   111.0400475 529.694400
   1788   1789   4303     1   115.1800491 558.982400
   1788   1789   1795     1   123.2000528 564.003200
   1789   4303   4305     1   120.6900519 530.531200
   1790   1791   1796     1   123.2000528 564.003200
   1790   1791   4377     1   115.1800491 558.982400
   1791   4377   4379     1   120.6900519 530.531200
   1792   1793   1794     1   111.6100477 551.451200
   1795   1789   4303     1   123.0500530 620.905600
   1796   1791   4377     1   123.0500530 620.905600
   1811   1812   1814     1   114.2100488 537.225600
   1811   1813   1816     1   114.2100488 537.225600
   1811   1818   1819     1   114.2100488 537.225600
   1812   1811   1813     1   109.6600471 523.836800
   1812   1811   1818     1   109.6600471 523.836800
   1812   1814   1815     1   111.0400475 529.694400
   1813   1811   1818     1   109.6600471 523.836800
   1813   1816   1817     1   111.0400475 529.694400
   1814   1815   4451     1   115.1800491 558.982400
   1814   1815   1821     1   123.2000528 564.003200
   1815   4451   4453     1   120.6900519 530.531200
   1816   1817   1822     1   123.2000528 564.003200
   1816   1817   4525     1   115.1800491 558.982400
   1817   4525   4527     1   120.6900519 530.531200
   1818   1819   1820     1   111.6100477 551.451200
   1821   1815   4451     1   123.0500530 620.905600
   1822   1817   4525     1   123.0500530 620.905600
   1837   1838   1840     1   114.2100488 537.225600
   1837   1839   1842     1   114.2100488 537.225600
   1837   1844   1845     1   114.2100488 537.225600
   1838   1837   1839     1   109.6600471 523.836800
   1838   1837   1844     1   109.6600471 523.836800
   1838   1840   1841     1   111.0400475 529.694400
   1839   1837   1844     1   109.6600471 523.836800
   1839   1842   1843     1   111.0400475 529.694400
   1840   1841   4599     1   115.1800491 558.982400
   1840   1841   1847     1   123.2000528 564.003200
   1841   4599   4601     1   120.6900519 530.531200
   1842   1843   1848     1   123.2000528 564.003200
   1842   1843   4673     1   115.1800491 558.982400
   1843   4673   4675     1   120.6900519 530.531200
   1844   1845   1846     1   111.6100477 551.451200
   1847   1841   4599     1   123.0500530 620.905600
   1848   1843   4673     1   123.0500530 620.905600
   1863   1864   1866     1   114.2100488 537.225600
   1863   1865   1868     1   114.2100488 537.225600
   1863   1870   1871     1   114.2100488 537.225600
   1864   1863   1865     1   109.6600471 523.836800
   1864   1863   1870     1   109.6600471 523.836800
   1864   1866   1867     1   111.0400475 529.694400
   1865   1863   1870     1   109.6600471 523.836800
   1865   1868   1869     1   111.0400475 529.694400
   1866   1867   4747     1   115.1800491 558.982400
   1866   1867   1873     1   123.2000528 564.003200
   1867   4747   4749     1   120.6900519 530.531200
   1868   1869   1874     1   123.2000528 564.003200
   1868   1869   4821     1   115.1800491 558.982400
   1869   4821   4823     1   120.6900519 530.531200
   1870   1871   1872     1   111.6100477 551.451200
   1873   1867   4747     1   123.0500530 620.905600
   1874   1869   4821     1   123.0500530 620.905600
   1889   1890   1892     1   114.2100488 537.225600
   1889   1891   1894     1   114.2100488 537.225600
   1889   1896   1897     1   114.2100488 537.225600
   1890   1889   1891     1   109.6600471 523.836800
   1890   1889   1896     1   109.6600471 523.836800
   1890   1892   1893     1   111.0400475 529.694400
   1891   1889   1896     1   109.6600471 523.836800
   1891   1894   1895     1   111.0400475 529.694400
   1892   1893   4895     1   115.1800491 558.982400
   1892   1893   1899     1   123.2000528 564.003200
   1893   4895   4897     1   120.6900519 530.531200
   1894   1895   1900     1   123.2000528 564.003200
   1894   1895   4969     1   115.1800491 558.982400
   1895   4969   4971     1   120.6900519 530.531200
   1896   1897   1898     1   111.6100477 551.451200
   1899   1893   4895     1   123.0500530 620.905600
   1900   1895   4969     1   123.0500530 620.905600
   1915   1916   1918     1   114.2100488 537.225600
   1915   1917   1920     1   114.2100488 537.225600
   1915   1922   1923     1   114.2100488 537.225600
   1916   1915   1917     1   109.6600471 523.836800
   1916   1915   1922     1   109.6600471 523.836800
   1916   1918   1919     1   111.0400475 529.694400
   1917   1915   1922     1   109.6600471 523.836800
   1917   1920   1921     1   111.0400475 529.694400
   1918   1919   5043     1   115.1800491 558.982400
   1918   1919   1925     1   123.2000528 564.003200
   1919   5043   5045     1   120.6900519 530.531200
   1920   1921   1926     1   123.2000528 564.003200
   1920   1921   5117     1   115.1800491 558.982400
   1921   5117   5119     1   120.6900519 530.531200
   1922   1923   1924     1   111.6100477 551.451200
   1925   1919   5043     1   123.0500530 620.905600
   1926   1921   5117     1   123.0500530 620.905600
   1941   1942   1944     1   114.2100488 537.225600
   1941   1943   1946     1   114.2100488 537.225600
   1941   1948   1949     1   114.2100488 537.225600
   1942   1941   1943     1   109.6600471 523.836800
   1942   1941   1948     1   109.6600471 523.836800
   1942   1944   1945     1   111.0400475 529.694400
   1943   1941   1948     1   109.6600471 523.836800
   1943   1946   1947     1   111.0400475 529.694400
   1944   1945   5191     1   115.1800491 558.982400
   1944   1945   1951     1   123.2000528 564.003200
   1945   5191   5193     1   120.6900519 530.531200
   1946   1947   1952     1   123.2000528 564.003200
   1946   1947   5265     1   115.1800491 558.982400
   1947   5265   5267     1   120.6900519 530.531200
   1948   1949   1950     1   111.6100477 551.451200
   1951   1945   5191     1   123.0500530 620.905600
   1952   1947   5265     1   123.0500530 620.905600
   1967   1968   1970     1   114.2100488 537.225600
   1967   1969   1972     1   114.2100488 537.225600
   1967   1974   1975     1   114.2100488 537.225600
   1968   1967   1969     1   109.6600471 523.836800
   1968   1967   1974     1   109.6600471 523.836800
   1968   1970   1971     1   111.0400475 529.694400
   1969   1967   1974     1   109.6600471 523.836800
   1969   1972   1973     1   111.0400475 529.694400
   1970   1971   5339     1   115.1800491 558.982400
   1970   1971   1977     1   123.2000528 564.003200
   1971   5339   5341     1   120.6900519 530.531200
   1972   1973   1978     1   123.2000528 564.003200
   1972   1973   5413     1   115.1800491 558.982400
   1973   5413   5415     1   120.6900519 530.531200
   1974   1975   1976     1   111.6100477 551.451200
   1977   1971   5339     1   123.0500530 620.905600
   1978   1973   5413     1   123.0500530 620.905600
   1993   1994   1996     1   114.2100488 537.225600
   1993   1995   1998     1   114.2100488 537.225600
   1993   2000   2001     1   114.2100488 537.225600
   1994   1993   1995     1   109.6600471 523.836800
   1994   1993   2000     1   109.6600471 523.836800
   1994   1996   1997     1   111.0400475 529.694400
   1995   1993   2000     1   109.6600471 523.836800
   1995   1998   1999     1   111.0400475 529.694400
   1996   1997   5487     1   115.1800491 558.982400
   1996   1997   2003     1   123.2000528 564.003200
   1997   5487   5489     1   120.6900519 530.531200
   1998   1999   2004     1   123.2000528 564.003200
   1998   1999   5561     1   115.1800491 558.982400
   1999   5561   5563     1   120.6900519 530.531200
   2000   2001   2002     1   111.6100477 551.451200
   2003   1997   5487     1   123.0500530 620.905600
   2004   1999   5561     1   123.0500530 620.905600
   2019   2020   2022     1   114.2100488 537.225600
   2019   2021   2024     1   114.2100488 537.225600
   2019   2026   2027     1   114.2100488 537.225600
   2020   2019   2021     1   109.6600471 523.836800
   2020   2019   2026     1   109.6600471 523.836800
   2020   2022   2023     1   111.0400475 529.694400
   2021   2019   2026     1   109.6600471 523.836800
   2021   2024   2025     1   111.0400475 529.694400
   2022   2023   5635     1   115.1800491 558.982400
   2022   2023   2029     1   123.2000528 564.003200
   2023   5635   5637     1   120.6900519 530.531200
   2024   2025   2030     1   123.2000528 564.003200
   2024   2025   5709     1   115.1800491 558.982400
   2025   5709   5711     1   120.6900519 530.531200
   2026   2027   2028     1   111.6100477 551.451200
   2029   2023   5635     1   123.0500530 620.905600
   2030   2025   5709     1   123.0500530 620.905600
   2045   2046   2048     1   114.2100488 537.225600
   2045   2047   2050     1   114.2100488 537.225600
   2045   2052   2053     1   114.2100488 537.225600
   2046   2045   2047     1   109.6600471 523.836800
   2046   2045   2052     1   109.6600471 523.836800
   2046   2048   2049     1   111.0400475 529.694400
   2047   2045   2052     1   109.6600471 523.836800
   2047   2050   2051     1   111.0400475 529.694400
   2048   2049   5783     1   115.1800491 558.982400
   2048   2049   2055     1   123.2000528 564.003200
   2049   5783   5785     1   120.6900519 530.531200
   2050   2051   2056     1   123.2000528 564.003200
   2050   2051   5857     1   115.1800491 558.982400
   2051   5857   5859     1   120.6900519 530.531200
   2052   2053   2054     1   111.6100477 551.451200
   2055   2049   5783     1   123.0500530 620.905600
   2056   2051   5857     1   123.0500530 620.905600
   2071   2072   2074     1   114.2100488 537.225600
   2071   2073   2076     1   114.2100488 537.225600
   2071   2078   2079     1   114.2100488 537.225600
   2072   2071   2073     1   109.6600471 523.836800
   2072   2071   2078     1   109.6600471 523.836800
   2072   2074   2075     1   111.0400475 529.694400
   2073   2071   2078     1   109.6600471 523.836800
   2073   2076   2077     1   111.0400475 529.694400
   2074   2075   5931     1   115.1800491 558.982400
   2074   2075   2081     1   123.2000528 564.003200
   2075   5931   5933     1   120.6900519 530.531200
   2076   2077   2082     1   123.2000528 564.003200
   2076   2077   6005     1   115.1800491 558.982400
   2077   6005   6007     1   120.6900519 530.531200
   2078   2079   2080     1   111.6100477 551.451200
   2081   2075   5931     1   123.0500530 620.905600
   2082   2077   6005     1   123.0500530 620.905600
   2097   2098   2100     1   114.2100488 537.225600
   2097   2099   2102     1   114.2100488 537.225600
   2097   2104   2105     1   114.2100488 537.225600
   2098   2097   2099     1   109.6600471 523.836800
   2098   2097   2104     1   109.6600471 523.836800
   2098   2100   2101     1   111.0400475 529.694400
   2099   2097   2104     1   109.6600471 523.836800
   2099   2102   2103     1   111.0400475 529.694400
   2100   2101   6079     1   115.1800491 558.982400
   2100   2101   2107     1   123.2000528 564.003200
   2101   6079   6081     1   120.6900519 530.531200
   2102   2103   2108     1   123.2000528 564.003200
   2102   2103   6153     1   115.1800491 558.982400
   2103   6153   6155     1   120.6900519 530.531200
   2104   2105   2106     1   111.6100477 551.451200
   2107   2101   6079     1   123.0500530 620.905600
   2108   2103   6153     1   123.0500530 620.905600
   2123   2124   2126     1   114.2100488 537.225600
   2123   2125   2128     1   114.2100488 537.225600
   2123   2130   2131     1   114.2100488 537.225600
   2124   2123   2125     1   109.6600471 523.836800
   2124   2123   2130     1   109.6600471 523.836800
   2124   2126   2127     1   111.0400475 529.694400
   2125   2123   2130     1   109.6600471 523.836800
   2125   2128   2129     1   111.0400475 529.694400
   2126   2127   6227     1   115.1800491 558.982400
   2126   2127   2133     1   123.2000528 564.003200
   2127   6227   6229     1   120.6900519 530.531200
   2128   2129   2134     1   123.2000528 564.003200
   2128   2129   6301     1   115.1800491 558.982400
   2129   6301   6303     1   120.6900519 530.531200
   2130   2131   2132     1   111.6100477 551.451200
   2133   2127   6227     1   123.0500530 620.905600
   2134   2129   6301     1   123.0500530 620.905600
   2149   2150   2152     1   114.2100488 537.225600
   2149   2151   2154     1   114.2100488 537.225600
   2149   2156   2157     1   114.2100488 537.225600
   2150   2149   2151     1   109.6600471 523.836800
   2150   2149   2156     1   109.6600471 523.836800
   2150   2152   2153     1   111.0400475 529.694400
   2151   2149   2156     1   109.6600471 523.836800
   2151   2154   2155     1   111.0400475 529.694400
   2152   2153   6375     1   115.1800491 558.982400
   2152   2153   2159     1   123.2000528 564.003200
   2153   6375   6377     1   120.6900519 530.531200
   2154   2155   2160     1   123.2000528 564.003200
   2154   2155   6449     1   115.1800491 558.982400
   2155   6449   6451     1   120.6900519 530.531200
   2156   2157   2158     1   111.6100477 551.451200
   2159   2153   6375     1   123.0500530 620.905600
   2160   2155   6449     1   123.0500530 620.905600
   2175   2176   2178     1   114.2100488 537.225600
   2175   2177   2180     1   114.2100488 537.225600
   2175   2182   2183     1   114.2100488 537.225600
   2176   2175   2177     1   109.6600471 523.836800
   2176   2175   2182     1   109.6600471 523.836800
   2176   2178   2179     1   111.0400475 529.694400
   2177   2175   2182     1   109.6600471 523.836800
   2177   2180   2181     1   111.0400475 529.694400
   2178   2179   6523     1   115.1800491 558.982400
   2178   2179   2185     1   123.2000528 564.003200
   2179   6523   6525     1   120.6900519 530.531200
   2180   2181   2186     1   123.2000528 564.003200
   2180   2181   6597     1   115.1800491 558.982400
   2181   6597   6599     1   120.6900519 530.531200
   2182   2183   2184     1   111.6100477 551.451200
   2185   2179   6523     1   123.0500530 620.905600
   2186   2181   6597     1   123.0500530 620.905600
   2201   2202   2204     1   114.2100488 537.225600
   2201   2203   2206     1   114.2100488 537.225600
   2201   2208   2209     1   114.2100488 537.225600
   2202   2201   2203     1   109.6600471 523.836800
   2202   2201   2208     1   109.6600471 523.836800
   2202   2204   2205     1   111.0400475 529.694400
   2203   2201   2208     1   109.6600471 523.836800
   2203   2206   2207     1   111.0400475 529.694400
   2204   2205   6671     1   115.1800491 558.982400
   2204   2205   2211     1   123.2000528 564.003200
   2205   6671   6673     1   120.6900519 530.531200
   2206   2207   2212     1   123.2000528 564.003200
   2206   2207   6745     1   115.1800491 558.982400
   2207   6745   6747     1   120.6900519 530.531200
   2208   2209   2210     1   111.6100477 551.451200
   2211   2205   6671     1   123.0500530 620.905600
   2212   2207   6745     1   123.0500530 620.905600
   2227   2228   2230     1   114.2100488 537.225600
   2227   2229   2232     1   114.2100488 537.225600
   2227   2234   2235     1   114.2100488 537.225600
   2228   2227   2229     1   109.6600471 523.836800
   2228   2227   2234     1   109.6600471 523.836800
   2228   2230   2231     1   111.0400475 529.694400
   2229   2227   2234     1   109.6600471 523.836800
   2229   2232   2233     1   111.0400475 529.694400
   2230   2231   6819     1   115.1800491 558.982400
   2230   2231   2237     1   123.2000528 564.003200
   2231   6819   6821     1   120.6900519 530.531200
   2232   2233   2238     1   123.2000528 564.003200
   2232   2233   6893     1   115.1800491 558.982400
   2233   6893   6895     1   120.6900519 530.531200
   2234   2235   2236     1   111.6100477 551.451200
   2237   2231   6819     1   123.0500530 620.905600
   2238   2233   6893     1   123.0500530 620.905600
   2253   2254   2256     1   114.2100488 537.225600
   2253   2255   2258     1   114.2100488 537.225600
   2253   2260   2261     1   114.2100488 537.225600
   2254   2253   2255     1   109.6600471 523.836800
   2254   2253   2260     1   109.6600471 523.836800
   2254   2256   2257     1   111.0400475 529.694400
   2255   2253   2260     1   109.6600471 523.836800
   2255   2258   2259     1   111.0400475 529.694400
   2256   2257   6967     1   115.1800491 558.982400
   2256   2257   2263     1   123.2000528 564.003200
   2257   6967   6969     1   120.6900519 530.531200
   2258   2259   2264     1   123.2000528 564.003200
   2258   2259   7041     1   115.1800491 558.982400
   2259   7041   7043     1   120.6900519 530.531200
   2260   2261   2262     1   111.6100477 551.451200
   2263   2257   6967     1   123.0500530 620.905600
   2264   2259   7041     1   123.0500530 620.905600
   2279   2280   2282     1   114.2100488 537.225600
   2279   2281   2284     1   114.2100488 537.225600
   2279   2286   2287     1   114.2100488 537.225600
   2280   2279   2281     1   109.6600471 523.836800
   2280   2279   2286     1   109.6600471 523.836800
   2280   2282   2283     1   111.0400475 529.694400
   2281   2279   2286     1   109.6600471 523.836800
   2281   2284   2285     1   111.0400475 529.694400
   2282   2283   7115     1   115.1800491 558.982400
   2282   2283   2289     1   123.2000528 564.003200
   2283   7115   7117     1   120.6900519 530.531200
   2284   2285   2290     1   123.2000528 564.003200
   2284   2285   7189     1   115.1800491 558.982400
   2285   7189   7191     1   120.6900519 530.531200
   2286   2287   2288     1   111.6100477 551.451200
   2289   2283   7115     1   123.0500530 620.905600
   2290   2285   7189     1   123.0500530 620.905600
   2305   2306   2308     1   114.2100488 537.225600
   2305   2307   2310     1   114.2100488 537.225600
   2305   2312   2313     1   114.2100488 537.225600
   2306   2305   2307     1   109.6600471 523.836800
   2306   2305   2312     1   109.6600471 523.836800
   2306   2308   2309     1   111.0400475 529.694400
   2307   2305   2312     1   109.6600471 523.836800
   2307   2310   2311     1   111.0400475 529.694400
   2308   2309   7263     1   115.1800491 558.982400
   2308   2309   2315     1   123.2000528 564.003200
   2309   7263   7265     1   120.6900519 530.531200
   2310   2311   2316     1   123.2000528 564.003200
   2310   2311   7337     1   115.1800491 558.982400
   2311   7337   7339     1   120.6900519 530.531200
   2312   2313   2314     1   111.6100477 551.451200
   2315   2309   7263     1   123.0500530 620.905600
   2316   2311   7337     1   123.0500530 620.905600
   2331   2332   2334     1   114.2100488 537.225600
   2331   2333   2336     1   114.2100488 537.225600
   2331   2338   2339     1   114.2100488 537.225600
   2332   2331   2333     1   109.6600471 523.836800
   2332   2331   2338     1   109.6600471 523.836800
   2332   2334   2335     1   111.0400475 529.694400
   2333   2331   2338     1   109.6600471 523.836800
   2333   2336   2337     1   111.0400475 529.694400
   2334   2335   7411     1   115.1800491 558.982400
   2334   2335   2341     1   123.2000528 564.003200
   2335   7411   7413     1   120.6900519 530.531200
   2336   2337   2342     1   123.2000528 564.003200
   2336   2337   7485     1   115.1800491 558.982400
   2337   7485   7487     1   120.6900519 530.531200
   2338   2339   2340     1   111.6100477 551.451200
   2341   2335   7411     1   123.0500530 620.905600
   2342   2337   7485     1   123.0500530 620.905600
   2357   2358   2360     1   114.2100488 537.225600
   2357   2359   2362     1   114.2100488 537.225600
   2357   2364   2365     1   114.2100488 537.225600
   2358   2357   2359     1   109.6600471 523.836800
   2358   2357   2364     1   109.6600471 523.836800
   2358   2360   2361     1   111.0400475 529.694400
   2359   2357   2364     1   109.6600471 523.836800
   2359   2362   2363     1   111.0400475 529.694400
   2360   2361   7559     1   115.1800491 558.982400
   2360   2361   2367     1   123.2000528 564.003200
   2361   7559   7561     1   120.6900519 530.531200
   2362   2363   2368     1   123.2000528 564.003200
   2362   2363   7633     1   115.1800491 558.982400
   2363   7633   7635     1   120.6900519 530.531200
   2364   2365   2366     1   111.6100477 551.451200
   2367   2361   7559     1   123.0500530 620.905600
   2368   2363   7633     1   123.0500530 620.905600
   2383   2384   2386     1   114.2100488 537.225600
   2383   2385   2388     1   114.2100488 537.225600
   2383   2390   2391     1   114.2100488 537.225600
   2384   2383   2385     1   109.6600471 523.836800
   2384   2383   2390     1   109.6600471 523.836800
   2384   2386   2387     1   111.0400475 529.694400
   2385   2383   2390     1   109.6600471 523.836800
   2385   2388   2389     1   111.0400475 529.694400
   2386   2387   7707     1   115.1800491 558.982400
   2386   2387   2393     1   123.2000528 564.003200
   2387   7707   7709     1   120.6900519 530.531200
   2388   2389   2394     1   123.2000528 564.003200
   2388   2389   7781     1   115.1800491 558.982400
   2389   7781   7783     1   120.6900519 530.531200
   2390   2391   2392     1   111.6100477 551.451200
   2393   2387   7707     1   123.0500530 620.905600
   2394   2389   7781     1   123.0500530 620.905600
   2409   2410   2412     1   114.2100488 537.225600
   2409   2411   2414     1   114.2100488 537.225600
   2409   2416   2417     1   114.2100488 537.225600
   2410   2409   2411     1   109.6600471 523.836800
   2410   2409   2416     1   109.6600471 523.836800
   2410   2412   2413     1   111.0400475 529.694400
   2411   2409   2416     1   109.6600471 523.836800
   2411   2414   2415     1   111.0400475 529.694400
   2412   2413   7855     1   115.1800491 558.982400
   2412   2413   2419     1   123.2000528 564.003200
   2413   7855   7857     1   120.6900519 530.531200
   2414   2415   2420     1   123.2000528 564.003200
   2414   2415   7929     1   115.1800491 558.982400
   2415   7929   7931     1   120.6900519 530.531200
   2416   2417   2418     1   111.6100477 551.451200
   2419   2413   7855     1   123.0500530 620.905600
   2420   2415   7929     1   123.0500530 620.905600
   2435   2436   2438     1   114.2100488 537.225600
   2435   2437   2440     1   114.2100488 537.225600
   2435   2442   2443     1   114.2100488 537.225600
   2436   2435   2437     1   109.6600471 523.836800
   2436   2435   2442     1   109.6600471 523.836800
   2436   2438   2439     1   111.0400475 529.694400
   2437   2435   2442     1   109.6600471 523.836800
   2437   2440   2441     1   111.0400475 529.694400
   2438   2439   8003     1   115.1800491 558.982400
   2438   2439   2445     1   123.2000528 564.003200
   2439   8003   8005     1   120.6900519 530.531200
   2440   2441   2446     1   123.2000528 564.003200
   2440   2441   8077     1   115.1800491 558.982400
   2441   8077   8079     1   120.6900519 530.531200
   2442   2443   2444     1   111.6100477 551.451200
   2445   2439   8003     1   123.0500530 620.905600
   2446   2441   8077     1   123.0500530 620.905600
   2461   2462   2464     1   114.2100488 537.225600
   2461   2463   2466     1   114.2100488 537.225600
   2461   2468   2469     1   114.2100488 537.225600
   2462   2461   2463     1   109.6600471 523.836800
   2462   2461   2468     1   109.6600471 523.836800
   2462   2464   2465     1   111.0400475 529.694400
   2463   2461   2468     1   109.6600471 523.836800
   2463   2466   2467     1   111.0400475 529.694400
   2464   2465   8151     1   115.1800491 558.982400
   2464   2465   2471     1   123.2000528 564.003200
   2465   8151   8153     1   120.6900519 530.531200
   2466   2467   2472     1   123.2000528 564.003200
   2466   2467   8225     1   115.1800491 558.982400
   2467   8225   8227     1   120.6900519 530.531200
   2468   2469   2470     1   111.6100477 551.451200
   2471   2465   8151     1   123.0500530 620.905600
   2472   2467   8225     1   123.0500530 620.905600
   2487   2488   2490     1   114.2100488 537.225600
   2487   2489   2492     1   114.2100488 537.225600
   2487   2494   2495     1   114.2100488 537.225600
   2488   2487   2489     1   109.6600471 523.836800
   2488   2487   2494     1   109.6600471 523.836800
   2488   2490   2491     1   111.0400475 529.694400
   2489   2487   2494     1   109.6600471 523.836800
   2489   2492   2493     1   111.0400475 529.694400
   2490   2491   8299     1   115.1800491 558.982400
   2490   2491   2497     1   123.2000528 564.003200
   2491   8299   8301     1   120.6900519 530.531200
   2492   2493   2498     1   123.2000528 564.003200
   2492   2493   8373     1   115.1800491 558.982400
   2493   8373   8375     1   120.6900519 530.531200
   2494   2495   2496     1   111.6100477 551.451200
   2497   2491   8299     1   123.0500530 620.905600
   2498   2493   8373     1   123.0500530 620.905600
   2513   2514   2516     1   114.2100488 537.225600
   2513   2515   2518     1   114.2100488 537.225600
   2513   2520   2521     1   114.2100488 537.225600
   2514   2513   2515     1   109.6600471 523.836800
   2514   2513   2520     1   109.6600471 523.836800
   2514   2516   2517     1   111.0400475 529.694400
   2515   2513   2520     1   109.6600471 523.836800
   2515   2518   2519     1   111.0400475 529.694400
   2516   2517   8447     1   115.1800491 558.982400
   2516   2517   2523     1   123.2000528 564.003200
   2517   8447   8449     1   120.6900519 530.531200
   2518   2519   2524     1   123.2000528 564.003200
   2518   2519   8521     1   115.1800491 558.982400
   2519   8521   8523     1   120.6900519 530.531200
   2520   2521   2522     1   111.6100477 551.451200
   2523   2517   8447     1   123.0500530 620.905600
   2524   2519   8521     1   123.0500530 620.905600
   2539   2540   2542     1   114.2100488 537.225600
   2539   2541   2544     1   114.2100488 537.225600
   2539   2546   2547     1   114.2100488 537.225600
   2540   2539   2541     1   109.6600471 523.836800
   2540   2539   2546     1   109.6600471 523.836800
   2540   2542   2543     1   111.0400475 529.694400
   2541   2539   2546     1   109.6600471 523.836800
   2541   2544   2545     1   111.0400475 529.694400
   2542   2543   8595     1   115.1800491 558.982400
   2542   2543   2549     1   123.2000528 564.003200
   2543   8595   8597     1   120.6900519 530.531200
   2544   2545   2550     1   123.2000528 564.003200
   2544   2545   8669     1   115.1800491 558.982400
   2545   8669   8671     1   120.6900519 530.531200
   2546   2547   2548     1   111.6100477 551.451200
   2549   2543   8595     1   123.0500530 620.905600
   2550   2545   8669     1   123.0500530 620.905600
   2565   2566   2568     1   114.2100488 537.225600
   2565   2567   2570     1   114.2100488 537.225600
   2565   2572   2573     1   114.2100488 537.225600
   2566   2565   2567     1   109.6600471 523.836800
   2566   2565   2572     1   109.6600471 523.836800
   2566   2568   2569     1   111.0400475 529.694400
   2567   2565   2572     1   109.6600471 523.836800
   2567   2570   2571     1   111.0400475 529.694400
   2568   2569   8743     1   115.1800491 558.982400
   2568   2569   2575     1   123.2000528 564.003200
   2569   8743   8745     1   120.6900519 530.531200
   2570   2571   2576     1   123.2000528 564.003200
   2570   2571   8817     1   115.1800491 558.982400
   2571   8817   8819     1   120.6900519 530.531200
   2572   2573   2574     1   111.6100477 551.451200
   2575   2569   8743     1   123.0500530 620.905600
   2576   2571   8817     1   123.0500530 620.905600
   2591   2592   2594     1   114.2100488 537.225600
   2591   2593   2596     1   114.2100488 537.225600
   2591   2598   2599     1   114.2100488 537.225600
   2592   2591   2593     1   109.6600471 523.836800
   2592   2591   2598     1   109.6600471 523.836800
   2592   2594   2595     1   111.0400475 529.694400
   2593   2591   2598     1   109.6600471 523.836800
   2593   2596   2597     1   111.0400475 529.694400
   2594   2595   8891     1   115.1800491 558.982400
   2594   2595   2601     1   123.2000528 564.003200
   2595   8891   8893     1   120.6900519 530.531200
   2596   2597   2602     1   123.2000528 564.003200
   2596   2597   8965     1   115.1800491 558.982400
   2597   8965   8967     1   120.6900519 530.531200
   2598   2599   2600     1   111.6100477 551.451200
   2601   2595   8891     1   123.0500530 620.905600
   2602   2597   8965     1   123.0500530 620.905600
   2617   2618   2620     1   114.2100488 537.225600
   2617   2619   2622     1   114.2100488 537.225600
   2617   2624   2625     1   114.2100488 537.225600
   2618   2617   2619     1   109.6600471 523.836800
   2618   2617   2624     1   109.6600471 523.836800
   2618   2620   2621     1   111.0400475 529.694400
   2619   2617   2624     1   109.6600471 523.836800
   2619   2622   2623     1   111.0400475 529.694400
   2620   2621   9039     1   115.1800491 558.982400
   2620   2621   2627     1   123.2000528 564.003200
   2621   9039   9041     1   120.6900519 530.531200
   2622   2623   2628     1   123.2000528 564.003200
   2622   2623   9113     1   115.1800491 558.982400
   2623   9113   9115     1   120.6900519 530.531200
   2624   2625   2626     1   111.6100477 551.451200
   2627   2621   9039     1   123.0500530 620.905600
   2628   2623   9113     1   123.0500530 620.905600
   2643   2644   2646     1   114.2100488 537.225600
   2643   2645   2648     1   114.2100488 537.225600
   2643   2650   2651     1   114.2100488 537.225600
   2644   2643   2645     1   109.6600471 523.836800
   2644   2643   2650     1   109.6600471 523.836800
   2644   2646   2647     1   111.0400475 529.694400
   2645   2643   2650     1   109.6600471 523.836800
   2645   2648   2649     1   111.0400475 529.694400
   2646   2647   9187     1   115.1800491 558.982400
   2646   2647   2653     1   123.2000528 564.003200
   2647   9187   9189     1   120.6900519 530.531200
   2648   2649   2654     1   123.2000528 564.003200
   2648   2649   9261     1   115.1800491 558.982400
   2649   9261   9263     1   120.6900519 530.531200
   2650   2651   2652     1   111.6100477 551.451200
   2653   2647   9187     1   123.0500530 620.905600
   2654   2649   9261     1   123.0500530 620.905600
   2669   2670   2672     1   114.2100488 537.225600
   2669   2671   2674     1   114.2100488 537.225600
   2669   2676   2677     1   114.2100488 537.225600
   2670   2669   2671     1   109.6600471 523.836800
   2670   2669   2676     1   109.6600471 523.836800
   2670   2672   2673     1   111.0400475 529.694400
   2671   2669   2676     1   109.6600471 523.836800
   2671   2674   2675     1   111.0400475 529.694400
   2672   2673   9335     1   115.1800491 558.982400
   2672   2673   2679     1   123.2000528 564.003200
   2673   9335   9337     1   120.6900519 530.531200
   2674   2675   2680     1   123.2000528 564.003200
   2674   2675   9409     1   115.1800491 558.982400
   2675   9409   9411     1   120.6900519 530.531200
   2676   2677   2678     1   111.6100477 551.451200
   2679   2673   9335     1   123.0500530 620.905600
   2680   2675   9409     1   123.0500530 620.905600
   2695   2696   2698     1   114.2100488 537.225600
   2695   2697   2700     1   114.2100488 537.225600
   2695   2702   2703     1   114.2100488 537.225600
   2696   2695   2697     1   109.6600471 523.836800
   2696   2695   2702     1   109.6600471 523.836800
   2696   2698   2699     1   111.0400475 529.694400
   2697   2695   2702     1   109.6600471 523.836800
   2697   2700   2701     1   111.0400475 529.694400
   2698   2699   9483     1   115.1800491 558.982400
   2698   2699   2705     1   123.2000528 564.003200
   2699   9483   9485     1   120.6900519 530.531200
   2700   2701   2706     1   123.2000528 564.003200
   2700   2701   9557     1   115.1800491 558.982400
   2701   9557   9559     1   120.6900519 530.531200
   2702   2703   2704     1   111.6100477 551.451200
   2705   2699   9483     1   123.0500530 620.905600
   2706   2701   9557     1   123.0500530 620.905600
   2721   2722   2724     1   114.2100488 537.225600
   2721   2723   2726     1   114.2100488 537.225600
   2721   2728   2729     1   114.2100488 537.225600
   2722   2721   2723     1   109.6600471 523.836800
   2722   2721   2728     1   109.6600471 523.836800
   2722   2724   2725     1   111.0400475 529.694400
   2723   2721   2728     1   109.6600471 523.836800
   2723   2726   2727     1   111.0400475 529.694400
   2724   2725   9631     1   115.1800491 558.982400
   2724   2725   2731     1   123.2000528 564.003200
   2725   9631   9633     1   120.6900519 530.531200
   2726   2727   2732     1   123.2000528 564.003200
   2726   2727   9705     1   115.1800491 558.982400
   2727   9705   9707     1   120.6900519 530.531200
   2728   2729   2730     1   111.6100477 551.451200
   2731   2725   9631     1   123.0500530 620.905600
   2732   2727   9705     1   123.0500530 620.905600
   2747   2748   2750     1   114.2100488 537.225600
   2747   2749   2752     1   114.2100488 537.225600
   2747   2754   2755     1   114.2100488 537.225600
   2748   2747   2749     1   109.6600471 523.836800
   2748   2747   2754     1   109.6600471 523.836800
   2748   2750   2751     1   111.0400475 529.694400
   2749   2747   2754     1   109.6600471 523.836800
   2749   2752   2753     1   111.0400475 529.694400
   2750   2751   9779     1   115.1800491 558.982400
   2750   2751   2757     1   123.2000528 564.003200
   2751   9779   9781     1   120.6900519 530.531200
   2752   2753   2758     1   123.2000528 564.003200
   2752   2753   9853     1   115.1800491 558.982400
   2753   9853   9855     1   120.6900519 530.531200
   2754   2755   2756     1   111.6100477 551.451200
   2757   2751   9779     1   123.0500530 620.905600
   2758   2753   9853     1   123.0500530 620.905600
   2773   2774   2776     1   114.2100488 537.225600
   2773   2775   2778     1   114.2100488 537.225600
   2773   2780   2781     1   114.2100488 537.225600
   2774   2773   2775     1   109.6600471 523.836800
   2774   2773   2780     1   109.6600471 523.836800
   2774   2776   2777     1   111.0400475 529.694400
   2775   2773   2780     1   109.6600471 523.836800
   2775   2778   2779     1   111.0400475 529.694400
   2776   2777   9927     1   115.1800491 558.982400
   2776   2777   2783     1   123.2000528 564.003200
   2777   9927   9929     1   120.6900519 530.531200
   2778   2779   2784     1   123.2000528 564.003200
   2778   2779  10001     1   115.1800491 558.982400
   2779  10001  10003     1   120.6900519 530.531200
   2780   2781   2782     1   111.6100477 551.451200
   2783   2777   9927     1   123.0500530 620.905600
   2784   2779  10001     1   123.0500530 620.905600
   2799   2800   2802     1   114.2100488 537.225600
   2799   2801   2804     1   114.2100488 537.225600
   2799   2806   2807     1   114.2100488 537.225600
   2800   2799   2801     1   109.6600471 523.836800
   2800   2799   2806     1   109.6600471 523.836800
   2800   2802   2803     1   111.0400475 529.694400
   2801   2799   2806     1   109.6600471 523.836800
   2801   2804   2805     1   111.0400475 529.694400
   2802   2803  10075     1   115.1800491 558.982400
   2802   2803   2809     1   123.2000528 564.003200
   2803  10075  10077     1   120.6900519 530.531200
   2804   2805   2810     1   123.2000528 564.003200
   2804   2805  10149     1   115.1800491 558.982400
   2805  10149  10151     1   120.6900519 530.531200
   2806   2807   2808     1   111.6100477 551.451200
   2809   2803  10075     1   123.0500530 620.905600
   2810   2805  10149     1   123.0500530 620.905600
   2825   2826   2828     1   114.2100488 537.225600
   2825   2827   2830     1   114.2100488 537.225600
   2825   2832   2833     1   114.2100488 537.225600
   2826   2825   2827     1   109.6600471 523.836800
   2826   2825   2832     1   109.6600471 523.836800
   2826   2828   2829     1   111.0400475 529.694400
   2827   2825   2832     1   109.6600471 523.836800
   2827   2830   2831     1   111.0400475 529.694400
   2828   2829  10223     1   115.1800491 558.982400
   2828   2829   2835     1   123.2000528 564.003200
   2829  10223  10225     1   120.6900519 530.531200
   2830   2831   2836     1   123.2000528 564.003200
   2830   2831  10297     1   115.1800491 558.982400
   2831  10297  10299     1   120.6900519 530.531200
   2832   2833   2834     1   111.6100477 551.451200
   2835   2829  10223     1   123.0500530 620.905600
   2836   2831  10297     1   123.0500530 620.905600
   2851   2852   2854     1   114.2100488 537.225600
   2851   2853   2856     1   114.2100488 537.225600
   2851   2858   2859     1   114.2100488 537.225600
   2852   2851   2853     1   109.6600471 523.836800
   2852   2851   2858     1   109.6600471 523.836800
   2852   2854   2855     1   111.0400475 529.694400
   2853   2851   2858     1   109.6600471 523.836800
   2853   2856   2857     1   111.0400475 529.694400
   2854   2855  10371     1   115.1800491 558.982400
   2854   2855   2861     1   123.2000528 564.003200
   2855  10371  10373     1   120.6900519 530.531200
   2856   2857   2862     1   123.2000528 564.003200
   2856   2857  10445     1   115.1800491 558.982400
   2857  10445  10447     1   120.6900519 530.531200
   2858   2859   2860     1   111.6100477 551.451200
   2861   2855  10371     1   123.0500530 620.905600
   2862   2857  10445     1   123.0500530 620.905600
   2877   2878   2880     1   114.2100488 537.225600
   2877   2879   2882     1   114.2100488 537.225600
   2877   2884   2885     1   114.2100488 537.225600
   2878   2877   2879     1   109.6600471 523.836800
   2878   2877   2884     1   109.6600471 523.836800
   2878   2880   2881     1   111.0400475 529.694400
   2879   2877   2884     1   109.6600471 523.836800
   2879   2882   2883     1   111.0400475 529.694400
   2880   2881  10519     1   115.1800491 558.982400
   2880   2881   2887     1   123.2000528 564.003200
   2881  10519  10521     1   120.6900519 530.531200
   2882   2883   2888     1   123.2000528 564.003200
   2882   2883  10593     1   115.1800491 558.982400
   2883  10593  10595     1   120.6900519 530.531200
   2884   2885   2886     1   111.6100477 551.451200
   2887   2881  10519     1   123.0500530 620.905600
   2888   2883  10593     1   123.0500530 620.905600
   2903   2904   2906     1   114.2100488 537.225600
   2903   2905   2908     1   114.2100488 537.225600
   2903   2910   2911     1   114.2100488 537.225600
   2904   2903   2905     1   109.6600471 523.836800
   2904   2903   2910     1   109.6600471 523.836800
   2904   2906   2907     1   111.0400475 529.694400
   2905   2903   2910     1   109.6600471 523.836800
   2905   2908   2909     1   111.0400475 529.694400
   2906   2907  10667     1   115.1800491 558.982400
   2906   2907   2913     1   123.2000528 564.003200
   2907  10667  10669     1   120.6900519 530.531200
   2908   2909   2914     1   123.2000528 564.003200
   2908   2909  10741     1   115.1800491 558.982400
   2909  10741  10743     1   120.6900519 530.531200
   2910   2911   2912     1   111.6100477 551.451200
   2913   2907  10667     1   123.0500530 620.905600
   2914   2909  10741     1   123.0500530 620.905600
   2929   2930   2932     1   114.2100488 537.225600
   2929   2931   2934     1   114.2100488 537.225600
   2929   2936   2937     1   114.2100488 537.225600
   2930   2929   2931     1   109.6600471 523.836800
   2930   2929   2936     1   109.6600471 523.836800
   2930   2932   2933     1   111.0400475 529.694400
   2931   2929   2936     1   109.6600471 523.836800
   2931   2934   2935     1   111.0400475 529.694400
   2932   2933  10815     1   115.1800491 558.982400
   2932   2933   2939     1   123.2000528 564.003200
   2933  10815  10817     1   120.6900519 530.531200
   2934   2935   2940     1   123.2000528 564.003200
   2934   2935  10889     1   115.1800491 558.982400
   2935  10889  10891     1   120.6900519 530.531200
   2936   2937   2938     1   111.6100477 551.451200
   2939   2933  10815     1   123.0500530 620.905600
   2940   2935  10889     1   123.0500530 620.905600
   2955   2956   2958     1   114.2100488 537.225600
   2955   2957   2960     1   114.2100488 537.225600
   2955   2962   2963     1   114.2100488 537.225600
   2956   2955   2957     1   109.6600471 523.836800
   2956   2955   2962     1   109.6600471 523.836800
   2956   2958   2959     1   111.0400475 529.694400
   2957   2955   2962     1   109.6600471 523.836800
   2957   2960   2961     1   111.0400475 529.694400
   2958   2959  10963     1   115.1800491 558.982400
   2958   2959   2965     1   123.2000528 564.003200
   2959  10963  10965     1   120.6900519 530.531200
   2960   2961   2966     1   123.2000528 564.003200
   2960   2961  11037     1   115.1800491 558.982400
   2961  11037  11039     1   120.6900519 530.531200
   2962   2963   2964     1   111.6100477 551.451200
   2965   2959  10963     1   123.0500530 620.905600
   2966   2961  11037     1   123.0500530 620.905600
   2981   2982   2984     1   114.2100488 537.225600
   2981   2983   2986     1   114.2100488 537.225600
   2981   2988   2989     1   114.2100488 537.225600
   2982   2981   2983     1   109.6600471 523.836800
   2982   2981   2988     1   109.6600471 523.836800
   2982   2984   2985     1   111.0400475 529.694400
   2983   2981   2988     1   109.6600471 523.836800
   2983   2986   2987     1   111.0400475 529.694400
   2984   2985  11111     1   115.1800491 558.982400
   2984   2985   2991     1   123.2000528 564.003200
   2985  11111  11113     1   120.6900519 530.531200
   2986   2987   2992     1   123.2000528 564.003200
   2986   2987  11185     1   115.1800491 558.982400
   2987  11185  11187     1   120.6900519 530.531200
   2988   2989   2990     1   111.6100477 551.451200
   2991   2985  11111     1   123.0500530 620.905600
   2992   2987  11185     1   123.0500530 620.905600
   3007   3008   3010     1   114.2100488 537.225600
   3007   3009   3012     1   114.2100488 537.225600
   3007   3014   3015     1   114.2100488 537.225600
   3008   3007   3009     1   109.6600471 523.836800
   3008   3007   3014     1   109.6600471 523.836800
   3008   3010   3011     1   111.0400475 529.694400
   3009   3007   3014     1   109.6600471 523.836800
   3009   3012   3013     1   111.0400475 529.694400
   3010   3011  11259     1   115.1800491 558.982400
   3010   3011   3017     1   123.2000528 564.003200
   3011  11259  11261     1   120.6900519 530.531200
   3012   3013   3018     1   123.2000528 564.003200
   3012   3013  11333     1   115.1800491 558.982400
   3013  11333  11335     1   120.6900519 530.531200
   3014   3015   3016     1   111.6100477 551.451200
   3017   3011  11259     1   123.0500530 620.905600
   3018   3013  11333     1   123.0500530 620.905600
   3033   3034   3036     1   114.2100488 537.225600
   3033   3035   3038     1   114.2100488 537.225600
   3033   3040   3041     1   114.2100488 537.225600
   3034   3033   3035     1   109.6600471 523.836800
   3034   3033   3040     1   109.6600471 523.836800
   3034   3036   3037     1   111.0400475 529.694400
   3035   3033   3040     1   109.6600471 523.836800
   3035   3038   3039     1   111.0400475 529.694400
   3036   3037  11407     1   115.1800491 558.982400
   3036   3037   3043     1   123.2000528 564.003200
   3037  11407  11409     1   120.6900519 530.531200
   3038   3039   3044     1   123.2000528 564.003200
   3038   3039  11481     1   115.1800491 558.982400
   3039  11481  11483     1   120.6900519 530.531200
   3040   3041   3042     1   111.6100477 551.451200
   3043   3037  11407     1   123.0500530 620.905600
   3044   3039  11481     1   123.0500530 620.905600
   3059   3060   3062     1   114.2100488 537.225600
   3059   3061   3064     1   114.2100488 537.225600
   3059   3066   3067     1   114.2100488 537.225600
   3060   3059   3061     1   109.6600471 523.836800
   3060   3059   3066     1   109.6600471 523.836800
   3060   3062   3063     1   111.0400475 529.694400
   3061   3059   3066     1   109.6600471 523.836800
   3061   3064   3065     1   111.0400475 529.694400
   3062   3063  11555     1   115.1800491 558.982400
   3062   3063   3069     1   123.2000528 564.003200
   3063  11555  11557     1   120.6900519 530.531200
   3064   3065   3070     1   123.2000528 564.003200
   3064   3065  11629     1   115.1800491 558.982400
   3065  11629  11631     1   120.6900519 530.531200
   3066   3067   3068     1   111.6100477 551.451200
   3069   3063  11555     1   123.0500530 620.905600
   3070   3065  11629     1   123.0500530 620.905600
   3085   3086   3088     1   114.2100488 537.225600
   3085   3087   3090     1   114.2100488 537.225600
   3085   3092   3093     1   114.2100488 537.225600
   3086   3085   3087     1   109.6600471 523.836800
   3086   3085   3092     1   109.6600471 523.836800
   3086   3088   3089     1   111.0400475 529.694400
   3087   3085   3092     1   109.6600471 523.836800
   3087   3090   3091     1   111.0400475 529.694400
   3088   3089  11703     1   115.1800491 558.982400
   3088   3089   3095     1   123.2000528 564.003200
   3089  11703  11705     1   120.6900519 530.531200
   3090   3091   3096     1   123.2000528 564.003200
   3090   3091  11777     1   115.1800491 558.982400
   3091  11777  11779     1   120.6900519 530.531200
   3092   3093   3094     1   111.6100477 551.451200
   3095   3089  11703     1   123.0500530 620.905600
   3096   3091  11777     1   123.0500530 620.905600
   3111   3112   3114     1   114.2100488 537.225600
   3111   3113   3116     1   114.2100488 537.225600
   3111   3118   3119     1   114.2100488 537.225600
   3112   3111   3113     1   109.6600471 523.836800
   3112   3111   3118     1   109.6600471 523.836800
   3112   3114   3115     1   111.0400475 529.694400
   3113   3111   3118     1   109.6600471 523.836800
   3113   3116   3117     1   111.0400475 529.694400
   3114   3115  11851     1   115.1800491 558.982400
   3114   3115   3121     1   123.2000528 564.003200
   3115  11851  11853     1   120.6900519 530.531200
   3116   3117   3122     1   123.2000528 564.003200
   3116   3117  11925     1   115.1800491 558.982400
   3117  11925  11927     1   120.6900519 530.531200
   3118   3119   3120     1   111.6100477 551.451200
   3121   3115  11851     1   123.0500530 620.905600
   3122   3117  11925     1   123.0500530 620.905600
   3137   3138   3140     1   114.2100488 537.225600
   3137   3139   3142     1   114.2100488 537.225600
   3137   3144   3145     1   114.2100488 537.225600
   3138   3137   3139     1   109.6600471 523.836800
   3138   3137   3144     1   109.6600471 523.836800
   3138   3140   3141     1   111.0400475 529.694400
   3139   3137   3144     1   109.6600471 523.836800
   3139   3142   3143     1   111.0400475 529.694400
   3140   3141  11999     1   115.1800491 558.982400
   3140   3141   3147     1   123.2000528 564.003200
   3141  11999  12001     1   120.6900519 530.531200
   3142   3143   3148     1   123.2000528 564.003200
   3142   3143  12073     1   115.1800491 558.982400
   3143  12073  12075     1   120.6900519 530.531200
   3144   3145   3146     1   111.6100477 551.451200
   3147   3141  11999     1   123.0500530 620.905600
   3148   3143  12073     1   123.0500530 620.905600
   3163   3164   3166     1   114.2100488 537.225600
   3163   3165   3168     1   114.2100488 537.225600
   3163   3170   3171     1   114.2100488 537.225600
   3164   3163   3165     1   109.6600471 523.836800
   3164   3163   3170     1   109.6600471 523.836800
   3164   3166   3167     1   111.0400475 529.694400
   3165   3163   3170     1   109.6600471 523.836800
   3165   3168   3169     1   111.0400475 529.694400
   3166   3167  12147     1   115.1800491 558.982400
   3166   3167   3173     1   123.2000528 564.003200
   3167  12147  12149     1   120.6900519 530.531200
   3168   3169   3174     1   123.2000528 564.003200
   3168   3169  12221     1   115.1800491 558.982400
   3169  12221  12223     1   120.6900519 530.531200
   3170   3171   3172     1   111.6100477 551.451200
   3173   3167  12147     1   123.0500530 620.905600
   3174   3169  12221     1   123.0500530 620.905600
   3189   3190   3192     1   114.2100488 537.225600
   3189   3191   3194     1   114.2100488 537.225600
   3189   3196   3197     1   114.2100488 537.225600
   3190   3189   3191     1   109.6600471 523.836800
   3190   3189   3196     1   109.6600471 523.836800
   3190   3192   3193     1   111.0400475 529.694400
   3191   3189   3196     1   109.6600471 523.836800
   3191   3194   3195     1   111.0400475 529.694400
   3192   3193  12295     1   115.1800491 558.982400
   3192   3193   3199     1   123.2000528 564.003200
   3193  12295  12297     1   120.6900519 530.531200
   3194   3195   3200     1   123.2000528 564.003200
   3194   3195  12369     1   115.1800491 558.982400
   3195  12369  12371     1   120.6900519 530.531200
   3196   3197   3198     1   111.6100477 551.451200
   3199   3193  12295     1   123.0500530 620.905600
   3200   3195  12369     1   123.0500530 620.905600
   3215   3216   3218     1   114.2100488 537.225600
   3215   3217   3220     1   114.2100488 537.225600
   3215   3222   3223     1   114.2100488 537.225600
   3216   3215   3217     1   109.6600471 523.836800
   3216   3215   3222     1   109.6600471 523.836800
   3216   3218   3219     1   111.0400475 529.694400
   3217   3215   3222     1   109.6600471 523.836800
   3217   3220   3221     1   111.0400475 529.694400
   3218   3219  12443     1   115.1800491 558.982400
   3218   3219   3225     1   123.2000528 564.003200
   3219  12443  12445     1   120.6900519 530.531200
   3220   3221   3226     1   123.2000528 564.003200
   3220   3221  12517     1   115.1800491 558.982400
   3221  12517  12519     1   120.6900519 530.531200
   3222   3223   3224     1   111.6100477 551.451200
   3225   3219  12443     1   123.0500530 620.905600
   3226   3221  12517     1   123.0500530 620.905600
   3241   3242   3244     1   114.2100488 537.225600
   3241   3243   3246     1   114.2100488 537.225600
   3241   3248   3249     1   114.2100488 537.225600
   3242   3241   3243     1   109.6600471 523.836800
   3242   3241   3248     1   109.6600471 523.836800
   3242   3244   3245     1   111.0400475 529.694400
   3243   3241   3248     1   109.6600471 523.836800
   3243   3246   3247     1   111.0400475 529.694400
   3244   3245  12591     1   115.1800491 558.982400
   3244   3245   3251     1   123.2000528 564.003200
   3245  12591  12593     1   120.6900519 530.531200
   3246   3247  12665     1   115.1800491 558.982400
   3246   3247   3252     1   123.2000528 564.003200
   3247  12665  12667     1   120.6900519 530.531200
   3248   3249   3250     1   111.6100477 551.451200
   3251   3245  12591     1   123.0500530 620.905600
   3252   3247  12665     1   123.0500530 620.905600
   3267   3269   3271     1   111.6100477 551.451200
   3269   3271   3275     1   114.2100488 537.225600
   3271   3275   3276     1   109.6600471 523.836800
   3271   3275   3277     1   109.6600471 523.836800
   3275   3276   3287     1   114.2100488 537.225600
   3275   3277   3279     1   114.2100488 537.225600
   3276   3275   3277     1   109.6600471 523.836800
   3276   3287   3290     1   111.0400475 529.694400
   3277   3279   3283     1   111.0400475 529.694400
   3279   3283   3284     1   123.2000528 564.003200
   3279   3283   3315     1   112.2600482 538.062400
   3283   3315   3296     1   118.5150508 540.957728
   3284   3283   3315     1   118.8300510 581.576000
   3287   3290   3291     1   123.2000528 564.003200
   3287   3290   3339     1   112.2600482 538.062400
   3290   3339   3320     1   118.5150508 540.957728
   3291   3290   3339     1   118.8300510 581.576000
   3292   3293   3295     1   111.5100476 526.347200
   3292   3293   3313     1   110.1900474 564.840000
   3292   3303   3308     1   110.1900474 564.840000
   3292   3310   3297     1   112.4800480 524.673600
   3293   3292   3303     1   111.5100476 526.347200
   3293   3292   3310     1   107.9700462 569.024000
   3293   3295   3296     1   111.5100476 526.347200
   3293   3295   3302     1   110.1900474 564.840000
   3295   3293   3313     1   110.1900474 564.840000
   3295   3296   3297     1   111.5100476 526.347200
   3295   3296   3315     1   111.0400475 552.288000
   3296   3295   3302     1   110.1900474 564.840000
   3296   3297   3301     1   110.1900474 564.840000
   3296   3297   3310     1   107.9700462 569.024000
   3297   3296   3315     1   111.0400475 552.288000
   3301   3297   3310     1   109.3800466 607.516800
   3303   3292   3310     1   107.9700462 569.024000
   3316   3317   3319     1   111.5100476 526.347200
   3316   3317   3337     1   110.1900474 564.840000
   3316   3327   3332     1   110.1900474 564.840000
   3316   3334   3321     1   112.4800480 524.673600
   3317   3316   3327     1   111.5100476 526.347200
   3317   3316   3334     1   107.9700462 569.024000
   3317   3319   3320     1   111.5100476 526.347200
   3317   3319   3326     1   110.1900474 564.840000
   3319   3317   3337     1   110.1900474 564.840000
   3319   3320   3321     1   111.5100476 526.347200
   3319   3320   3339     1   111.0400475 552.288000
   3320   3319   3326     1   110.1900474 564.840000
   3320   3321   3325     1   110.1900474 564.840000
   3320   3321   3334     1   107.9700462 569.024000
   3321   3320   3339     1   111.0400475 552.288000
   3325   3321   3334     1   109.3800466 607.516800
   3327   3316   3334     1   107.9700462 569.024000
   3341   3343   3345     1   111.6100477 551.451200
   3343   3345   3349     1   114.2100488 537.225600
   3345   3349   3350     1   109.6600471 523.836800
   3345   3349   3351     1   109.6600471 523.836800
   3349   3350   3361     1   114.2100488 537.225600
   3349   3351   3353     1   114.2100488 537.225600
   3350   3361   3364     1   111.0400475 529.694400
   3350   3349   3351     1   109.6600471 523.836800
   3351   3353   3357     1   111.0400475 529.694400
   3353   3357   3358     1   123.2000528 564.003200
   3353   3357   3389     1   112.2600482 538.062400
   3357   3389   3370     1   118.5150508 540.957728
   3358   3357   3389     1   118.8300510 581.576000
   3361   3364   3365     1   123.2000528 564.003200
   3361   3364   3413     1   112.2600482 538.062400
   3364   3413   3394     1   118.5150508 540.957728
   3365   3364   3413     1   118.8300510 581.576000
   3366   3367   3369     1   111.5100476 526.347200
   3366   3367   3387     1   110.1900474 564.840000
   3366   3377   3382     1   110.1900474 564.840000
   3366   3384   3371     1   112.4800480 524.673600
   3367   3369   3370     1   111.5100476 526.347200
   3367   3369   3376     1   110.1900474 564.840000
   3367   3366   3377     1   111.5100476 526.347200
   3367   3366   3384     1   107.9700462 569.024000
   3369   3370   3371     1   111.5100476 526.347200
   3369   3370   3389     1   111.0400475 552.288000
   3369   3367   3387     1   110.1900474 564.840000
   3370   3371   3375     1   110.1900474 564.840000
   3370   3371   3384     1   107.9700462 569.024000
   3370   3369   3376     1   110.1900474 564.840000
   3371   3370   3389     1   111.0400475 552.288000
   3375   3371   3384     1   109.3800466 607.516800
   3377   3366   3384     1   107.9700462 569.024000
   3390   3391   3393     1   111.5100476 526.347200
   3390   3391   3411     1   110.1900474 564.840000
   3390   3401   3406     1   110.1900474 564.840000
   3390   3408   3395     1   112.4800480 524.673600
   3391   3393   3394     1   111.5100476 526.347200
   3391   3393   3400     1   110.1900474 564.840000
   3391   3390   3401     1   111.5100476 526.347200
   3391   3390   3408     1   107.9700462 569.024000
   3393   3394   3395     1   111.5100476 526.347200
   3393   3394   3413     1   111.0400475 552.288000
   3393   3391   3411     1   110.1900474 564.840000
   3394   3395   3399     1   110.1900474 564.840000
   3394   3395   3408     1   107.9700462 569.024000
   3394   3393   3400     1   110.1900474 564.840000
   3395   3394   3413     1   111.0400475 552.288000
   3399   3395   3408     1   109.3800466 607.516800
   3401   3390   3408     1   107.9700462 569.024000
   3415   3417   3419     1   111.6100477 551.451200
   3417   3419   3423     1   114.2100488 537.225600
   3419   3423   3424     1   109.6600471 523.836800
   3419   3423   3425     1   109.6600471 523.836800
   3423   3424   3435     1   114.2100488 537.225600
   3423   3425   3427     1   114.2100488 537.225600
   3424   3423   3425     1   109.6600471 523.836800
   3424   3435   3438     1   111.0400475 529.694400
   3425   3427   3431     1   111.0400475 529.694400
   3427   3431   3432     1   123.2000528 564.003200
   3427   3431   3463     1   112.2600482 538.062400
   3431   3463   3444     1   118.5150508 540.957728
   3432   3431   3463     1   118.8300510 581.576000
   3435   3438   3439     1   123.2000528 564.003200
   3435   3438   3487     1   112.2600482 538.062400
   3438   3487   3468     1   118.5150508 540.957728
   3439   3438   3487     1   118.8300510 581.576000
   3440   3441   3443     1   111.5100476 526.347200
   3440   3441   3461     1   110.1900474 564.840000
   3440   3451   3456     1   110.1900474 564.840000
   3440   3458   3445     1   112.4800480 524.673600
   3441   3440   3451     1   111.5100476 526.347200
   3441   3440   3458     1   107.9700462 569.024000
   3441   3443   3444     1   111.5100476 526.347200
   3441   3443   3450     1   110.1900474 564.840000
   3443   3441   3461     1   110.1900474 564.840000
   3443   3444   3445     1   111.5100476 526.347200
   3443   3444   3463     1   111.0400475 552.288000
   3444   3443   3450     1   110.1900474 564.840000
   3444   3445   3449     1   110.1900474 564.840000
   3444   3445   3458     1   107.9700462 569.024000
   3445   3444   3463     1   111.0400475 552.288000
   3449   3445   3458     1   109.3800466 607.516800
   3451   3440   3458     1   107.9700462 569.024000
   3464   3465   3467     1   111.5100476 526.347200
   3464   3465   3485     1   110.1900474 564.840000
   3464   3475   3480     1   110.1900474 564.840000
   3464   3482   3469     1   112.4800480 524.673600
   3465   3464   3475     1   111.5100476 526.347200
   3465   3464   3482     1   107.9700462 569.024000
   3465   3467   3468     1   111.5100476 526.347200
   3465   3467   3474     1   110.1900474 564.840000
   3467   3465   3485     1   110.1900474 564.840000
   3467   3468   3469     1   111.5100476 526.347200
   3467   3468   3487     1   111.0400475 552.288000
   3468   3467   3474     1   110.1900474 564.840000
   3468   3469   3473     1   110.1900474 564.840000
   3468   3469   3482     1   107.9700462 569.024000
   3469   3468   3487     1   111.0400475 552.288000
   3473   3469   3482     1   109.3800466 607.516800
   3475   3464   3482     1   107.9700462 569.024000
   3489   3491   3493     1   111.6100477 551.451200
   3491   3493   3497     1   114.2100488 537.225600
   3493   3497   3498     1   109.6600471 523.836800
   3493   3497   3499     1   109.6600471 523.836800
   3497   3498   3509     1   114.2100488 537.225600
   3497   3499   3501     1   114.2100488 537.225600
   3498   3509   3512     1   111.0400475 529.694400
   3498   3497   3499     1   109.6600471 523.836800
   3499   3501   3505     1   111.0400475 529.694400
   3501   3505   3506     1   123.2000528 564.003200
   3501   3505   3537     1   112.2600482 538.062400
   3505   3537   3518     1   118.5150508 540.957728
   3506   3505   3537     1   118.8300510 581.576000
   3509   3512   3513     1   123.2000528 564.003200
   3509   3512   3561     1   112.2600482 538.062400
   3512   3561   3542     1   118.5150508 540.957728
   3513   3512   3561     1   118.8300510 581.576000
   3514   3515   3517     1   111.5100476 526.347200
   3514   3515   3535     1   110.1900474 564.840000
   3514   3525   3530     1   110.1900474 564.840000
   3514   3532   3519     1   112.4800480 524.673600
   3515   3517   3518     1   111.5100476 526.347200
   3515   3517   3524     1   110.1900474 564.840000
   3515   3514   3525     1   111.5100476 526.347200
   3515   3514   3532     1   107.9700462 569.024000
   3517   3518   3519     1   111.5100476 526.347200
   3517   3518   3537     1   111.0400475 552.288000
   3517   3515   3535     1   110.1900474 564.840000
   3518   3519   3523     1   110.1900474 564.840000
   3518   3519   3532     1   107.9700462 569.024000
   3518   3517   3524     1   110.1900474 564.840000
   3519   3518   3537     1   111.0400475 552.288000
   3523   3519   3532     1   109.3800466 607.516800
   3525   3514   3532     1   107.9700462 569.024000
   3538   3539   3541     1   111.5100476 526.347200
   3538   3539   3559     1   110.1900474 564.840000
   3538   3549   3554     1   110.1900474 564.840000
   3538   3556   3543     1   112.4800480 524.673600
   3539   3541   3542     1   111.5100476 526.347200
   3539   3541   3548     1   110.1900474 564.840000
   3539   3538   3549     1   111.5100476 526.347200
   3539   3538   3556     1   107.9700462 569.024000
   3541   3542   3543     1   111.5100476 526.347200
   3541   3542   3561     1   111.0400475 552.288000
   3541   3539   3559     1   110.1900474 564.840000
   3542   3543   3547     1   110.1900474 564.840000
   3542   3543   3556     1   107.9700462 569.024000
   3542   3541   3548     1   110.1900474 564.840000
   3543   3542   3561     1   111.0400475 552.288000
   3547   3543   3556     1   109.3800466 607.516800
   3549   3538   3556     1   107.9700462 569.024000
   3563   3565   3567     1   111.6100477 551.451200
   3565   3567   3571     1   114.2100488 537.225600
   3567   3571   3572     1   109.6600471 523.836800
   3567   3571   3573     1   109.6600471 523.836800
   3571   3572   3583     1   114.2100488 537.225600
   3571   3573   3575     1   114.2100488 537.225600
   3572   3571   3573     1   109.6600471 523.836800
   3572   3583   3586     1   111.0400475 529.694400
   3573   3575   3579     1   111.0400475 529.694400
   3575   3579   3580     1   123.2000528 564.003200
   3575   3579   3611     1   112.2600482 538.062400
   3579   3611   3592     1   118.5150508 540.957728
   3580   3579   3611     1   118.8300510 581.576000
   3583   3586   3587     1   123.2000528 564.003200
   3583   3586   3635     1   112.2600482 538.062400
   3586   3635   3616     1   118.5150508 540.957728
   3587   3586   3635     1   118.8300510 581.576000
   3588   3589   3591     1   111.5100476 526.347200
   3588   3589   3609     1   110.1900474 564.840000
   3588   3599   3604     1   110.1900474 564.840000
   3588   3606   3593     1   112.4800480 524.673600
   3589   3588   3599     1   111.5100476 526.347200
   3589   3588   3606     1   107.9700462 569.024000
   3589   3591   3592     1   111.5100476 526.347200
   3589   3591   3598     1   110.1900474 564.840000
   3591   3589   3609     1   110.1900474 564.840000
   3591   3592   3593     1   111.5100476 526.347200
   3591   3592   3611     1   111.0400475 552.288000
   3592   3591   3598     1   110.1900474 564.840000
   3592   3593   3597     1   110.1900474 564.840000
   3592   3593   3606     1   107.9700462 569.024000
   3593   3592   3611     1   111.0400475 552.288000
   3597   3593   3606     1   109.3800466 607.516800
   3599   3588   3606     1   107.9700462 569.024000
   3612   3613   3615     1   111.5100476 526.347200
   3612   3613   3633     1   110.1900474 564.840000
   3612   3623   3628     1   110.1900474 564.840000
   3612   3630   3617     1   112.4800480 524.673600
   3613   3612   3623     1   111.5100476 526.347200
   3613   3612   3630     1   107.9700462 569.024000
   3613   3615   3616     1   111.5100476 526.347200
   3613   3615   3622     1   110.1900474 564.840000
   3615   3613   3633     1   110.1900474 564.840000
   3615   3616   3617     1   111.5100476 526.347200
   3615   3616   3635     1   111.0400475 552.288000
   3616   3615   3622     1   110.1900474 564.840000
   3616   3617   3621     1   110.1900474 564.840000
   3616   3617   3630     1   107.9700462 569.024000
   3617   3616   3635     1   111.0400475 552.288000
   3621   3617   3630     1   109.3800466 607.516800
   3623   3612   3630     1   107.9700462 569.024000
   3637   3639   3641     1   111.6100477 551.451200
   3639   3641   3645     1   114.2100488 537.225600
   3641   3645   3646     1   109.6600471 523.836800
   3641   3645   3647     1   109.6600471 523.836800
   3645   3646   3657     1   114.2100488 537.225600
   3645   3647   3649     1   114.2100488 537.225600
   3646   3657   3660     1   111.0400475 529.694400
   3646   3645   3647     1   109.6600471 523.836800
   3647   3649   3653     1   111.0400475 529.694400
   3649   3653   3654     1   123.2000528 564.003200
   3649   3653   3685     1   112.2600482 538.062400
   3653   3685   3666     1   118.5150508 540.957728
   3654   3653   3685     1   118.8300510 581.576000
   3657   3660   3661     1   123.2000528 564.003200
   3657   3660   3709     1   112.2600482 538.062400
   3660   3709   3690     1   118.5150508 540.957728
   3661   3660   3709     1   118.8300510 581.576000
   3662   3663   3665     1   111.5100476 526.347200
   3662   3663   3683     1   110.1900474 564.840000
   3662   3673   3678     1   110.1900474 564.840000
   3662   3680   3667     1   112.4800480 524.673600
   3663   3665   3666     1   111.5100476 526.347200
   3663   3665   3672     1   110.1900474 564.840000
   3663   3662   3673     1   111.5100476 526.347200
   3663   3662   3680     1   107.9700462 569.024000
   3665   3666   3667     1   111.5100476 526.347200
   3665   3666   3685     1   111.0400475 552.288000
   3665   3663   3683     1   110.1900474 564.840000
   3666   3667   3671     1   110.1900474 564.840000
   3666   3667   3680     1   107.9700462 569.024000
   3666   3665   3672     1   110.1900474 564.840000
   3667   3666   3685     1   111.0400475 552.288000
   3671   3667   3680     1   109.3800466 607.516800
   3673   3662   3680     1   107.9700462 569.024000
   3686   3687   3689     1   111.5100476 526.347200
   3686   3687   3707     1   110.1900474 564.840000
   3686   3697   3702     1   110.1900474 564.840000
   3686   3704   3691     1   112.4800480 524.673600
   3687   3689   3690     1   111.5100476 526.347200
   3687   3689   3696     1   110.1900474 564.840000
   3687   3686   3697     1   111.5100476 526.347200
   3687   3686   3704     1   107.9700462 569.024000
   3689   3690   3691     1   111.5100476 526.347200
   3689   3690   3709     1   111.0400475 552.288000
   3689   3687   3707     1   110.1900474 564.840000
   3690   3691   3695     1   110.1900474 564.840000
   3690   3691   3704     1   107.9700462 569.024000
   3690   3689   3696     1   110.1900474 564.840000
   3691   3690   3709     1   111.0400475 552.288000
   3695   3691   3704     1   109.3800466 607.516800
   3697   3686   3704     1   107.9700462 569.024000
   3711   3713   3715     1   111.6100477 551.451200
   3713   3715   3719     1   114.2100488 537.225600
   3715   3719   3720     1   109.6600471 523.836800
   3715   3719   3721     1   109.6600471 523.836800
   3719   3720   3731     1   114.2100488 537.225600
   3719   3721   3723     1   114.2100488 537.225600
   3720   3719   3721     1   109.6600471 523.836800
   3720   3731   3734     1   111.0400475 529.694400
   3721   3723   3727     1   111.0400475 529.694400
   3723   3727   3728     1   123.2000528 564.003200
   3723   3727   3759     1   112.2600482 538.062400
   3727   3759   3740     1   118.5150508 540.957728
   3728   3727   3759     1   118.8300510 581.576000
   3731   3734   3735     1   123.2000528 564.003200
   3731   3734   3783     1   112.2600482 538.062400
   3734   3783   3764     1   118.5150508 540.957728
   3735   3734   3783     1   118.8300510 581.576000
   3736   3737   3739     1   111.5100476 526.347200
   3736   3737   3757     1   110.1900474 564.840000
   3736   3747   3752     1   110.1900474 564.840000
   3736   3754   3741     1   112.4800480 524.673600
   3737   3736   3747     1   111.5100476 526.347200
   3737   3736   3754     1   107.9700462 569.024000
   3737   3739   3740     1   111.5100476 526.347200
   3737   3739   3746     1   110.1900474 564.840000
   3739   3737   3757     1   110.1900474 564.840000
   3739   3740   3741     1   111.5100476 526.347200
   3739   3740   3759     1   111.0400475 552.288000
   3740   3739   3746     1   110.1900474 564.840000
   3740   3741   3745     1   110.1900474 564.840000
   3740   3741   3754     1   107.9700462 569.024000
   3741   3740   3759     1   111.0400475 552.288000
   3745   3741   3754     1   109.3800466 607.516800
   3747   3736   3754     1   107.9700462 569.024000
   3760   3761   3763     1   111.5100476 526.347200
   3760   3761   3781     1   110.1900474 564.840000
   3760   3771   3776     1   110.1900474 564.840000
   3760   3778   3765     1   112.4800480 524.673600
   3761   3760   3771     1   111.5100476 526.347200
   3761   3760   3778     1   107.9700462 569.024000
   3761   3763   3764     1   111.5100476 526.347200
   3761   3763   3770     1   110.1900474 564.840000
   3763   3761   3781     1   110.1900474 564.840000
   3763   3764   3765     1   111.5100476 526.347200
   3763   3764   3783     1   111.0400475 552.288000
   3764   3763   3770     1   110.1900474 564.840000
   3764   3765   3769     1   110.1900474 564.840000
   3764   3765   3778     1   107.9700462 569.024000
   3765   3764   3783     1   111.0400475 552.288000
   3769   3765   3778     1   109.3800466 607.516800
   3771   3760   3778     1   107.9700462 569.024000
   3785   3787   3789     1   111.6100477 551.451200
   3787   3789   3793     1   114.2100488 537.225600
   3789   3793   3794     1   109.6600471 523.836800
   3789   3793   3795     1   109.6600471 523.836800
   3793   3794   3805     1   114.2100488 537.225600
   3793   3795   3797     1   114.2100488 537.225600
   3794   3805   3808     1   111.0400475 529.694400
   3794   3793   3795     1   109.6600471 523.836800
   3795   3797   3801     1   111.0400475 529.694400
   3797   3801   3802     1   123.2000528 564.003200
   3797   3801   3833     1   112.2600482 538.062400
   3801   3833   3814     1   118.5150508 540.957728
   3802   3801   3833     1   118.8300510 581.576000
   3805   3808   3809     1   123.2000528 564.003200
   3805   3808   3857     1   112.2600482 538.062400
   3808   3857   3838     1   118.5150508 540.957728
   3809   3808   3857     1   118.8300510 581.576000
   3810   3811   3813     1   111.5100476 526.347200
   3810   3811   3831     1   110.1900474 564.840000
   3810   3821   3826     1   110.1900474 564.840000
   3810   3828   3815     1   112.4800480 524.673600
   3811   3813   3814     1   111.5100476 526.347200
   3811   3813   3820     1   110.1900474 564.840000
   3811   3810   3821     1   111.5100476 526.347200
   3811   3810   3828     1   107.9700462 569.024000
   3813   3814   3815     1   111.5100476 526.347200
   3813   3814   3833     1   111.0400475 552.288000
   3813   3811   3831     1   110.1900474 564.840000
   3814   3815   3819     1   110.1900474 564.840000
   3814   3815   3828     1   107.9700462 569.024000
   3814   3813   3820     1   110.1900474 564.840000
   3815   3814   3833     1   111.0400475 552.288000
   3819   3815   3828     1   109.3800466 607.516800
   3821   3810   3828     1   107.9700462 569.024000
   3834   3835   3837     1   111.5100476 526.347200
   3834   3835   3855     1   110.1900474 564.840000
   3834   3845   3850     1   110.1900474 564.840000
   3834   3852   3839     1   112.4800480 524.673600
   3835   3837   3838     1   111.5100476 526.347200
   3835   3837   3844     1   110.1900474 564.840000
   3835   3834   3845     1   111.5100476 526.347200
   3835   3834   3852     1   107.9700462 569.024000
   3837   3838   3839     1   111.5100476 526.347200
   3837   3838   3857     1   111.0400475 552.288000
   3837   3835   3855     1   110.1900474 564.840000
   3838   3839   3843     1   110.1900474 564.840000
   3838   3839   3852     1   107.9700462 569.024000
   3838   3837   3844     1   110.1900474 564.840000
   3839   3838   3857     1   111.0400475 552.288000
   3843   3839   3852     1   109.3800466 607.516800
   3845   3834   3852     1   107.9700462 569.024000
   3859   3861   3863     1   111.6100477 551.451200
   3861   3863   3867     1   114.2100488 537.225600
   3863   3867   3868     1   109.6600471 523.836800
   3863   3867   3869     1   109.6600471 523.836800
   3867   3868   3879     1   114.2100488 537.225600
   3867   3869   3871     1   114.2100488 537.225600
   3868   3867   3869     1   109.6600471 523.836800
   3868   3879   3882     1   111.0400475 529.694400
   3869   3871   3875     1   111.0400475 529.694400
   3871   3875   3876     1   123.2000528 564.003200
   3871   3875   3907     1   112.2600482 538.062400
   3875   3907   3888     1   118.5150508 540.957728
   3876   3875   3907     1   118.8300510 581.576000
   3879   3882   3883     1   123.2000528 564.003200
   3879   3882   3931     1   112.2600482 538.062400
   3882   3931   3912     1   118.5150508 540.957728
   3883   3882   3931     1   118.8300510 581.576000
   3884   3885   3887     1   111.5100476 526.347200
   3884   3885   3905     1   110.1900474 564.840000
   3884   3895   3900     1   110.1900474 564.840000
   3884   3902   3889     1   112.4800480 524.673600
   3885   3884   3895     1   111.5100476 526.347200
   3885   3884   3902     1   107.9700462 569.024000
   3885   3887   3888     1   111.5100476 526.347200
   3885   3887   3894     1   110.1900474 564.840000
   3887   3885   3905     1   110.1900474 564.840000
   3887   3888   3889     1   111.5100476 526.347200
   3887   3888   3907     1   111.0400475 552.288000
   3888   3887   3894     1   110.1900474 564.840000
   3888   3889   3893     1   110.1900474 564.840000
   3888   3889   3902     1   107.9700462 569.024000
   3889   3888   3907     1   111.0400475 552.288000
   3893   3889   3902     1   109.3800466 607.516800
   3895   3884   3902     1   107.9700462 569.024000
   3908   3909   3911     1   111.5100476 526.347200
   3908   3909   3929     1   110.1900474 564.840000
   3908   3919   3924     1   110.1900474 564.840000
   3908   3926   3913     1   112.4800480 524.673600
   3909   3908   3919     1   111.5100476 526.347200
   3909   3908   3926     1   107.9700462 569.024000
   3909   3911   3912     1   111.5100476 526.347200
   3909   3911   3918     1   110.1900474 564.840000
   3911   3909   3929     1   110.1900474 564.840000
   3911   3912   3913     1   111.5100476 526.347200
   3911   3912   3931     1   111.0400475 552.288000
   3912   3911   3918     1   110.1900474 564.840000
   3912   3913   3917     1   110.1900474 564.840000
   3912   3913   3926     1   107.9700462 569.024000
   3913   3912   3931     1   111.0400475 552.288000
   3917   3913   3926     1   109.3800466 607.516800
   3919   3908   3926     1   107.9700462 569.024000
   3933   3935   3937     1   111.6100477 551.451200
   3935   3937   3941     1   114.2100488 537.225600
   3937   3941   3942     1   109.6600471 523.836800
   3937   3941   3943     1   109.6600471 523.836800
   3941   3942   3953     1   114.2100488 537.225600
   3941   3943   3945     1   114.2100488 537.225600
   3942   3953   3956     1   111.0400475 529.694400
   3942   3941   3943     1   109.6600471 523.836800
   3943   3945   3949     1   111.0400475 529.694400
   3945   3949   3950     1   123.2000528 564.003200
   3945   3949   3981     1   112.2600482 538.062400
   3949   3981   3962     1   118.5150508 540.957728
   3950   3949   3981     1   118.8300510 581.576000
   3953   3956   3957     1   123.2000528 564.003200
   3953   3956   4005     1   112.2600482 538.062400
   3956   4005   3986     1   118.5150508 540.957728
   3957   3956   4005     1   118.8300510 581.576000
   3958   3959   3961     1   111.5100476 526.347200
   3958   3959   3979     1   110.1900474 564.840000
   3958   3969   3974     1   110.1900474 564.840000
   3958   3976   3963     1   112.4800480 524.673600
   3959   3961   3962     1   111.5100476 526.347200
   3959   3961   3968     1   110.1900474 564.840000
   3959   3958   3969     1   111.5100476 526.347200
   3959   3958   3976     1   107.9700462 569.024000
   3961   3962   3963     1   111.5100476 526.347200
   3961   3962   3981     1   111.0400475 552.288000
   3961   3959   3979     1   110.1900474 564.840000
   3962   3963   3967     1   110.1900474 564.840000
   3962   3963   3976     1   107.9700462 569.024000
   3962   3961   3968     1   110.1900474 564.840000
   3963   3962   3981     1   111.0400475 552.288000
   3967   3963   3976     1   109.3800466 607.516800
   3969   3958   3976     1   107.9700462 569.024000
   3982   3983   3985     1   111.5100476 526.347200
   3982   3983   4003     1   110.1900474 564.840000
   3982   3993   3998     1   110.1900474 564.840000
   3982   4000   3987     1   112.4800480 524.673600
   3983   3985   3986     1   111.5100476 526.347200
   3983   3985   3992     1   110.1900474 564.840000
   3983   3982   3993     1   111.5100476 526.347200
   3983   3982   4000     1   107.9700462 569.024000
   3985   3986   3987     1   111.5100476 526.347200
   3985   3986   4005     1   111.0400475 552.288000
   3985   3983   4003     1   110.1900474 564.840000
   3986   3987   3991     1   110.1900474 564.840000
   3986   3987   4000     1   107.9700462 569.024000
   3986   3985   3992     1   110.1900474 564.840000
   3987   3986   4005     1   111.0400475 552.288000
   3991   3987   4000     1   109.3800466 607.516800
   3993   3982   4000     1   107.9700462 569.024000
   4007   4009   4011     1   111.6100477 551.451200
   4009   4011   4015     1   114.2100488 537.225600
   4011   4015   4016     1   109.6600471 523.836800
   4011   4015   4017     1   109.6600471 523.836800
   4015   4016   4027     1   114.2100488 537.225600
   4015   4017   4019     1   114.2100488 537.225600
   4016   4015   4017     1   109.6600471 523.836800
   4016   4027   4030     1   111.0400475 529.694400
   4017   4019   4023     1   111.0400475 529.694400
   4019   4023   4024     1   123.2000528 564.003200
   4019   4023   4055     1   112.2600482 538.062400
   4023   4055   4036     1   118.5150508 540.957728
   4024   4023   4055     1   118.8300510 581.576000
   4027   4030   4031     1   123.2000528 564.003200
   4027   4030   4079     1   112.2600482 538.062400
   4030   4079   4060     1   118.5150508 540.957728
   4031   4030   4079     1   118.8300510 581.576000
   4032   4033   4035     1   111.5100476 526.347200
   4032   4033   4053     1   110.1900474 564.840000
   4032   4043   4048     1   110.1900474 564.840000
   4032   4050   4037     1   112.4800480 524.673600
   4033   4032   4043     1   111.5100476 526.347200
   4033   4032   4050     1   107.9700462 569.024000
   4033   4035   4036     1   111.5100476 526.347200
   4033   4035   4042     1   110.1900474 564.840000
   4035   4033   4053     1   110.1900474 564.840000
   4035   4036   4037     1   111.5100476 526.347200
   4035   4036   4055     1   111.0400475 552.288000
   4036   4035   4042     1   110.1900474 564.840000
   4036   4037   4041     1   110.1900474 564.840000
   4036   4037   4050     1   107.9700462 569.024000
   4037   4036   4055     1   111.0400475 552.288000
   4041   4037   4050     1   109.3800466 607.516800
   4043   4032   4050     1   107.9700462 569.024000
   4056   4057   4059     1   111.5100476 526.347200
   4056   4057   4077     1   110.1900474 564.840000
   4056   4067   4072     1   110.1900474 564.840000
   4056   4074   4061     1   112.4800480 524.673600
   4057   4056   4067     1   111.5100476 526.347200
   4057   4056   4074     1   107.9700462 569.024000
   4057   4059   4060     1   111.5100476 526.347200
   4057   4059   4066     1   110.1900474 564.840000
   4059   4057   4077     1   110.1900474 564.840000
   4059   4060   4061     1   111.5100476 526.347200
   4059   4060   4079     1   111.0400475 552.288000
   4060   4059   4066     1   110.1900474 564.840000
   4060   4061   4065     1   110.1900474 564.840000
   4060   4061   4074     1   107.9700462 569.024000
   4061   4060   4079     1   111.0400475 552.288000
   4065   4061   4074     1   109.3800466 607.516800
   4067   4056   4074     1   107.9700462 569.024000
   4081   4083   4085     1   111.6100477 551.451200
   4083   4085   4089     1   114.2100488 537.225600
   4085   4089   4090     1   109.6600471 523.836800
   4085   4089   4091     1   109.6600471 523.836800
   4089   4090   4101     1   114.2100488 537.225600
   4089   4091   4093     1   114.2100488 537.225600
   4090   4101   4104     1   111.0400475 529.694400
   4090   4089   4091     1   109.6600471 523.836800
   4091   4093   4097     1   111.0400475 529.694400
   4093   4097   4098     1   123.2000528 564.003200
   4093   4097   4129     1   112.2600482 538.062400
   4097   4129   4110     1   118.5150508 540.957728
   4098   4097   4129     1   118.8300510 581.576000
   4101   4104   4105     1   123.2000528 564.003200
   4101   4104   4153     1   112.2600482 538.062400
   4104   4153   4134     1   118.5150508 540.957728
   4105   4104   4153     1   118.8300510 581.576000
   4106   4107   4109     1   111.5100476 526.347200
   4106   4107   4127     1   110.1900474 564.840000
   4106   4117   4122     1   110.1900474 564.840000
   4106   4124   4111     1   112.4800480 524.673600
   4107   4109   4110     1   111.5100476 526.347200
   4107   4109   4116     1   110.1900474 564.840000
   4107   4106   4117     1   111.5100476 526.347200
   4107   4106   4124     1   107.9700462 569.024000
   4109   4110   4111     1   111.5100476 526.347200
   4109   4110   4129     1   111.0400475 552.288000
   4109   4107   4127     1   110.1900474 564.840000
   4110   4111   4115     1   110.1900474 564.840000
   4110   4111   4124     1   107.9700462 569.024000
   4110   4109   4116     1   110.1900474 564.840000
   4111   4110   4129     1   111.0400475 552.288000
   4115   4111   4124     1   109.3800466 607.516800
   4117   4106   4124     1   107.9700462 569.024000
   4130   4131   4133     1   111.5100476 526.347200
   4130   4131   4151     1   110.1900474 564.840000
   4130   4141   4146     1   110.1900474 564.840000
   4130   4148   4135     1   112.4800480 524.673600
   4131   4133   4134     1   111.5100476 526.347200
   4131   4133   4140     1   110.1900474 564.840000
   4131   4130   4141     1   111.5100476 526.347200
   4131   4130   4148     1   107.9700462 569.024000
   4133   4134   4135     1   111.5100476 526.347200
   4133   4134   4153     1   111.0400475 552.288000
   4133   4131   4151     1   110.1900474 564.840000
   4134   4135   4139     1   110.1900474 564.840000
   4134   4135   4148     1   107.9700462 569.024000
   4134   4133   4140     1   110.1900474 564.840000
   4135   4134   4153     1   111.0400475 552.288000
   4139   4135   4148     1   109.3800466 607.516800
   4141   4130   4148     1   107.9700462 569.024000
   4155   4157   4159     1   111.6100477 551.451200
   4157   4159   4163     1   114.2100488 537.225600
   4159   4163   4164     1   109.6600471 523.836800
   4159   4163   4165     1   109.6600471 523.836800
   4163   4164   4175     1   114.2100488 537.225600
   4163   4165   4167     1   114.2100488 537.225600
   4164   4163   4165     1   109.6600471 523.836800
   4164   4175   4178     1   111.0400475 529.694400
   4165   4167   4171     1   111.0400475 529.694400
   4167   4171   4172     1   123.2000528 564.003200
   4167   4171   4203     1   112.2600482 538.062400
   4171   4203   4184     1   118.5150508 540.957728
   4172   4171   4203     1   118.8300510 581.576000
   4175   4178   4179     1   123.2000528 564.003200
   4175   4178   4227     1   112.2600482 538.062400
   4178   4227   4208     1   118.5150508 540.957728
   4179   4178   4227     1   118.8300510 581.576000
   4180   4181   4183     1   111.5100476 526.347200
   4180   4181   4201     1   110.1900474 564.840000
   4180   4191   4196     1   110.1900474 564.840000
   4180   4198   4185     1   112.4800480 524.673600
   4181   4180   4191     1   111.5100476 526.347200
   4181   4180   4198     1   107.9700462 569.024000
   4181   4183   4184     1   111.5100476 526.347200
   4181   4183   4190     1   110.1900474 564.840000
   4183   4181   4201     1   110.1900474 564.840000
   4183   4184   4185     1   111.5100476 526.347200
   4183   4184   4203     1   111.0400475 552.288000
   4184   4183   4190     1   110.1900474 564.840000
   4184   4185   4189     1   110.1900474 564.840000
   4184   4185   4198     1   107.9700462 569.024000
   4185   4184   4203     1   111.0400475 552.288000
   4189   4185   4198     1   109.3800466 607.516800
   4191   4180   4198     1   107.9700462 569.024000
   4204   4205   4207     1   111.5100476 526.347200
   4204   4205   4225     1   110.1900474 564.840000
   4204   4215   4220     1   110.1900474 564.840000
   4204   4222   4209     1   112.4800480 524.673600
   4205   4204   4215     1   111.5100476 526.347200
   4205   4204   4222     1   107.9700462 569.024000
   4205   4207   4208     1   111.5100476 526.347200
   4205   4207   4214     1   110.1900474 564.840000
   4207   4205   4225     1   110.1900474 564.840000
   4207   4208   4209     1   111.5100476 526.347200
   4207   4208   4227     1   111.0400475 552.288000
   4208   4207   4214     1   110.1900474 564.840000
   4208   4209   4213     1   110.1900474 564.840000
   4208   4209   4222     1   107.9700462 569.024000
   4209   4208   4227     1   111.0400475 552.288000
   4213   4209   4222     1   109.3800466 607.516800
   4215   4204   4222     1   107.9700462 569.024000
   4229   4231   4233     1   111.6100477 551.451200
   4231   4233   4237     1   114.2100488 537.225600
   4233   4237   4238     1   109.6600471 523.836800
   4233   4237   4239     1   109.6600471 523.836800
   4237   4238   4249     1   114.2100488 537.225600
   4237   4239   4241     1   114.2100488 537.225600
   4238   4249   4252     1   111.0400475 529.694400
   4238   4237   4239     1   109.6600471 523.836800
   4239   4241   4245     1   111.0400475 529.694400
   4241   4245   4246     1   123.2000528 564.003200
   4241   4245   4277     1   112.2600482 538.062400
   4245   4277   4258     1   118.5150508 540.957728
   4246   4245   4277     1   118.8300510 581.576000
   4249   4252   4253     1   123.2000528 564.003200
   4249   4252   4301     1   112.2600482 538.062400
   4252   4301   4282     1   118.5150508 540.957728
   4253   4252   4301     1   118.8300510 581.576000
   4254   4255   4257     1   111.5100476 526.347200
   4254   4255   4275     1   110.1900474 564.840000
   4254   4265   4270     1   110.1900474 564.840000
   4254   4272   4259     1   112.4800480 524.673600
   4255   4257   4258     1   111.5100476 526.347200
   4255   4257   4264     1   110.1900474 564.840000
   4255   4254   4265     1   111.5100476 526.347200
   4255   4254   4272     1   107.9700462 569.024000
   4257   4258   4259     1   111.5100476 526.347200
   4257   4258   4277     1   111.0400475 552.288000
   4257   4255   4275     1   110.1900474 564.840000
   4258   4259   4263     1   110.1900474 564.840000
   4258   4259   4272     1   107.9700462 569.024000
   4258   4257   4264     1   110.1900474 564.840000
   4259   4258   4277     1   111.0400475 552.288000
   4263   4259   4272     1   109.3800466 607.516800
   4265   4254   4272     1   107.9700462 569.024000
   4278   4279   4281     1   111.5100476 526.347200
   4278   4279   4299     1   110.1900474 564.840000
   4278   4289   4294     1   110.1900474 564.840000
   4278   4296   4283     1   112.4800480 524.673600
   4279   4281   4282     1   111.5100476 526.347200
   4279   4281   4288     1   110.1900474 564.840000
   4279   4278   4289     1   111.5100476 526.347200
   4279   4278   4296     1   107.9700462 569.024000
   4281   4282   4283     1   111.5100476 526.347200
   4281   4282   4301     1   111.0400475 552.288000
   4281   4279   4299     1   110.1900474 564.840000
   4282   4283   4287     1   110.1900474 564.840000
   4282   4283   4296     1   107.9700462 569.024000
   4282   4281   4288     1   110.1900474 564.840000
   4283   4282   4301     1   111.0400475 552.288000
   4287   4283   4296     1   109.3800466 607.516800
   4289   4278   4296     1   107.9700462 569.024000
   4303   4305   4307     1   111.6100477 551.451200
   4305   4307   4311     1   114.2100488 537.225600
   4307   4311   4312     1   109.6600471 523.836800
   4307   4311   4313     1   109.6600471 523.836800
   4311   4312   4323     1   114.2100488 537.225600
   4311   4313   4315     1   114.2100488 537.225600
   4312   4311   4313     1   109.6600471 523.836800
   4312   4323   4326     1   111.0400475 529.694400
   4313   4315   4319     1   111.0400475 529.694400
   4315   4319   4320     1   123.2000528 564.003200
   4315   4319   4351     1   112.2600482 538.062400
   4319   4351   4332     1   118.5150508 540.957728
   4320   4319   4351     1   118.8300510 581.576000
   4323   4326   4327     1   123.2000528 564.003200
   4323   4326   4375     1   112.2600482 538.062400
   4326   4375   4356     1   118.5150508 540.957728
   4327   4326   4375     1   118.8300510 581.576000
   4328   4329   4331     1   111.5100476 526.347200
   4328   4329   4349     1   110.1900474 564.840000
   4328   4339   4344     1   110.1900474 564.840000
   4328   4346   4333     1   112.4800480 524.673600
   4329   4328   4339     1   111.5100476 526.347200
   4329   4328   4346     1   107.9700462 569.024000
   4329   4331   4332     1   111.5100476 526.347200
   4329   4331   4338     1   110.1900474 564.840000
   4331   4329   4349     1   110.1900474 564.840000
   4331   4332   4333     1   111.5100476 526.347200
   4331   4332   4351     1   111.0400475 552.288000
   4332   4331   4338     1   110.1900474 564.840000
   4332   4333   4337     1   110.1900474 564.840000
   4332   4333   4346     1   107.9700462 569.024000
   4333   4332   4351     1   111.0400475 552.288000
   4337   4333   4346     1   109.3800466 607.516800
   4339   4328   4346     1   107.9700462 569.024000
   4352   4353   4355     1   111.5100476 526.347200
   4352   4353   4373     1   110.1900474 564.840000
   4352   4363   4368     1   110.1900474 564.840000
   4352   4370   4357     1   112.4800480 524.673600
   4353   4352   4363     1   111.5100476 526.347200
   4353   4352   4370     1   107.9700462 569.024000
   4353   4355   4356     1   111.5100476 526.347200
   4353   4355   4362     1   110.1900474 564.840000
   4355   4353   4373     1   110.1900474 564.840000
   4355   4356   4357     1   111.5100476 526.347200
   4355   4356   4375     1   111.0400475 552.288000
   4356   4355   4362     1   110.1900474 564.840000
   4356   4357   4361     1   110.1900474 564.840000
   4356   4357   4370     1   107.9700462 569.024000
   4357   4356   4375     1   111.0400475 552.288000
   4361   4357   4370     1   109.3800466 607.516800
   4363   4352   4370     1   107.9700462 569.024000
   4377   4379   4381     1   111.6100477 551.451200
   4379   4381   4385     1   114.2100488 537.225600
   4381   4385   4386     1   109.6600471 523.836800
   4381   4385   4387     1   109.6600471 523.836800
   4385   4386   4397     1   114.2100488 537.225600
   4385   4387   4389     1   114.2100488 537.225600
   4386   4397   4400     1   111.0400475 529.694400
   4386   4385   4387     1   109.6600471 523.836800
   4387   4389   4393     1   111.0400475 529.694400
   4389   4393   4394     1   123.2000528 564.003200
   4389   4393   4425     1   112.2600482 538.062400
   4393   4425   4406     1   118.5150508 540.957728
   4394   4393   4425     1   118.8300510 581.576000
   4397   4400   4401     1   123.2000528 564.003200
   4397   4400   4449     1   112.2600482 538.062400
   4400   4449   4430     1   118.5150508 540.957728
   4401   4400   4449     1   118.8300510 581.576000
   4402   4403   4405     1   111.5100476 526.347200
   4402   4403   4423     1   110.1900474 564.840000
   4402   4413   4418     1   110.1900474 564.840000
   4402   4420   4407     1   112.4800480 524.673600
   4403   4405   4406     1   111.5100476 526.347200
   4403   4405   4412     1   110.1900474 564.840000
   4403   4402   4413     1   111.5100476 526.347200
   4403   4402   4420     1   107.9700462 569.024000
   4405   4406   4407     1   111.5100476 526.347200
   4405   4406   4425     1   111.0400475 552.288000
   4405   4403   4423     1   110.1900474 564.840000
   4406   4407   4411     1   110.1900474 564.840000
   4406   4407   4420     1   107.9700462 569.024000
   4406   4405   4412     1   110.1900474 564.840000
   4407   4406   4425     1   111.0400475 552.288000
   4411   4407   4420     1   109.3800466 607.516800
   4413   4402   4420     1   107.9700462 569.024000
   4426   4427   4429     1   111.5100476 526.347200
   4426   4427   4447     1   110.1900474 564.840000
   4426   4437   4442     1   110.1900474 564.840000
   4426   4444   4431     1   112.4800480 524.673600
   4427   4429   4430     1   111.5100476 526.347200
   4427   4429   4436     1   110.1900474 564.840000
   4427   4426   4437     1   111.5100476 526.347200
   4427   4426   4444     1   107.9700462 569.024000
   4429   4430   4431     1   111.5100476 526.347200
   4429   4430   4449     1   111.0400475 552.288000
   4429   4427   4447     1   110.1900474 564.840000
   4430   4431   4435     1   110.1900474 564.840000
   4430   4431   4444     1   107.9700462 569.024000
   4430   4429   4436     1   110.1900474 564.840000
   4431   4430   4449     1   111.0400475 552.288000
   4435   4431   4444     1   109.3800466 607.516800
   4437   4426   4444     1   107.9700462 569.024000
   4451   4453   4455     1   111.6100477 551.451200
   4453   4455   4459     1   114.2100488 537.225600
   4455   4459   4460     1   109.6600471 523.836800
   4455   4459   4461     1   109.6600471 523.836800
   4459   4460   4471     1   114.2100488 537.225600
   4459   4461   4463     1   114.2100488 537.225600
   4460   4459   4461     1   109.6600471 523.836800
   4460   4471   4474     1   111.0400475 529.694400
   4461   4463   4467     1   111.0400475 529.694400
   4463   4467   4468     1   123.2000528 564.003200
   4463   4467   4499     1   112.2600482 538.062400
   4467   4499   4480     1   118.5150508 540.957728
   4468   4467   4499     1   118.8300510 581.576000
   4471   4474   4475     1   123.2000528 564.003200
   4471   4474   4523     1   112.2600482 538.062400
   4474   4523   4504     1   118.5150508 540.957728
   4475   4474   4523     1   118.8300510 581.576000
   4476   4477   4479     1   111.5100476 526.347200
   4476   4477   4497     1   110.1900474 564.840000
   4476   4487   4492     1   110.1900474 564.840000
   4476   4494   4481     1   112.4800480 524.673600
   4477   4476   4487     1   111.5100476 526.347200
   4477   4476   4494     1   107.9700462 569.024000
   4477   4479   4480     1   111.5100476 526.347200
   4477   4479   4486     1   110.1900474 564.840000
   4479   4477   4497     1   110.1900474 564.840000
   4479   4480   4481     1   111.5100476 526.347200
   4479   4480   4499     1   111.0400475 552.288000
   4480   4479   4486     1   110.1900474 564.840000
   4480   4481   4485     1   110.1900474 564.840000
   4480   4481   4494     1   107.9700462 569.024000
   4481   4480   4499     1   111.0400475 552.288000
   4485   4481   4494     1   109.3800466 607.516800
   4487   4476   4494     1   107.9700462 569.024000
   4500   4501   4503     1   111.5100476 526.347200
   4500   4501   4521     1   110.1900474 564.840000
   4500   4511   4516     1   110.1900474 564.840000
   4500   4518   4505     1   112.4800480 524.673600
   4501   4500   4511     1   111.5100476 526.347200
   4501   4500   4518     1   107.9700462 569.024000
   4501   4503   4504     1   111.5100476 526.347200
   4501   4503   4510     1   110.1900474 564.840000
   4503   4501   4521     1   110.1900474 564.840000
   4503   4504   4505     1   111.5100476 526.347200
   4503   4504   4523     1   111.0400475 552.288000
   4504   4503   4510     1   110.1900474 564.840000
   4504   4505   4509     1   110.1900474 564.840000
   4504   4505   4518     1   107.9700462 569.024000
   4505   4504   4523     1   111.0400475 552.288000
   4509   4505   4518     1   109.3800466 607.516800
   4511   4500   4518     1   107.9700462 569.024000
   4525   4527   4529     1   111.6100477 551.451200
   4527   4529   4533     1   114.2100488 537.225600
   4529   4533   4534     1   109.6600471 523.836800
   4529   4533   4535     1   109.6600471 523.836800
   4533   4534   4545     1   114.2100488 537.225600
   4533   4535   4537     1   114.2100488 537.225600
   4534   4545   4548     1   111.0400475 529.694400
   4534   4533   4535     1   109.6600471 523.836800
   4535   4537   4541     1   111.0400475 529.694400
   4537   4541   4542     1   123.2000528 564.003200
   4537   4541   4573     1   112.2600482 538.062400
   4541   4573   4554     1   118.5150508 540.957728
   4542   4541   4573     1   118.8300510 581.576000
   4545   4548   4549     1   123.2000528 564.003200
   4545   4548   4597     1   112.2600482 538.062400
   4548   4597   4578     1   118.5150508 540.957728
   4549   4548   4597     1   118.8300510 581.576000
   4550   4551   4553     1   111.5100476 526.347200
   4550   4551   4571     1   110.1900474 564.840000
   4550   4561   4566     1   110.1900474 564.840000
   4550   4568   4555     1   112.4800480 524.673600
   4551   4553   4554     1   111.5100476 526.347200
   4551   4553   4560     1   110.1900474 564.840000
   4551   4550   4561     1   111.5100476 526.347200
   4551   4550   4568     1   107.9700462 569.024000
   4553   4554   4555     1   111.5100476 526.347200
   4553   4554   4573     1   111.0400475 552.288000
   4553   4551   4571     1   110.1900474 564.840000
   4554   4555   4559     1   110.1900474 564.840000
   4554   4555   4568     1   107.9700462 569.024000
   4554   4553   4560     1   110.1900474 564.840000
   4555   4554   4573     1   111.0400475 552.288000
   4559   4555   4568     1   109.3800466 607.516800
   4561   4550   4568     1   107.9700462 569.024000
   4574   4575   4577     1   111.5100476 526.347200
   4574   4575   4595     1   110.1900474 564.840000
   4574   4585   4590     1   110.1900474 564.840000
   4574   4592   4579     1   112.4800480 524.673600
   4575   4577   4578     1   111.5100476 526.347200
   4575   4577   4584     1   110.1900474 564.840000
   4575   4574   4585     1   111.5100476 526.347200
   4575   4574   4592     1   107.9700462 569.024000
   4577   4578   4579     1   111.5100476 526.347200
   4577   4578   4597     1   111.0400475 552.288000
   4577   4575   4595     1   110.1900474 564.840000
   4578   4579   4583     1   110.1900474 564.840000
   4578   4579   4592     1   107.9700462 569.024000
   4578   4577   4584     1   110.1900474 564.840000
   4579   4578   4597     1   111.0400475 552.288000
   4583   4579   4592     1   109.3800466 607.516800
   4585   4574   4592     1   107.9700462 569.024000
   4599   4601   4603     1   111.6100477 551.451200
   4601   4603   4607     1   114.2100488 537.225600
   4603   4607   4608     1   109.6600471 523.836800
   4603   4607   4609     1   109.6600471 523.836800
   4607   4608   4619     1   114.2100488 537.225600
   4607   4609   4611     1   114.2100488 537.225600
   4608   4607   4609     1   109.6600471 523.836800
   4608   4619   4622     1   111.0400475 529.694400
   4609   4611   4615     1   111.0400475 529.694400
   4611   4615   4616     1   123.2000528 564.003200
   4611   4615   4647     1   112.2600482 538.062400
   4615   4647   4628     1   118.5150508 540.957728
   4616   4615   4647     1   118.8300510 581.576000
   4619   4622   4623     1   123.2000528 564.003200
   4619   4622   4671     1   112.2600482 538.062400
   4622   4671   4652     1   118.5150508 540.957728
   4623   4622   4671     1   118.8300510 581.576000
   4624   4625   4627     1   111.5100476 526.347200
   4624   4625   4645     1   110.1900474 564.840000
   4624   4635   4640     1   110.1900474 564.840000
   4624   4642   4629     1   112.4800480 524.673600
   4625   4624   4635     1   111.5100476 526.347200
   4625   4624   4642     1   107.9700462 569.024000
   4625   4627   4628     1   111.5100476 526.347200
   4625   4627   4634     1   110.1900474 564.840000
   4627   4625   4645     1   110.1900474 564.840000
   4627   4628   4629     1   111.5100476 526.347200
   4627   4628   4647     1   111.0400475 552.288000
   4628   4627   4634     1   110.1900474 564.840000
   4628   4629   4633     1   110.1900474 564.840000
   4628   4629   4642     1   107.9700462 569.024000
   4629   4628   4647     1   111.0400475 552.288000
   4633   4629   4642     1   109.3800466 607.516800
   4635   4624   4642     1   107.9700462 569.024000
   4648   4649   4651     1   111.5100476 526.347200
   4648   4649   4669     1   110.1900474 564.840000
   4648   4659   4664     1   110.1900474 564.840000
   4648   4666   4653     1   112.4800480 524.673600
   4649   4648   4659     1   111.5100476 526.347200
   4649   4648   4666     1   107.9700462 569.024000
   4649   4651   4652     1   111.5100476 526.347200
   4649   4651   4658     1   110.1900474 564.840000
   4651   4649   4669     1   110.1900474 564.840000
   4651   4652   4653     1   111.5100476 526.347200
   4651   4652   4671     1   111.0400475 552.288000
   4652   4651   4658     1   110.1900474 564.840000
   4652   4653   4657     1   110.1900474 564.840000
   4652   4653   4666     1   107.9700462 569.024000
   4653   4652   4671     1   111.0400475 552.288000
   4657   4653   4666     1   109.3800466 607.516800
   4659   4648   4666     1   107.9700462 569.024000
   4673   4675   4677     1   111.6100477 551.451200
   4675   4677   4681     1   114.2100488 537.225600
   4677   4681   4682     1   109.6600471 523.836800
   4677   4681   4683     1   109.6600471 523.836800
   4681   4682   4693     1   114.2100488 537.225600
   4681   4683   4685     1   114.2100488 537.225600
   4682   4693   4696     1   111.0400475 529.694400
   4682   4681   4683     1   109.6600471 523.836800
   4683   4685   4689     1   111.0400475 529.694400
   4685   4689   4690     1   123.2000528 564.003200
   4685   4689   4721     1   112.2600482 538.062400
   4689   4721   4702     1   118.5150508 540.957728
   4690   4689   4721     1   118.8300510 581.576000
   4693   4696   4697     1   123.2000528 564.003200
   4693   4696   4745     1   112.2600482 538.062400
   4696   4745   4726     1   118.5150508 540.957728
   4697   4696   4745     1   118.8300510 581.576000
   4698   4699   4701     1   111.5100476 526.347200
   4698   4699   4719     1   110.1900474 564.840000
   4698   4709   4714     1   110.1900474 564.840000
   4698   4716   4703     1   112.4800480 524.673600
   4699   4701   4702     1   111.5100476 526.347200
   4699   4701   4708     1   110.1900474 564.840000
   4699   4698   4709     1   111.5100476 526.347200
   4699   4698   4716     1   107.9700462 569.024000
   4701   4702   4703     1   111.5100476 526.347200
   4701   4702   4721     1   111.0400475 552.288000
   4701   4699   4719     1   110.1900474 564.840000
   4702   4703   4707     1   110.1900474 564.840000
   4702   4703   4716     1   107.9700462 569.024000
   4702   4701   4708     1   110.1900474 564.840000
   4703   4702   4721     1   111.0400475 552.288000
   4707   4703   4716     1   109.3800466 607.516800
   4709   4698   4716     1   107.9700462 569.024000
   4722   4723   4725     1   111.5100476 526.347200
   4722   4723   4743     1   110.1900474 564.840000
   4722   4733   4738     1   110.1900474 564.840000
   4722   4740   4727     1   112.4800480 524.673600
   4723   4725   4726     1   111.5100476 526.347200
   4723   4725   4732     1   110.1900474 564.840000
   4723   4722   4733     1   111.5100476 526.347200
   4723   4722   4740     1   107.9700462 569.024000
   4725   4726   4727     1   111.5100476 526.347200
   4725   4726   4745     1   111.0400475 552.288000
   4725   4723   4743     1   110.1900474 564.840000
   4726   4727   4731     1   110.1900474 564.840000
   4726   4727   4740     1   107.9700462 569.024000
   4726   4725   4732     1   110.1900474 564.840000
   4727   4726   4745     1   111.0400475 552.288000
   4731   4727   4740     1   109.3800466 607.516800
   4733   4722   4740     1   107.9700462 569.024000
   4747   4749   4751     1   111.6100477 551.451200
   4749   4751   4755     1   114.2100488 537.225600
   4751   4755   4756     1   109.6600471 523.836800
   4751   4755   4757     1   109.6600471 523.836800
   4755   4756   4767     1   114.2100488 537.225600
   4755   4757   4759     1   114.2100488 537.225600
   4756   4755   4757     1   109.6600471 523.836800
   4756   4767   4770     1   111.0400475 529.694400
   4757   4759   4763     1   111.0400475 529.694400
   4759   4763   4764     1   123.2000528 564.003200
   4759   4763   4795     1   112.2600482 538.062400
   4763   4795   4776     1   118.5150508 540.957728
   4764   4763   4795     1   118.8300510 581.576000
   4767   4770   4771     1   123.2000528 564.003200
   4767   4770   4819     1   112.2600482 538.062400
   4770   4819   4800     1   118.5150508 540.957728
   4771   4770   4819     1   118.8300510 581.576000
   4772   4773   4775     1   111.5100476 526.347200
   4772   4773   4793     1   110.1900474 564.840000
   4772   4783   4788     1   110.1900474 564.840000
   4772   4790   4777     1   112.4800480 524.673600
   4773   4772   4783     1   111.5100476 526.347200
   4773   4772   4790     1   107.9700462 569.024000
   4773   4775   4776     1   111.5100476 526.347200
   4773   4775   4782     1   110.1900474 564.840000
   4775   4773   4793     1   110.1900474 564.840000
   4775   4776   4777     1   111.5100476 526.347200
   4775   4776   4795     1   111.0400475 552.288000
   4776   4775   4782     1   110.1900474 564.840000
   4776   4777   4781     1   110.1900474 564.840000
   4776   4777   4790     1   107.9700462 569.024000
   4777   4776   4795     1   111.0400475 552.288000
   4781   4777   4790     1   109.3800466 607.516800
   4783   4772   4790     1   107.9700462 569.024000
   4796   4797   4799     1   111.5100476 526.347200
   4796   4797   4817     1   110.1900474 564.840000
   4796   4807   4812     1   110.1900474 564.840000
   4796   4814   4801     1   112.4800480 524.673600
   4797   4796   4807     1   111.5100476 526.347200
   4797   4796   4814     1   107.9700462 569.024000
   4797   4799   4800     1   111.5100476 526.347200
   4797   4799   4806     1   110.1900474 564.840000
   4799   4797   4817     1   110.1900474 564.840000
   4799   4800   4801     1   111.5100476 526.347200
   4799   4800   4819     1   111.0400475 552.288000
   4800   4799   4806     1   110.1900474 564.840000
   4800   4801   4805     1   110.1900474 564.840000
   4800   4801   4814     1   107.9700462 569.024000
   4801   4800   4819     1   111.0400475 552.288000
   4805   4801   4814     1   109.3800466 607.516800
   4807   4796   4814     1   107.9700462 569.024000
   4821   4823   4825     1   111.6100477 551.451200
   4823   4825   4829     1   114.2100488 537.225600
   4825   4829   4830     1   109.6600471 523.836800
   4825   4829   4831     1   109.6600471 523.836800
   4829   4830   4841     1   114.2100488 537.225600
   4829   4831   4833     1   114.2100488 537.225600
   4830   4841   4844     1   111.0400475 529.694400
   4830   4829   4831     1   109.6600471 523.836800
   4831   4833   4837     1   111.0400475 529.694400
   4833   4837   4838     1   123.2000528 564.003200
   4833   4837   4869     1   112.2600482 538.062400
   4837   4869   4850     1   118.5150508 540.957728
   4838   4837   4869     1   118.8300510 581.576000
   4841   4844   4845     1   123.2000528 564.003200
   4841   4844   4893     1   112.2600482 538.062400
   4844   4893   4874     1   118.5150508 540.957728
   4845   4844   4893     1   118.8300510 581.576000
   4846   4847   4849     1   111.5100476 526.347200
   4846   4847   4867     1   110.1900474 564.840000
   4846   4857   4862     1   110.1900474 564.840000
   4846   4864   4851     1   112.4800480 524.673600
   4847   4849   4850     1   111.5100476 526.347200
   4847   4849   4856     1   110.1900474 564.840000
   4847   4846   4857     1   111.5100476 526.347200
   4847   4846   4864     1   107.9700462 569.024000
   4849   4850   4851     1   111.5100476 526.347200
   4849   4850   4869     1   111.0400475 552.288000
   4849   4847   4867     1   110.1900474 564.840000
   4850   4851   4855     1   110.1900474 564.840000
   4850   4851   4864     1   107.9700462 569.024000
   4850   4849   4856     1   110.1900474 564.840000
   4851   4850   4869     1   111.0400475 552.288000
   4855   4851   4864     1   109.3800466 607.516800
   4857   4846   4864     1   107.9700462 569.024000
   4870   4871   4873     1   111.5100476 526.347200
   4870   4871   4891     1   110.1900474 564.840000
   4870   4881   4886     1   110.1900474 564.840000
   4870   4888   4875     1   112.4800480 524.673600
   4871   4873   4874     1   111.5100476 526.347200
   4871   4873   4880     1   110.1900474 564.840000
   4871   4870   4881     1   111.5100476 526.347200
   4871   4870   4888     1   107.9700462 569.024000
   4873   4874   4875     1   111.5100476 526.347200
   4873   4874   4893     1   111.0400475 552.288000
   4873   4871   4891     1   110.1900474 564.840000
   4874   4875   4879     1   110.1900474 564.840000
   4874   4875   4888     1   107.9700462 569.024000
   4874   4873   4880     1   110.1900474 564.840000
   4875   4874   4893     1   111.0400475 552.288000
   4879   4875   4888     1   109.3800466 607.516800
   4881   4870   4888     1   107.9700462 569.024000
   4895   4897   4899     1   111.6100477 551.451200
   4897   4899   4903     1   114.2100488 537.225600
   4899   4903   4904     1   109.6600471 523.836800
   4899   4903   4905     1   109.6600471 523.836800
   4903   4904   4915     1   114.2100488 537.225600
   4903   4905   4907     1   114.2100488 537.225600
   4904   4903   4905     1   109.6600471 523.836800
   4904   4915   4918     1   111.0400475 529.694400
   4905   4907   4911     1   111.0400475 529.694400
   4907   4911   4912     1   123.2000528 564.003200
   4907   4911   4943     1   112.2600482 538.062400
   4911   4943   4924     1   118.5150508 540.957728
   4912   4911   4943     1   118.8300510 581.576000
   4915   4918   4919     1   123.2000528 564.003200
   4915   4918   4967     1   112.2600482 538.062400
   4918   4967   4948     1   118.5150508 540.957728
   4919   4918   4967     1   118.8300510 581.576000
   4920   4921   4923     1   111.5100476 526.347200
   4920   4921   4941     1   110.1900474 564.840000
   4920   4931   4936     1   110.1900474 564.840000
   4920   4938   4925     1   112.4800480 524.673600
   4921   4920   4931     1   111.5100476 526.347200
   4921   4920   4938     1   107.9700462 569.024000
   4921   4923   4924     1   111.5100476 526.347200
   4921   4923   4930     1   110.1900474 564.840000
   4923   4921   4941     1   110.1900474 564.840000
   4923   4924   4925     1   111.5100476 526.347200
   4923   4924   4943     1   111.0400475 552.288000
   4924   4923   4930     1   110.1900474 564.840000
   4924   4925   4929     1   110.1900474 564.840000
   4924   4925   4938     1   107.9700462 569.024000
   4925   4924   4943     1   111.0400475 552.288000
   4929   4925   4938     1   109.3800466 607.516800
   4931   4920   4938     1   107.9700462 569.024000
   4944   4945   4947     1   111.5100476 526.347200
   4944   4945   4965     1   110.1900474 564.840000
   4944   4955   4960     1   110.1900474 564.840000
   4944   4962   4949     1   112.4800480 524.673600
   4945   4944   4955     1   111.5100476 526.347200
   4945   4944   4962     1   107.9700462 569.024000
   4945   4947   4948     1   111.5100476 526.347200
   4945   4947   4954     1   110.1900474 564.840000
   4947   4945   4965     1   110.1900474 564.840000
   4947   4948   4949     1   111.5100476 526.347200
   4947   4948   4967     1   111.0400475 552.288000
   4948   4947   4954     1   110.1900474 564.840000
   4948   4949   4953     1   110.1900474 564.840000
   4948   4949   4962     1   107.9700462 569.024000
   4949   4948   4967     1   111.0400475 552.288000
   4953   4949   4962     1   109.3800466 607.516800
   4955   4944   4962     1   107.9700462 569.024000
   4969   4971   4973     1   111.6100477 551.451200
   4971   4973   4977     1   114.2100488 537.225600
   4973   4977   4978     1   109.6600471 523.836800
   4973   4977   4979     1   109.6600471 523.836800
   4977   4978   4989     1   114.2100488 537.225600
   4977   4979   4981     1   114.2100488 537.225600
   4978   4989   4992     1   111.0400475 529.694400
   4978   4977   4979     1   109.6600471 523.836800
   4979   4981   4985     1   111.0400475 529.694400
   4981   4985   4986     1   123.2000528 564.003200
   4981   4985   5017     1   112.2600482 538.062400
   4985   5017   4998     1   118.5150508 540.957728
   4986   4985   5017     1   118.8300510 581.576000
   4989   4992   4993     1   123.2000528 564.003200
   4989   4992   5041     1   112.2600482 538.062400
   4992   5041   5022     1   118.5150508 540.957728
   4993   4992   5041     1   118.8300510 581.576000
   4994   4995   4997     1   111.5100476 526.347200
   4994   4995   5015     1   110.1900474 564.840000
   4994   5005   5010     1   110.1900474 564.840000
   4994   5012   4999     1   112.4800480 524.673600
   4995   4997   4998     1   111.5100476 526.347200
   4995   4997   5004     1   110.1900474 564.840000
   4995   4994   5005     1   111.5100476 526.347200
   4995   4994   5012     1   107.9700462 569.024000
   4997   4998   4999     1   111.5100476 526.347200
   4997   4998   5017     1   111.0400475 552.288000
   4997   4995   5015     1   110.1900474 564.840000
   4998   4999   5003     1   110.1900474 564.840000
   4998   4999   5012     1   107.9700462 569.024000
   4998   4997   5004     1   110.1900474 564.840000
   4999   4998   5017     1   111.0400475 552.288000
   5003   4999   5012     1   109.3800466 607.516800
   5005   4994   5012     1   107.9700462 569.024000
   5018   5019   5021     1   111.5100476 526.347200
   5018   5019   5039     1   110.1900474 564.840000
   5018   5029   5034     1   110.1900474 564.840000
   5018   5036   5023     1   112.4800480 524.673600
   5019   5021   5022     1   111.5100476 526.347200
   5019   5021   5028     1   110.1900474 564.840000
   5019   5018   5029     1   111.5100476 526.347200
   5019   5018   5036     1   107.9700462 569.024000
   5021   5022   5023     1   111.5100476 526.347200
   5021   5022   5041     1   111.0400475 552.288000
   5021   5019   5039     1   110.1900474 564.840000
   5022   5023   5027     1   110.1900474 564.840000
   5022   5023   5036     1   107.9700462 569.024000
   5022   5021   5028     1   110.1900474 564.840000
   5023   5022   5041     1   111.0400475 552.288000
   5027   5023   5036     1   109.3800466 607.516800
   5029   5018   5036     1   107.9700462 569.024000
   5043   5045   5047     1   111.6100477 551.451200
   5045   5047   5051     1   114.2100488 537.225600
   5047   5051   5052     1   109.6600471 523.836800
   5047   5051   5053     1   109.6600471 523.836800
   5051   5052   5063     1   114.2100488 537.225600
   5051   5053   5055     1   114.2100488 537.225600
   5052   5051   5053     1   109.6600471 523.836800
   5052   5063   5066     1   111.0400475 529.694400
   5053   5055   5059     1   111.0400475 529.694400
   5055   5059   5060     1   123.2000528 564.003200
   5055   5059   5091     1   112.2600482 538.062400
   5059   5091   5072     1   118.5150508 540.957728
   5060   5059   5091     1   118.8300510 581.576000
   5063   5066   5067     1   123.2000528 564.003200
   5063   5066   5115     1   112.2600482 538.062400
   5066   5115   5096     1   118.5150508 540.957728
   5067   5066   5115     1   118.8300510 581.576000
   5068   5069   5071     1   111.5100476 526.347200
   5068   5069   5089     1   110.1900474 564.840000
   5068   5079   5084     1   110.1900474 564.840000
   5068   5086   5073     1   112.4800480 524.673600
   5069   5068   5079     1   111.5100476 526.347200
   5069   5068   5086     1   107.9700462 569.024000
   5069   5071   5072     1   111.5100476 526.347200
   5069   5071   5078     1   110.1900474 564.840000
   5071   5069   5089     1   110.1900474 564.840000
   5071   5072   5073     1   111.5100476 526.347200
   5071   5072   5091     1   111.0400475 552.288000
   5072   5071   5078     1   110.1900474 564.840000
   5072   5073   5077     1   110.1900474 564.840000
   5072   5073   5086     1   107.9700462 569.024000
   5073   5072   5091     1   111.0400475 552.288000
   5077   5073   5086     1   109.3800466 607.516800
   5079   5068   5086     1   107.9700462 569.024000
   5092   5093   5095     1   111.5100476 526.347200
   5092   5093   5113     1   110.1900474 564.840000
   5092   5103   5108     1   110.1900474 564.840000
   5092   5110   5097     1   112.4800480 524.673600
   5093   5092   5103     1   111.5100476 526.347200
   5093   5092   5110     1   107.9700462 569.024000
   5093   5095   5096     1   111.5100476 526.347200
   5093   5095   5102     1   110.1900474 564.840000
   5095   5093   5113     1   110.1900474 564.840000
   5095   5096   5097     1   111.5100476 526.347200
   5095   5096   5115     1   111.0400475 552.288000
   5096   5095   5102     1   110.1900474 564.840000
   5096   5097   5101     1   110.1900474 564.840000
   5096   5097   5110     1   107.9700462 569.024000
   5097   5096   5115     1   111.0400475 552.288000
   5101   5097   5110     1   109.3800466 607.516800
   5103   5092   5110     1   107.9700462 569.024000
   5117   5119   5121     1   111.6100477 551.451200
   5119   5121   5125     1   114.2100488 537.225600
   5121   5125   5126     1   109.6600471 523.836800
   5121   5125   5127     1   109.6600471 523.836800
   5125   5126   5137     1   114.2100488 537.225600
   5125   5127   5129     1   114.2100488 537.225600
   5126   5137   5140     1   111.0400475 529.694400
   5126   5125   5127     1   109.6600471 523.836800
   5127   5129   5133     1   111.0400475 529.694400
   5129   5133   5134     1   123.2000528 564.003200
   5129   5133   5165     1   112.2600482 538.062400
   5133   5165   5146     1   118.5150508 540.957728
   5134   5133   5165     1   118.8300510 581.576000
   5137   5140   5141     1   123.2000528 564.003200
   5137   5140   5189     1   112.2600482 538.062400
   5140   5189   5170     1   118.5150508 540.957728
   5141   5140   5189     1   118.8300510 581.576000
   5142   5143   5145     1   111.5100476 526.347200
   5142   5143   5163     1   110.1900474 564.840000
   5142   5153   5158     1   110.1900474 564.840000
   5142   5160   5147     1   112.4800480 524.673600
   5143   5145   5146     1   111.5100476 526.347200
   5143   5145   5152     1   110.1900474 564.840000
   5143   5142   5153     1   111.5100476 526.347200
   5143   5142   5160     1   107.9700462 569.024000
   5145   5146   5147     1   111.5100476 526.347200
   5145   5146   5165     1   111.0400475 552.288000
   5145   5143   5163     1   110.1900474 564.840000
   5146   5147   5151     1   110.1900474 564.840000
   5146   5147   5160     1   107.9700462 569.024000
   5146   5145   5152     1   110.1900474 564.840000
   5147   5146   5165     1   111.0400475 552.288000
   5151   5147   5160     1   109.3800466 607.516800
   5153   5142   5160     1   107.9700462 569.024000
   5166   5167   5169     1   111.5100476 526.347200
   5166   5167   5187     1   110.1900474 564.840000
   5166   5177   5182     1   110.1900474 564.840000
   5166   5184   5171     1   112.4800480 524.673600
   5167   5169   5170     1   111.5100476 526.347200
   5167   5169   5176     1   110.1900474 564.840000
   5167   5166   5177     1   111.5100476 526.347200
   5167   5166   5184     1   107.9700462 569.024000
   5169   5170   5171     1   111.5100476 526.347200
   5169   5170   5189     1   111.0400475 552.288000
   5169   5167   5187     1   110.1900474 564.840000
   5170   5171   5175     1   110.1900474 564.840000
   5170   5171   5184     1   107.9700462 569.024000
   5170   5169   5176     1   110.1900474 564.840000
   5171   5170   5189     1   111.0400475 552.288000
   5175   5171   5184     1   109.3800466 607.516800
   5177   5166   5184     1   107.9700462 569.024000
   5191   5193   5195     1   111.6100477 551.451200
   5193   5195   5199     1   114.2100488 537.225600
   5195   5199   5200     1   109.6600471 523.836800
   5195   5199   5201     1   109.6600471 523.836800
   5199   5200   5211     1   114.2100488 537.225600
   5199   5201   5203     1   114.2100488 537.225600
   5200   5199   5201     1   109.6600471 523.836800
   5200   5211   5214     1   111.0400475 529.694400
   5201   5203   5207     1   111.0400475 529.694400
   5203   5207   5208     1   123.2000528 564.003200
   5203   5207   5239     1   112.2600482 538.062400
   5207   5239   5220     1   118.5150508 540.957728
   5208   5207   5239     1   118.8300510 581.576000
   5211   5214   5215     1   123.2000528 564.003200
   5211   5214   5263     1   112.2600482 538.062400
   5214   5263   5244     1   118.5150508 540.957728
   5215   5214   5263     1   118.8300510 581.576000
   5216   5217   5219     1   111.5100476 526.347200
   5216   5217   5237     1   110.1900474 564.840000
   5216   5227   5232     1   110.1900474 564.840000
   5216   5234   5221     1   112.4800480 524.673600
   5217   5216   5227     1   111.5100476 526.347200
   5217   5216   5234     1   107.9700462 569.024000
   5217   5219   5220     1   111.5100476 526.347200
   5217   5219   5226     1   110.1900474 564.840000
   5219   5217   5237     1   110.1900474 564.840000
   5219   5220   5221     1   111.5100476 526.347200
   5219   5220   5239     1   111.0400475 552.288000
   5220   5219   5226     1   110.1900474 564.840000
   5220   5221   5225     1   110.1900474 564.840000
   5220   5221   5234     1   107.9700462 569.024000
   5221   5220   5239     1   111.0400475 552.288000
   5225   5221   5234     1   109.3800466 607.516800
   5227   5216   5234     1   107.9700462 569.024000
   5240   5241   5243     1   111.5100476 526.347200
   5240   5241   5261     1   110.1900474 564.840000
   5240   5251   5256     1   110.1900474 564.840000
   5240   5258   5245     1   112.4800480 524.673600
   5241   5240   5251     1   111.5100476 526.347200
   5241   5240   5258     1   107.9700462 569.024000
   5241   5243   5244     1   111.5100476 526.347200
   5241   5243   5250     1   110.1900474 564.840000
   5243   5241   5261     1   110.1900474 564.840000
   5243   5244   5245     1   111.5100476 526.347200
   5243   5244   5263     1   111.0400475 552.288000
   5244   5243   5250     1   110.1900474 564.840000
   5244   5245   5249     1   110.1900474 564.840000
   5244   5245   5258     1   107.9700462 569.024000
   5245   5244   5263     1   111.0400475 552.288000
   5249   5245   5258     1   109.3800466 607.516800
   5251   5240   5258     1   107.9700462 569.024000
   5265   5267   5269     1   111.6100477 551.451200
   5267   5269   5273     1   114.2100488 537.225600
   5269   5273   5274     1   109.6600471 523.836800
   5269   5273   5275     1   109.6600471 523.836800
   5273   5274   5285     1   114.2100488 537.225600
   5273   5275   5277     1   114.2100488 537.225600
   5274   5285   5288     1   111.0400475 529.694400
   5274   5273   5275     1   109.6600471 523.836800
   5275   5277   5281     1   111.0400475 529.694400
   5277   5281   5282     1   123.2000528 564.003200
   5277   5281   5313     1   112.2600482 538.062400
   5281   5313   5294     1   118.5150508 540.957728
   5282   5281   5313     1   118.8300510 581.576000
   5285   5288   5289     1   123.2000528 564.003200
   5285   5288   5337     1   112.2600482 538.062400
   5288   5337   5318     1   118.5150508 540.957728
   5289   5288   5337     1   118.8300510 581.576000
   5290   5291   5293     1   111.5100476 526.347200
   5290   5291   5311     1   110.1900474 564.840000
   5290   5301   5306     1   110.1900474 564.840000
   5290   5308   5295     1   112.4800480 524.673600
   5291   5293   5294     1   111.5100476 526.347200
   5291   5293   5300     1   110.1900474 564.840000
   5291   5290   5301     1   111.5100476 526.347200
   5291   5290   5308     1   107.9700462 569.024000
   5293   5294   5295     1   111.5100476 526.347200
   5293   5294   5313     1   111.0400475 552.288000
   5293   5291   5311     1   110.1900474 564.840000
   5294   5295   5299     1   110.1900474 564.840000
   5294   5295   5308     1   107.9700462 569.024000
   5294   5293   5300     1   110.1900474 564.840000
   5295   5294   5313     1   111.0400475 552.288000
   5299   5295   5308     1   109.3800466 607.516800
   5301   5290   5308     1   107.9700462 569.024000
   5314   5315   5317     1   111.5100476 526.347200
   5314   5315   5335     1   110.1900474 564.840000
   5314   5325   5330     1   110.1900474 564.840000
   5314   5332   5319     1   112.4800480 524.673600
   5315   5317   5318     1   111.5100476 526.347200
   5315   5317   5324     1   110.1900474 564.840000
   5315   5314   5325     1   111.5100476 526.347200
   5315   5314   5332     1   107.9700462 569.024000
   5317   5318   5319     1   111.5100476 526.347200
   5317   5318   5337     1   111.0400475 552.288000
   5317   5315   5335     1   110.1900474 564.840000
   5318   5319   5323     1   110.1900474 564.840000
   5318   5319   5332     1   107.9700462 569.024000
   5318   5317   5324     1   110.1900474 564.840000
   5319   5318   5337     1   111.0400475 552.288000
   5323   5319   5332     1   109.3800466 607.516800
   5325   5314   5332     1   107.9700462 569.024000
   5339   5341   5343     1   111.6100477 551.451200
   5341   5343   5347     1   114.2100488 537.225600
   5343   5347   5348     1   109.6600471 523.836800
   5343   5347   5349     1   109.6600471 523.836800
   5347   5348   5359     1   114.2100488 537.225600
   5347   5349   5351     1   114.2100488 537.225600
   5348   5347   5349     1   109.6600471 523.836800
   5348   5359   5362     1   111.0400475 529.694400
   5349   5351   5355     1   111.0400475 529.694400
   5351   5355   5356     1   123.2000528 564.003200
   5351   5355   5387     1   112.2600482 538.062400
   5355   5387   5368     1   118.5150508 540.957728
   5356   5355   5387     1   118.8300510 581.576000
   5359   5362   5363     1   123.2000528 564.003200
   5359   5362   5411     1   112.2600482 538.062400
   5362   5411   5392     1   118.5150508 540.957728
   5363   5362   5411     1   118.8300510 581.576000
   5364   5365   5367     1   111.5100476 526.347200
   5364   5365   5385     1   110.1900474 564.840000
   5364   5375   5380     1   110.1900474 564.840000
   5364   5382   5369     1   112.4800480 524.673600
   5365   5364   5375     1   111.5100476 526.347200
   5365   5364   5382     1   107.9700462 569.024000
   5365   5367   5368     1   111.5100476 526.347200
   5365   5367   5374     1   110.1900474 564.840000
   5367   5365   5385     1   110.1900474 564.840000
   5367   5368   5369     1   111.5100476 526.347200
   5367   5368   5387     1   111.0400475 552.288000
   5368   5367   5374     1   110.1900474 564.840000
   5368   5369   5373     1   110.1900474 564.840000
   5368   5369   5382     1   107.9700462 569.024000
   5369   5368   5387     1   111.0400475 552.288000
   5373   5369   5382     1   109.3800466 607.516800
   5375   5364   5382     1   107.9700462 569.024000
   5388   5389   5391     1   111.5100476 526.347200
   5388   5389   5409     1   110.1900474 564.840000
   5388   5399   5404     1   110.1900474 564.840000
   5388   5406   5393     1   112.4800480 524.673600
   5389   5388   5399     1   111.5100476 526.347200
   5389   5388   5406     1   107.9700462 569.024000
   5389   5391   5392     1   111.5100476 526.347200
   5389   5391   5398     1   110.1900474 564.840000
   5391   5389   5409     1   110.1900474 564.840000
   5391   5392   5393     1   111.5100476 526.347200
   5391   5392   5411     1   111.0400475 552.288000
   5392   5391   5398     1   110.1900474 564.840000
   5392   5393   5397     1   110.1900474 564.840000
   5392   5393   5406     1   107.9700462 569.024000
   5393   5392   5411     1   111.0400475 552.288000
   5397   5393   5406     1   109.3800466 607.516800
   5399   5388   5406     1   107.9700462 569.024000
   5413   5415   5417     1   111.6100477 551.451200
   5415   5417   5421     1   114.2100488 537.225600
   5417   5421   5422     1   109.6600471 523.836800
   5417   5421   5423     1   109.6600471 523.836800
   5421   5422   5433     1   114.2100488 537.225600
   5421   5423   5425     1   114.2100488 537.225600
   5422   5433   5436     1   111.0400475 529.694400
   5422   5421   5423     1   109.6600471 523.836800
   5423   5425   5429     1   111.0400475 529.694400
   5425   5429   5430     1   123.2000528 564.003200
   5425   5429   5461     1   112.2600482 538.062400
   5429   5461   5442     1   118.5150508 540.957728
   5430   5429   5461     1   118.8300510 581.576000
   5433   5436   5437     1   123.2000528 564.003200
   5433   5436   5485     1   112.2600482 538.062400
   5436   5485   5466     1   118.5150508 540.957728
   5437   5436   5485     1   118.8300510 581.576000
   5438   5439   5441     1   111.5100476 526.347200
   5438   5439   5459     1   110.1900474 564.840000
   5438   5449   5454     1   110.1900474 564.840000
   5438   5456   5443     1   112.4800480 524.673600
   5439   5441   5442     1   111.5100476 526.347200
   5439   5441   5448     1   110.1900474 564.840000
   5439   5438   5449     1   111.5100476 526.347200
   5439   5438   5456     1   107.9700462 569.024000
   5441   5442   5443     1   111.5100476 526.347200
   5441   5442   5461     1   111.0400475 552.288000
   5441   5439   5459     1   110.1900474 564.840000
   5442   5443   5447     1   110.1900474 564.840000
   5442   5443   5456     1   107.9700462 569.024000
   5442   5441   5448     1   110.1900474 564.840000
   5443   5442   5461     1   111.0400475 552.288000
   5447   5443   5456     1   109.3800466 607.516800
   5449   5438   5456     1   107.9700462 569.024000
   5462   5463   5465     1   111.5100476 526.347200
   5462   5463   5483     1   110.1900474 564.840000
   5462   5473   5478     1   110.1900474 564.840000
   5462   5480   5467     1   112.4800480 524.673600
   5463   5465   5466     1   111.5100476 526.347200
   5463   5465   5472     1   110.1900474 564.840000
   5463   5462   5473     1   111.5100476 526.347200
   5463   5462   5480     1   107.9700462 569.024000
   5465   5466   5467     1   111.5100476 526.347200
   5465   5466   5485     1   111.0400475 552.288000
   5465   5463   5483     1   110.1900474 564.840000
   5466   5467   5471     1   110.1900474 564.840000
   5466   5467   5480     1   107.9700462 569.024000
   5466   5465   5472     1   110.1900474 564.840000
   5467   5466   5485     1   111.0400475 552.288000
   5471   5467   5480     1   109.3800466 607.516800
   5473   5462   5480     1   107.9700462 569.024000
   5487   5489   5491     1   111.6100477 551.451200
   5489   5491   5495     1   114.2100488 537.225600
   5491   5495   5496     1   109.6600471 523.836800
   5491   5495   5497     1   109.6600471 523.836800
   5495   5496   5507     1   114.2100488 537.225600
   5495   5497   5499     1   114.2100488 537.225600
   5496   5495   5497     1   109.6600471 523.836800
   5496   5507   5510     1   111.0400475 529.694400
   5497   5499   5503     1   111.0400475 529.694400
   5499   5503   5504     1   123.2000528 564.003200
   5499   5503   5535     1   112.2600482 538.062400
   5503   5535   5516     1   118.5150508 540.957728
   5504   5503   5535     1   118.8300510 581.576000
   5507   5510   5511     1   123.2000528 564.003200
   5507   5510   5559     1   112.2600482 538.062400
   5510   5559   5540     1   118.5150508 540.957728
   5511   5510   5559     1   118.8300510 581.576000
   5512   5513   5515     1   111.5100476 526.347200
   5512   5513   5533     1   110.1900474 564.840000
   5512   5523   5528     1   110.1900474 564.840000
   5512   5530   5517     1   112.4800480 524.673600
   5513   5512   5523     1   111.5100476 526.347200
   5513   5512   5530     1   107.9700462 569.024000
   5513   5515   5516     1   111.5100476 526.347200
   5513   5515   5522     1   110.1900474 564.840000
   5515   5513   5533     1   110.1900474 564.840000
   5515   5516   5517     1   111.5100476 526.347200
   5515   5516   5535     1   111.0400475 552.288000
   5516   5515   5522     1   110.1900474 564.840000
   5516   5517   5521     1   110.1900474 564.840000
   5516   5517   5530     1   107.9700462 569.024000
   5517   5516   5535     1   111.0400475 552.288000
   5521   5517   5530     1   109.3800466 607.516800
   5523   5512   5530     1   107.9700462 569.024000
   5536   5537   5539     1   111.5100476 526.347200
   5536   5537   5557     1   110.1900474 564.840000
   5536   5547   5552     1   110.1900474 564.840000
   5536   5554   5541     1   112.4800480 524.673600
   5537   5536   5547     1   111.5100476 526.347200
   5537   5536   5554     1   107.9700462 569.024000
   5537   5539   5540     1   111.5100476 526.347200
   5537   5539   5546     1   110.1900474 564.840000
   5539   5537   5557     1   110.1900474 564.840000
   5539   5540   5541     1   111.5100476 526.347200
   5539   5540   5559     1   111.0400475 552.288000
   5540   5539   5546     1   110.1900474 564.840000
   5540   5541   5545     1   110.1900474 564.840000
   5540   5541   5554     1   107.9700462 569.024000
   5541   5540   5559     1   111.0400475 552.288000
   5545   5541   5554     1   109.3800466 607.516800
   5547   5536   5554     1   107.9700462 569.024000
   5561   5563   5565     1   111.6100477 551.451200
   5563   5565   5569     1   114.2100488 537.225600
   5565   5569   5570     1   109.6600471 523.836800
   5565   5569   5571     1   109.6600471 523.836800
   5569   5570   5581     1   114.2100488 537.225600
   5569   5571   5573     1   114.2100488 537.225600
   5570   5581   5584     1   111.0400475 529.694400
   5570   5569   5571     1   109.6600471 523.836800
   5571   5573   5577     1   111.0400475 529.694400
   5573   5577   5578     1   123.2000528 564.003200
   5573   5577   5609     1   112.2600482 538.062400
   5577   5609   5590     1   118.5150508 540.957728
   5578   5577   5609     1   118.8300510 581.576000
   5581   5584   5585     1   123.2000528 564.003200
   5581   5584   5633     1   112.2600482 538.062400
   5584   5633   5614     1   118.5150508 540.957728
   5585   5584   5633     1   118.8300510 581.576000
   5586   5587   5589     1   111.5100476 526.347200
   5586   5587   5607     1   110.1900474 564.840000
   5586   5597   5602     1   110.1900474 564.840000
   5586   5604   5591     1   112.4800480 524.673600
   5587   5589   5590     1   111.5100476 526.347200
   5587   5589   5596     1   110.1900474 564.840000
   5587   5586   5597     1   111.5100476 526.347200
   5587   5586   5604     1   107.9700462 569.024000
   5589   5590   5591     1   111.5100476 526.347200
   5589   5590   5609     1   111.0400475 552.288000
   5589   5587   5607     1   110.1900474 564.840000
   5590   5591   5595     1   110.1900474 564.840000
   5590   5591   5604     1   107.9700462 569.024000
   5590   5589   5596     1   110.1900474 564.840000
   5591   5590   5609     1   111.0400475 552.288000
   5595   5591   5604     1   109.3800466 607.516800
   5597   5586   5604     1   107.9700462 569.024000
   5610   5611   5613     1   111.5100476 526.347200
   5610   5611   5631     1   110.1900474 564.840000
   5610   5621   5626     1   110.1900474 564.840000
   5610   5628   5615     1   112.4800480 524.673600
   5611   5613   5614     1   111.5100476 526.347200
   5611   5613   5620     1   110.1900474 564.840000
   5611   5610   5621     1   111.5100476 526.347200
   5611   5610   5628     1   107.9700462 569.024000
   5613   5614   5615     1   111.5100476 526.347200
   5613   5614   5633     1   111.0400475 552.288000
   5613   5611   5631     1   110.1900474 564.840000
   5614   5615   5619     1   110.1900474 564.840000
   5614   5615   5628     1   107.9700462 569.024000
   5614   5613   5620     1   110.1900474 564.840000
   5615   5614   5633     1   111.0400475 552.288000
   5619   5615   5628     1   109.3800466 607.516800
   5621   5610   5628     1   107.9700462 569.024000
   5635   5637   5639     1   111.6100477 551.451200
   5637   5639   5643     1   114.2100488 537.225600
   5639   5643   5644     1   109.6600471 523.836800
   5639   5643   5645     1   109.6600471 523.836800
   5643   5644   5655     1   114.2100488 537.225600
   5643   5645   5647     1   114.2100488 537.225600
   5644   5643   5645     1   109.6600471 523.836800
   5644   5655   5658     1   111.0400475 529.694400
   5645   5647   5651     1   111.0400475 529.694400
   5647   5651   5652     1   123.2000528 564.003200
   5647   5651   5683     1   112.2600482 538.062400
   5651   5683   5664     1   118.5150508 540.957728
   5652   5651   5683     1   118.8300510 581.576000
   5655   5658   5659     1   123.2000528 564.003200
   5655   5658   5707     1   112.2600482 538.062400
   5658   5707   5688     1   118.5150508 540.957728
   5659   5658   5707     1   118.8300510 581.576000
   5660   5661   5663     1   111.5100476 526.347200
   5660   5661   5681     1   110.1900474 564.840000
   5660   5671   5676     1   110.1900474 564.840000
   5660   5678   5665     1   112.4800480 524.673600
   5661   5660   5671     1   111.5100476 526.347200
   5661   5660   5678     1   107.9700462 569.024000
   5661   5663   5664     1   111.5100476 526.347200
   5661   5663   5670     1   110.1900474 564.840000
   5663   5661   5681     1   110.1900474 564.840000
   5663   5664   5665     1   111.5100476 526.347200
   5663   5664   5683     1   111.0400475 552.288000
   5664   5663   5670     1   110.1900474 564.840000
   5664   5665   5669     1   110.1900474 564.840000
   5664   5665   5678     1   107.9700462 569.024000
   5665   5664   5683     1   111.0400475 552.288000
   5669   5665   5678     1   109.3800466 607.516800
   5671   5660   5678     1   107.9700462 569.024000
   5684   5685   5687     1   111.5100476 526.347200
   5684   5685   5705     1   110.1900474 564.840000
   5684   5695   5700     1   110.1900474 564.840000
   5684   5702   5689     1   112.4800480 524.673600
   5685   5684   5695     1   111.5100476 526.347200
   5685   5684   5702     1   107.9700462 569.024000
   5685   5687   5688     1   111.5100476 526.347200
   5685   5687   5694     1   110.1900474 564.840000
   5687   5685   5705     1   110.1900474 564.840000
   5687   5688   5689     1   111.5100476 526.347200
   5687   5688   5707     1   111.0400475 552.288000
   5688   5687   5694     1   110.1900474 564.840000
   5688   5689   5693     1   110.1900474 564.840000
   5688   5689   5702     1   107.9700462 569.024000
   5689   5688   5707     1   111.0400475 552.288000
   5693   5689   5702     1   109.3800466 607.516800
   5695   5684   5702     1   107.9700462 569.024000
   5709   5711   5713     1   111.6100477 551.451200
   5711   5713   5717     1   114.2100488 537.225600
   5713   5717   5718     1   109.6600471 523.836800
   5713   5717   5719     1   109.6600471 523.836800
   5717   5718   5729     1   114.2100488 537.225600
   5717   5719   5721     1   114.2100488 537.225600
   5718   5729   5732     1   111.0400475 529.694400
   5718   5717   5719     1   109.6600471 523.836800
   5719   5721   5725     1   111.0400475 529.694400
   5721   5725   5726     1   123.2000528 564.003200
   5721   5725   5757     1   112.2600482 538.062400
   5725   5757   5738     1   118.5150508 540.957728
   5726   5725   5757     1   118.8300510 581.576000
   5729   5732   5733     1   123.2000528 564.003200
   5729   5732   5781     1   112.2600482 538.062400
   5732   5781   5762     1   118.5150508 540.957728
   5733   5732   5781     1   118.8300510 581.576000
   5734   5735   5737     1   111.5100476 526.347200
   5734   5735   5755     1   110.1900474 564.840000
   5734   5745   5750     1   110.1900474 564.840000
   5734   5752   5739     1   112.4800480 524.673600
   5735   5737   5738     1   111.5100476 526.347200
   5735   5737   5744     1   110.1900474 564.840000
   5735   5734   5745     1   111.5100476 526.347200
   5735   5734   5752     1   107.9700462 569.024000
   5737   5738   5739     1   111.5100476 526.347200
   5737   5738   5757     1   111.0400475 552.288000
   5737   5735   5755     1   110.1900474 564.840000
   5738   5739   5743     1   110.1900474 564.840000
   5738   5739   5752     1   107.9700462 569.024000
   5738   5737   5744     1   110.1900474 564.840000
   5739   5738   5757     1   111.0400475 552.288000
   5743   5739   5752     1   109.3800466 607.516800
   5745   5734   5752     1   107.9700462 569.024000
   5758   5759   5761     1   111.5100476 526.347200
   5758   5759   5779     1   110.1900474 564.840000
   5758   5769   5774     1   110.1900474 564.840000
   5758   5776   5763     1   112.4800480 524.673600
   5759   5761   5762     1   111.5100476 526.347200
   5759   5761   5768     1   110.1900474 564.840000
   5759   5758   5769     1   111.5100476 526.347200
   5759   5758   5776     1   107.9700462 569.024000
   5761   5762   5763     1   111.5100476 526.347200
   5761   5762   5781     1   111.0400475 552.288000
   5761   5759   5779     1   110.1900474 564.840000
   5762   5763   5767     1   110.1900474 564.840000
   5762   5763   5776     1   107.9700462 569.024000
   5762   5761   5768     1   110.1900474 564.840000
   5763   5762   5781     1   111.0400475 552.288000
   5767   5763   5776     1   109.3800466 607.516800
   5769   5758   5776     1   107.9700462 569.024000
   5783   5785   5787     1   111.6100477 551.451200
   5785   5787   5791     1   114.2100488 537.225600
   5787   5791   5792     1   109.6600471 523.836800
   5787   5791   5793     1   109.6600471 523.836800
   5791   5792   5803     1   114.2100488 537.225600
   5791   5793   5795     1   114.2100488 537.225600
   5792   5791   5793     1   109.6600471 523.836800
   5792   5803   5806     1   111.0400475 529.694400
   5793   5795   5799     1   111.0400475 529.694400
   5795   5799   5800     1   123.2000528 564.003200
   5795   5799   5831     1   112.2600482 538.062400
   5799   5831   5812     1   118.5150508 540.957728
   5800   5799   5831     1   118.8300510 581.576000
   5803   5806   5807     1   123.2000528 564.003200
   5803   5806   5855     1   112.2600482 538.062400
   5806   5855   5836     1   118.5150508 540.957728
   5807   5806   5855     1   118.8300510 581.576000
   5808   5809   5811     1   111.5100476 526.347200
   5808   5809   5829     1   110.1900474 564.840000
   5808   5819   5824     1   110.1900474 564.840000
   5808   5826   5813     1   112.4800480 524.673600
   5809   5808   5819     1   111.5100476 526.347200
   5809   5808   5826     1   107.9700462 569.024000
   5809   5811   5812     1   111.5100476 526.347200
   5809   5811   5818     1   110.1900474 564.840000
   5811   5809   5829     1   110.1900474 564.840000
   5811   5812   5813     1   111.5100476 526.347200
   5811   5812   5831     1   111.0400475 552.288000
   5812   5811   5818     1   110.1900474 564.840000
   5812   5813   5817     1   110.1900474 564.840000
   5812   5813   5826     1   107.9700462 569.024000
   5813   5812   5831     1   111.0400475 552.288000
   5817   5813   5826     1   109.3800466 607.516800
   5819   5808   5826     1   107.9700462 569.024000
   5832   5833   5835     1   111.5100476 526.347200
   5832   5833   5853     1   110.1900474 564.840000
   5832   5843   5848     1   110.1900474 564.840000
   5832   5850   5837     1   112.4800480 524.673600
   5833   5832   5843     1   111.5100476 526.347200
   5833   5832   5850     1   107.9700462 569.024000
   5833   5835   5836     1   111.5100476 526.347200
   5833   5835   5842     1   110.1900474 564.840000
   5835   5833   5853     1   110.1900474 564.840000
   5835   5836   5837     1   111.5100476 526.347200
   5835   5836   5855     1   111.0400475 552.288000
   5836   5835   5842     1   110.1900474 564.840000
   5836   5837   5841     1   110.1900474 564.840000
   5836   5837   5850     1   107.9700462 569.024000
   5837   5836   5855     1   111.0400475 552.288000
   5841   5837   5850     1   109.3800466 607.516800
   5843   5832   5850     1   107.9700462 569.024000
   5857   5859   5861     1   111.6100477 551.451200
   5859   5861   5865     1   114.2100488 537.225600
   5861   5865   5866     1   109.6600471 523.836800
   5861   5865   5867     1   109.6600471 523.836800
   5865   5866   5877     1   114.2100488 537.225600
   5865   5867   5869     1   114.2100488 537.225600
   5866   5877   5880     1   111.0400475 529.694400
   5866   5865   5867     1   109.6600471 523.836800
   5867   5869   5873     1   111.0400475 529.694400
   5869   5873   5874     1   123.2000528 564.003200
   5869   5873   5905     1   112.2600482 538.062400
   5873   5905   5886     1   118.5150508 540.957728
   5874   5873   5905     1   118.8300510 581.576000
   5877   5880   5881     1   123.2000528 564.003200
   5877   5880   5929     1   112.2600482 538.062400
   5880   5929   5910     1   118.5150508 540.957728
   5881   5880   5929     1   118.8300510 581.576000
   5882   5883   5885     1   111.5100476 526.347200
   5882   5883   5903     1   110.1900474 564.840000
   5882   5893   5898     1   110.1900474 564.840000
   5882   5900   5887     1   112.4800480 524.673600
   5883   5885   5886     1   111.5100476 526.347200
   5883   5885   5892     1   110.1900474 564.840000
   5883   5882   5893     1   111.5100476 526.347200
   5883   5882   5900     1   107.9700462 569.024000
   5885   5886   5887     1   111.5100476 526.347200
   5885   5886   5905     1   111.0400475 552.288000
   5885   5883   5903     1   110.1900474 564.840000
   5886   5887   5891     1   110.1900474 564.840000
   5886   5887   5900     1   107.9700462 569.024000
   5886   5885   5892     1   110.1900474 564.840000
   5887   5886   5905     1   111.0400475 552.288000
   5891   5887   5900     1   109.3800466 607.516800
   5893   5882   5900     1   107.9700462 569.024000
   5906   5907   5909     1   111.5100476 526.347200
   5906   5907   5927     1   110.1900474 564.840000
   5906   5917   5922     1   110.1900474 564.840000
   5906   5924   5911     1   112.4800480 524.673600
   5907   5909   5910     1   111.5100476 526.347200
   5907   5909   5916     1   110.1900474 564.840000
   5907   5906   5917     1   111.5100476 526.347200
   5907   5906   5924     1   107.9700462 569.024000
   5909   5910   5911     1   111.5100476 526.347200
   5909   5910   5929     1   111.0400475 552.288000
   5909   5907   5927     1   110.1900474 564.840000
   5910   5911   5915     1   110.1900474 564.840000
   5910   5911   5924     1   107.9700462 569.024000
   5910   5909   5916     1   110.1900474 564.840000
   5911   5910   5929     1   111.0400475 552.288000
   5915   5911   5924     1   109.3800466 607.516800
   5917   5906   5924     1   107.9700462 569.024000
   5931   5933   5935     1   111.6100477 551.451200
   5933   5935   5939     1   114.2100488 537.225600
   5935   5939   5940     1   109.6600471 523.836800
   5935   5939   5941     1   109.6600471 523.836800
   5939   5940   5951     1   114.2100488 537.225600
   5939   5941   5943     1   114.2100488 537.225600
   5940   5939   5941     1   109.6600471 523.836800
   5940   5951   5954     1   111.0400475 529.694400
   5941   5943   5947     1   111.0400475 529.694400
   5943   5947   5948     1   123.2000528 564.003200
   5943   5947   5979     1   112.2600482 538.062400
   5947   5979   5960     1   118.5150508 540.957728
   5948   5947   5979     1   118.8300510 581.576000
   5951   5954   5955     1   123.2000528 564.003200
   5951   5954   6003     1   112.2600482 538.062400
   5954   6003   5984     1   118.5150508 540.957728
   5955   5954   6003     1   118.8300510 581.576000
   5956   5957   5959     1   111.5100476 526.347200
   5956   5957   5977     1   110.1900474 564.840000
   5956   5967   5972     1   110.1900474 564.840000
   5956   5974   5961     1   112.4800480 524.673600
   5957   5956   5967     1   111.5100476 526.347200
   5957   5956   5974     1   107.9700462 569.024000
   5957   5959   5960     1   111.5100476 526.347200
   5957   5959   5966     1   110.1900474 564.840000
   5959   5957   5977     1   110.1900474 564.840000
   5959   5960   5961     1   111.5100476 526.347200
   5959   5960   5979     1   111.0400475 552.288000
   5960   5959   5966     1   110.1900474 564.840000
   5960   5961   5965     1   110.1900474 564.840000
   5960   5961   5974     1   107.9700462 569.024000
   5961   5960   5979     1   111.0400475 552.288000
   5965   5961   5974     1   109.3800466 607.516800
   5967   5956   5974     1   107.9700462 569.024000
   5980   5981   5983     1   111.5100476 526.347200
   5980   5981   6001     1   110.1900474 564.840000
   5980   5991   5996     1   110.1900474 564.840000
   5980   5998   5985     1   112.4800480 524.673600
   5981   5980   5991     1   111.5100476 526.347200
   5981   5980   5998     1   107.9700462 569.024000
   5981   5983   5984     1   111.5100476 526.347200
   5981   5983   5990     1   110.1900474 564.840000
   5983   5981   6001     1   110.1900474 564.840000
   5983   5984   5985     1   111.5100476 526.347200
   5983   5984   6003     1   111.0400475 552.288000
   5984   5983   5990     1   110.1900474 564.840000
   5984   5985   5989     1   110.1900474 564.840000
   5984   5985   5998     1   107.9700462 569.024000
   5985   5984   6003     1   111.0400475 552.288000
   5989   5985   5998     1   109.3800466 607.516800
   5991   5980   5998     1   107.9700462 569.024000
   6005   6007   6009     1   111.6100477 551.451200
   6007   6009   6013     1   114.2100488 537.225600
   6009   6013   6014     1   109.6600471 523.836800
   6009   6013   6015     1   109.6600471 523.836800
   6013   6014   6025     1   114.2100488 537.225600
   6013   6015   6017     1   114.2100488 537.225600
   6014   6025   6028     1   111.0400475 529.694400
   6014   6013   6015     1   109.6600471 523.836800
   6015   6017   6021     1   111.0400475 529.694400
   6017   6021   6022     1   123.2000528 564.003200
   6017   6021   6053     1   112.2600482 538.062400
   6021   6053   6034     1   118.5150508 540.957728
   6022   6021   6053     1   118.8300510 581.576000
   6025   6028   6029     1   123.2000528 564.003200
   6025   6028   6077     1   112.2600482 538.062400
   6028   6077   6058     1   118.5150508 540.957728
   6029   6028   6077     1   118.8300510 581.576000
   6030   6031   6033     1   111.5100476 526.347200
   6030   6031   6051     1   110.1900474 564.840000
   6030   6041   6046     1   110.1900474 564.840000
   6030   6048   6035     1   112.4800480 524.673600
   6031   6033   6034     1   111.5100476 526.347200
   6031   6033   6040     1   110.1900474 564.840000
   6031   6030   6041     1   111.5100476 526.347200
   6031   6030   6048     1   107.9700462 569.024000
   6033   6034   6035     1   111.5100476 526.347200
   6033   6034   6053     1   111.0400475 552.288000
   6033   6031   6051     1   110.1900474 564.840000
   6034   6035   6039     1   110.1900474 564.840000
   6034   6035   6048     1   107.9700462 569.024000
   6034   6033   6040     1   110.1900474 564.840000
   6035   6034   6053     1   111.0400475 552.288000
   6039   6035   6048     1   109.3800466 607.516800
   6041   6030   6048     1   107.9700462 569.024000
   6054   6055   6057     1   111.5100476 526.347200
   6054   6055   6075     1   110.1900474 564.840000
   6054   6065   6070     1   110.1900474 564.840000
   6054   6072   6059     1   112.4800480 524.673600
   6055   6057   6058     1   111.5100476 526.347200
   6055   6057   6064     1   110.1900474 564.840000
   6055   6054   6065     1   111.5100476 526.347200
   6055   6054   6072     1   107.9700462 569.024000
   6057   6058   6059     1   111.5100476 526.347200
   6057   6058   6077     1   111.0400475 552.288000
   6057   6055   6075     1   110.1900474 564.840000
   6058   6059   6063     1   110.1900474 564.840000
   6058   6059   6072     1   107.9700462 569.024000
   6058   6057   6064     1   110.1900474 564.840000
   6059   6058   6077     1   111.0400475 552.288000
   6063   6059   6072     1   109.3800466 607.516800
   6065   6054   6072     1   107.9700462 569.024000
   6079   6081   6083     1   111.6100477 551.451200
   6081   6083   6087     1   114.2100488 537.225600
   6083   6087   6088     1   109.6600471 523.836800
   6083   6087   6089     1   109.6600471 523.836800
   6087   6088   6099     1   114.2100488 537.225600
   6087   6089   6091     1   114.2100488 537.225600
   6088   6087   6089     1   109.6600471 523.836800
   6088   6099   6102     1   111.0400475 529.694400
   6089   6091   6095     1   111.0400475 529.694400
   6091   6095   6096     1   123.2000528 564.003200
   6091   6095   6127     1   112.2600482 538.062400
   6095   6127   6108     1   118.5150508 540.957728
   6096   6095   6127     1   118.8300510 581.576000
   6099   6102   6103     1   123.2000528 564.003200
   6099   6102   6151     1   112.2600482 538.062400
   6102   6151   6132     1   118.5150508 540.957728
   6103   6102   6151     1   118.8300510 581.576000
   6104   6105   6107     1   111.5100476 526.347200
   6104   6105   6125     1   110.1900474 564.840000
   6104   6115   6120     1   110.1900474 564.840000
   6104   6122   6109     1   112.4800480 524.673600
   6105   6104   6115     1   111.5100476 526.347200
   6105   6104   6122     1   107.9700462 569.024000
   6105   6107   6108     1   111.5100476 526.347200
   6105   6107   6114     1   110.1900474 564.840000
   6107   6105   6125     1   110.1900474 564.840000
   6107   6108   6109     1   111.5100476 526.347200
   6107   6108   6127     1   111.0400475 552.288000
   6108   6107   6114     1   110.1900474 564.840000
   6108   6109   6113     1   110.1900474 564.840000
   6108   6109   6122     1   107.9700462 569.024000
   6109   6108   6127     1   111.0400475 552.288000
   6113   6109   6122     1   109.3800466 607.516800
   6115   6104   6122     1   107.9700462 569.024000
   6128   6129   6131     1   111.5100476 526.347200
   6128   6129   6149     1   110.1900474 564.840000
   6128   6139   6144     1   110.1900474 564.840000
   6128   6146   6133     1   112.4800480 524.673600
   6129   6128   6139     1   111.5100476 526.347200
   6129   6128   6146     1   107.9700462 569.024000
   6129   6131   6132     1   111.5100476 526.347200
   6129   6131   6138     1   110.1900474 564.840000
   6131   6129   6149     1   110.1900474 564.840000
   6131   6132   6133     1   111.5100476 526.347200
   6131   6132   6151     1   111.0400475 552.288000
   6132   6131   6138     1   110.1900474 564.840000
   6132   6133   6137     1   110.1900474 564.840000
   6132   6133   6146     1   107.9700462 569.024000
   6133   6132   6151     1   111.0400475 552.288000
   6137   6133   6146     1   109.3800466 607.516800
   6139   6128   6146     1   107.9700462 569.024000
   6153   6155   6157     1   111.6100477 551.451200
   6155   6157   6161     1   114.2100488 537.225600
   6157   6161   6162     1   109.6600471 523.836800
   6157   6161   6163     1   109.6600471 523.836800
   6161   6162   6173     1   114.2100488 537.225600
   6161   6163   6165     1   114.2100488 537.225600
   6162   6173   6176     1   111.0400475 529.694400
   6162   6161   6163     1   109.6600471 523.836800
   6163   6165   6169     1   111.0400475 529.694400
   6165   6169   6170     1   123.2000528 564.003200
   6165   6169   6201     1   112.2600482 538.062400
   6169   6201   6182     1   118.5150508 540.957728
   6170   6169   6201     1   118.8300510 581.576000
   6173   6176   6177     1   123.2000528 564.003200
   6173   6176   6225     1   112.2600482 538.062400
   6176   6225   6206     1   118.5150508 540.957728
   6177   6176   6225     1   118.8300510 581.576000
   6178   6179   6181     1   111.5100476 526.347200
   6178   6179   6199     1   110.1900474 564.840000
   6178   6189   6194     1   110.1900474 564.840000
   6178   6196   6183     1   112.4800480 524.673600
   6179   6181   6182     1   111.5100476 526.347200
   6179   6181   6188     1   110.1900474 564.840000
   6179   6178   6189     1   111.5100476 526.347200
   6179   6178   6196     1   107.9700462 569.024000
   6181   6182   6183     1   111.5100476 526.347200
   6181   6182   6201     1   111.0400475 552.288000
   6181   6179   6199     1   110.1900474 564.840000
   6182   6183   6187     1   110.1900474 564.840000
   6182   6183   6196     1   107.9700462 569.024000
   6182   6181   6188     1   110.1900474 564.840000
   6183   6182   6201     1   111.0400475 552.288000
   6187   6183   6196     1   109.3800466 607.516800
   6189   6178   6196     1   107.9700462 569.024000
   6202   6203   6205     1   111.5100476 526.347200
   6202   6203   6223     1   110.1900474 564.840000
   6202   6213   6218     1   110.1900474 564.840000
   6202   6220   6207     1   112.4800480 524.673600
   6203   6205   6206     1   111.5100476 526.347200
   6203   6205   6212     1   110.1900474 564.840000
   6203   6202   6213     1   111.5100476 526.347200
   6203   6202   6220     1   107.9700462 569.024000
   6205   6206   6207     1   111.5100476 526.347200
   6205   6206   6225     1   111.0400475 552.288000
   6205   6203   6223     1   110.1900474 564.840000
   6206   6207   6211     1   110.1900474 564.840000
   6206   6207   6220     1   107.9700462 569.024000
   6206   6205   6212     1   110.1900474 564.840000
   6207   6206   6225     1   111.0400475 552.288000
   6211   6207   6220     1   109.3800466 607.516800
   6213   6202   6220     1   107.9700462 569.024000
   6227   6229   6231     1   111.6100477 551.451200
   6229   6231   6235     1   114.2100488 537.225600
   6231   6235   6236     1   109.6600471 523.836800
   6231   6235   6237     1   109.6600471 523.836800
   6235   6236   6247     1   114.2100488 537.225600
   6235   6237   6239     1   114.2100488 537.225600
   6236   6235   6237     1   109.6600471 523.836800
   6236   6247   6250     1   111.0400475 529.694400
   6237   6239   6243     1   111.0400475 529.694400
   6239   6243   6244     1   123.2000528 564.003200
   6239   6243   6275     1   112.2600482 538.062400
   6243   6275   6256     1   118.5150508 540.957728
   6244   6243   6275     1   118.8300510 581.576000
   6247   6250   6251     1   123.2000528 564.003200
   6247   6250   6299     1   112.2600482 538.062400
   6250   6299   6280     1   118.5150508 540.957728
   6251   6250   6299     1   118.8300510 581.576000
   6252   6253   6255     1   111.5100476 526.347200
   6252   6253   6273     1   110.1900474 564.840000
   6252   6263   6268     1   110.1900474 564.840000
   6252   6270   6257     1   112.4800480 524.673600
   6253   6252   6263     1   111.5100476 526.347200
   6253   6252   6270     1   107.9700462 569.024000
   6253   6255   6256     1   111.5100476 526.347200
   6253   6255   6262     1   110.1900474 564.840000
   6255   6253   6273     1   110.1900474 564.840000
   6255   6256   6257     1   111.5100476 526.347200
   6255   6256   6275     1   111.0400475 552.288000
   6256   6255   6262     1   110.1900474 564.840000
   6256   6257   6261     1   110.1900474 564.840000
   6256   6257   6270     1   107.9700462 569.024000
   6257   6256   6275     1   111.0400475 552.288000
   6261   6257   6270     1   109.3800466 607.516800
   6263   6252   6270     1   107.9700462 569.024000
   6276   6277   6279     1   111.5100476 526.347200
   6276   6277   6297     1   110.1900474 564.840000
   6276   6287   6292     1   110.1900474 564.840000
   6276   6294   6281     1   112.4800480 524.673600
   6277   6276   6287     1   111.5100476 526.347200
   6277   6276   6294     1   107.9700462 569.024000
   6277   6279   6280     1   111.5100476 526.347200
   6277   6279   6286     1   110.1900474 564.840000
   6279   6277   6297     1   110.1900474 564.840000
   6279   6280   6281     1   111.5100476 526.347200
   6279   6280   6299     1   111.0400475 552.288000
   6280   6279   6286     1   110.1900474 564.840000
   6280   6281   6285     1   110.1900474 564.840000
   6280   6281   6294     1   107.9700462 569.024000
   6281   6280   6299     1   111.0400475 552.288000
   6285   6281   6294     1   109.3800466 607.516800
   6287   6276   6294     1   107.9700462 569.024000
   6301   6303   6305     1   111.6100477 551.451200
   6303   6305   6309     1   114.2100488 537.225600
   6305   6309   6310     1   109.6600471 523.836800
   6305   6309   6311     1   109.6600471 523.836800
   6309   6310   6321     1   114.2100488 537.225600
   6309   6311   6313     1   114.2100488 537.225600
   6310   6321   6324     1   111.0400475 529.694400
   6310   6309   6311     1   109.6600471 523.836800
   6311   6313   6317     1   111.0400475 529.694400
   6313   6317   6318     1   123.2000528 564.003200
   6313   6317   6349     1   112.2600482 538.062400
   6317   6349   6330     1   118.5150508 540.957728
   6318   6317   6349     1   118.8300510 581.576000
   6321   6324   6325     1   123.2000528 564.003200
   6321   6324   6373     1   112.2600482 538.062400
   6324   6373   6354     1   118.5150508 540.957728
   6325   6324   6373     1   118.8300510 581.576000
   6326   6327   6329     1   111.5100476 526.347200
   6326   6327   6347     1   110.1900474 564.840000
   6326   6337   6342     1   110.1900474 564.840000
   6326   6344   6331     1   112.4800480 524.673600
   6327   6329   6330     1   111.5100476 526.347200
   6327   6329   6336     1   110.1900474 564.840000
   6327   6326   6337     1   111.5100476 526.347200
   6327   6326   6344     1   107.9700462 569.024000
   6329   6330   6331     1   111.5100476 526.347200
   6329   6330   6349     1   111.0400475 552.288000
   6329   6327   6347     1   110.1900474 564.840000
   6330   6331   6335     1   110.1900474 564.840000
   6330   6331   6344     1   107.9700462 569.024000
   6330   6329   6336     1   110.1900474 564.840000
   6331   6330   6349     1   111.0400475 552.288000
   6335   6331   6344     1   109.3800466 607.516800
   6337   6326   6344     1   107.9700462 569.024000
   6350   6351   6353     1   111.5100476 526.347200
   6350   6351   6371     1   110.1900474 564.840000
   6350   6361   6366     1   110.1900474 564.840000
   6350   6368   6355     1   112.4800480 524.673600
   6351   6353   6354     1   111.5100476 526.347200
   6351   6353   6360     1   110.1900474 564.840000
   6351   6350   6361     1   111.5100476 526.347200
   6351   6350   6368     1   107.9700462 569.024000
   6353   6354   6355     1   111.5100476 526.347200
   6353   6354   6373     1   111.0400475 552.288000
   6353   6351   6371     1   110.1900474 564.840000
   6354   6355   6359     1   110.1900474 564.840000
   6354   6355   6368     1   107.9700462 569.024000
   6354   6353   6360     1   110.1900474 564.840000
   6355   6354   6373     1   111.0400475 552.288000
   6359   6355   6368     1   109.3800466 607.516800
   6361   6350   6368     1   107.9700462 569.024000
   6375   6377   6379     1   111.6100477 551.451200
   6377   6379   6383     1   114.2100488 537.225600
   6379   6383   6384     1   109.6600471 523.836800
   6379   6383   6385     1   109.6600471 523.836800
   6383   6384   6395     1   114.2100488 537.225600
   6383   6385   6387     1   114.2100488 537.225600
   6384   6383   6385     1   109.6600471 523.836800
   6384   6395   6398     1   111.0400475 529.694400
   6385   6387   6391     1   111.0400475 529.694400
   6387   6391   6392     1   123.2000528 564.003200
   6387   6391   6423     1   112.2600482 538.062400
   6391   6423   6404     1   118.5150508 540.957728
   6392   6391   6423     1   118.8300510 581.576000
   6395   6398   6399     1   123.2000528 564.003200
   6395   6398   6447     1   112.2600482 538.062400
   6398   6447   6428     1   118.5150508 540.957728
   6399   6398   6447     1   118.8300510 581.576000
   6400   6401   6403     1   111.5100476 526.347200
   6400   6401   6421     1   110.1900474 564.840000
   6400   6411   6416     1   110.1900474 564.840000
   6400   6418   6405     1   112.4800480 524.673600
   6401   6400   6411     1   111.5100476 526.347200
   6401   6400   6418     1   107.9700462 569.024000
   6401   6403   6404     1   111.5100476 526.347200
   6401   6403   6410     1   110.1900474 564.840000
   6403   6401   6421     1   110.1900474 564.840000
   6403   6404   6405     1   111.5100476 526.347200
   6403   6404   6423     1   111.0400475 552.288000
   6404   6403   6410     1   110.1900474 564.840000
   6404   6405   6409     1   110.1900474 564.840000
   6404   6405   6418     1   107.9700462 569.024000
   6405   6404   6423     1   111.0400475 552.288000
   6409   6405   6418     1   109.3800466 607.516800
   6411   6400   6418     1   107.9700462 569.024000
   6424   6425   6427     1   111.5100476 526.347200
   6424   6425   6445     1   110.1900474 564.840000
   6424   6435   6440     1   110.1900474 564.840000
   6424   6442   6429     1   112.4800480 524.673600
   6425   6424   6435     1   111.5100476 526.347200
   6425   6424   6442     1   107.9700462 569.024000
   6425   6427   6428     1   111.5100476 526.347200
   6425   6427   6434     1   110.1900474 564.840000
   6427   6425   6445     1   110.1900474 564.840000
   6427   6428   6429     1   111.5100476 526.347200
   6427   6428   6447     1   111.0400475 552.288000
   6428   6427   6434     1   110.1900474 564.840000
   6428   6429   6433     1   110.1900474 564.840000
   6428   6429   6442     1   107.9700462 569.024000
   6429   6428   6447     1   111.0400475 552.288000
   6433   6429   6442     1   109.3800466 607.516800
   6435   6424   6442     1   107.9700462 569.024000
   6449   6451   6453     1   111.6100477 551.451200
   6451   6453   6457     1   114.2100488 537.225600
   6453   6457   6458     1   109.6600471 523.836800
   6453   6457   6459     1   109.6600471 523.836800
   6457   6458   6469     1   114.2100488 537.225600
   6457   6459   6461     1   114.2100488 537.225600
   6458   6469   6472     1   111.0400475 529.694400
   6458   6457   6459     1   109.6600471 523.836800
   6459   6461   6465     1   111.0400475 529.694400
   6461   6465   6466     1   123.2000528 564.003200
   6461   6465   6497     1   112.2600482 538.062400
   6465   6497   6478     1   118.5150508 540.957728
   6466   6465   6497     1   118.8300510 581.576000
   6469   6472   6473     1   123.2000528 564.003200
   6469   6472   6521     1   112.2600482 538.062400
   6472   6521   6502     1   118.5150508 540.957728
   6473   6472   6521     1   118.8300510 581.576000
   6474   6475   6477     1   111.5100476 526.347200
   6474   6475   6495     1   110.1900474 564.840000
   6474   6485   6490     1   110.1900474 564.840000
   6474   6492   6479     1   112.4800480 524.673600
   6475   6477   6478     1   111.5100476 526.347200
   6475   6477   6484     1   110.1900474 564.840000
   6475   6474   6485     1   111.5100476 526.347200
   6475   6474   6492     1   107.9700462 569.024000
   6477   6478   6479     1   111.5100476 526.347200
   6477   6478   6497     1   111.0400475 552.288000
   6477   6475   6495     1   110.1900474 564.840000
   6478   6479   6483     1   110.1900474 564.840000
   6478   6479   6492     1   107.9700462 569.024000
   6478   6477   6484     1   110.1900474 564.840000
   6479   6478   6497     1   111.0400475 552.288000
   6483   6479   6492     1   109.3800466 607.516800
   6485   6474   6492     1   107.9700462 569.024000
   6498   6499   6501     1   111.5100476 526.347200
   6498   6499   6519     1   110.1900474 564.840000
   6498   6509   6514     1   110.1900474 564.840000
   6498   6516   6503     1   112.4800480 524.673600
   6499   6501   6502     1   111.5100476 526.347200
   6499   6501   6508     1   110.1900474 564.840000
   6499   6498   6509     1   111.5100476 526.347200
   6499   6498   6516     1   107.9700462 569.024000
   6501   6502   6503     1   111.5100476 526.347200
   6501   6502   6521     1   111.0400475 552.288000
   6501   6499   6519     1   110.1900474 564.840000
   6502   6503   6507     1   110.1900474 564.840000
   6502   6503   6516     1   107.9700462 569.024000
   6502   6501   6508     1   110.1900474 564.840000
   6503   6502   6521     1   111.0400475 552.288000
   6507   6503   6516     1   109.3800466 607.516800
   6509   6498   6516     1   107.9700462 569.024000
   6523   6525   6527     1   111.6100477 551.451200
   6525   6527   6531     1   114.2100488 537.225600
   6527   6531   6532     1   109.6600471 523.836800
   6527   6531   6533     1   109.6600471 523.836800
   6531   6532   6543     1   114.2100488 537.225600
   6531   6533   6535     1   114.2100488 537.225600
   6532   6531   6533     1   109.6600471 523.836800
   6532   6543   6546     1   111.0400475 529.694400
   6533   6535   6539     1   111.0400475 529.694400
   6535   6539   6540     1   123.2000528 564.003200
   6535   6539   6571     1   112.2600482 538.062400
   6539   6571   6552     1   118.5150508 540.957728
   6540   6539   6571     1   118.8300510 581.576000
   6543   6546   6547     1   123.2000528 564.003200
   6543   6546   6595     1   112.2600482 538.062400
   6546   6595   6576     1   118.5150508 540.957728
   6547   6546   6595     1   118.8300510 581.576000
   6548   6549   6551     1   111.5100476 526.347200
   6548   6549   6569     1   110.1900474 564.840000
   6548   6559   6564     1   110.1900474 564.840000
   6548   6566   6553     1   112.4800480 524.673600
   6549   6548   6559     1   111.5100476 526.347200
   6549   6548   6566     1   107.9700462 569.024000
   6549   6551   6552     1   111.5100476 526.347200
   6549   6551   6558     1   110.1900474 564.840000
   6551   6549   6569     1   110.1900474 564.840000
   6551   6552   6553     1   111.5100476 526.347200
   6551   6552   6571     1   111.0400475 552.288000
   6552   6551   6558     1   110.1900474 564.840000
   6552   6553   6557     1   110.1900474 564.840000
   6552   6553   6566     1   107.9700462 569.024000
   6553   6552   6571     1   111.0400475 552.288000
   6557   6553   6566     1   109.3800466 607.516800
   6559   6548   6566     1   107.9700462 569.024000
   6572   6573   6575     1   111.5100476 526.347200
   6572   6573   6593     1   110.1900474 564.840000
   6572   6583   6588     1   110.1900474 564.840000
   6572   6590   6577     1   112.4800480 524.673600
   6573   6572   6583     1   111.5100476 526.347200
   6573   6572   6590     1   107.9700462 569.024000
   6573   6575   6576     1   111.5100476 526.347200
   6573   6575   6582     1   110.1900474 564.840000
   6575   6573   6593     1   110.1900474 564.840000
   6575   6576   6577     1   111.5100476 526.347200
   6575   6576   6595     1   111.0400475 552.288000
   6576   6575   6582     1   110.1900474 564.840000
   6576   6577   6581     1   110.1900474 564.840000
   6576   6577   6590     1   107.9700462 569.024000
   6577   6576   6595     1   111.0400475 552.288000
   6581   6577   6590     1   109.3800466 607.516800
   6583   6572   6590     1   107.9700462 569.024000
   6597   6599   6601     1   111.6100477 551.451200
   6599   6601   6605     1   114.2100488 537.225600
   6601   6605   6606     1   109.6600471 523.836800
   6601   6605   6607     1   109.6600471 523.836800
   6605   6606   6617     1   114.2100488 537.225600
   6605   6607   6609     1   114.2100488 537.225600
   6606   6617   6620     1   111.0400475 529.694400
   6606   6605   6607     1   109.6600471 523.836800
   6607   6609   6613     1   111.0400475 529.694400
   6609   6613   6614     1   123.2000528 564.003200
   6609   6613   6645     1   112.2600482 538.062400
   6613   6645   6626     1   118.5150508 540.957728
   6614   6613   6645     1   118.8300510 581.576000
   6617   6620   6621     1   123.2000528 564.003200
   6617   6620   6669     1   112.2600482 538.062400
   6620   6669   6650     1   118.5150508 540.957728
   6621   6620   6669     1   118.8300510 581.576000
   6622   6623   6625     1   111.5100476 526.347200
   6622   6623   6643     1   110.1900474 564.840000
   6622   6633   6638     1   110.1900474 564.840000
   6622   6640   6627     1   112.4800480 524.673600
   6623   6625   6626     1   111.5100476 526.347200
   6623   6625   6632     1   110.1900474 564.840000
   6623   6622   6633     1   111.5100476 526.347200
   6623   6622   6640     1   107.9700462 569.024000
   6625   6626   6627     1   111.5100476 526.347200
   6625   6626   6645     1   111.0400475 552.288000
   6625   6623   6643     1   110.1900474 564.840000
   6626   6627   6631     1   110.1900474 564.840000
   6626   6627   6640     1   107.9700462 569.024000
   6626   6625   6632     1   110.1900474 564.840000
   6627   6626   6645     1   111.0400475 552.288000
   6631   6627   6640     1   109.3800466 607.516800
   6633   6622   6640     1   107.9700462 569.024000
   6646   6647   6649     1   111.5100476 526.347200
   6646   6647   6667     1   110.1900474 564.840000
   6646   6657   6662     1   110.1900474 564.840000
   6646   6664   6651     1   112.4800480 524.673600
   6647   6649   6650     1   111.5100476 526.347200
   6647   6649   6656     1   110.1900474 564.840000
   6647   6646   6657     1   111.5100476 526.347200
   6647   6646   6664     1   107.9700462 569.024000
   6649   6650   6651     1   111.5100476 526.347200
   6649   6650   6669     1   111.0400475 552.288000
   6649   6647   6667     1   110.1900474 564.840000
   6650   6651   6655     1   110.1900474 564.840000
   6650   6651   6664     1   107.9700462 569.024000
   6650   6649   6656     1   110.1900474 564.840000
   6651   6650   6669     1   111.0400475 552.288000
   6655   6651   6664     1   109.3800466 607.516800
   6657   6646   6664     1   107.9700462 569.024000
   6671   6673   6675     1   111.6100477 551.451200
   6673   6675   6679     1   114.2100488 537.225600
   6675   6679   6680     1   109.6600471 523.836800
   6675   6679   6681     1   109.6600471 523.836800
   6679   6680   6691     1   114.2100488 537.225600
   6679   6681   6683     1   114.2100488 537.225600
   6680   6679   6681     1   109.6600471 523.836800
   6680   6691   6694     1   111.0400475 529.694400
   6681   6683   6687     1   111.0400475 529.694400
   6683   6687   6688     1   123.2000528 564.003200
   6683   6687   6719     1   112.2600482 538.062400
   6687   6719   6700     1   118.5150508 540.957728
   6688   6687   6719     1   118.8300510 581.576000
   6691   6694   6695     1   123.2000528 564.003200
   6691   6694   6743     1   112.2600482 538.062400
   6694   6743   6724     1   118.5150508 540.957728
   6695   6694   6743     1   118.8300510 581.576000
   6696   6697   6699     1   111.5100476 526.347200
   6696   6697   6717     1   110.1900474 564.840000
   6696   6707   6712     1   110.1900474 564.840000
   6696   6714   6701     1   112.4800480 524.673600
   6697   6696   6707     1   111.5100476 526.347200
   6697   6696   6714     1   107.9700462 569.024000
   6697   6699   6700     1   111.5100476 526.347200
   6697   6699   6706     1   110.1900474 564.840000
   6699   6697   6717     1   110.1900474 564.840000
   6699   6700   6701     1   111.5100476 526.347200
   6699   6700   6719     1   111.0400475 552.288000
   6700   6699   6706     1   110.1900474 564.840000
   6700   6701   6705     1   110.1900474 564.840000
   6700   6701   6714     1   107.9700462 569.024000
   6701   6700   6719     1   111.0400475 552.288000
   6705   6701   6714     1   109.3800466 607.516800
   6707   6696   6714     1   107.9700462 569.024000
   6720   6721   6723     1   111.5100476 526.347200
   6720   6721   6741     1   110.1900474 564.840000
   6720   6731   6736     1   110.1900474 564.840000
   6720   6738   6725     1   112.4800480 524.673600
   6721   6720   6731     1   111.5100476 526.347200
   6721   6720   6738     1   107.9700462 569.024000
   6721   6723   6724     1   111.5100476 526.347200
   6721   6723   6730     1   110.1900474 564.840000
   6723   6721   6741     1   110.1900474 564.840000
   6723   6724   6725     1   111.5100476 526.347200
   6723   6724   6743     1   111.0400475 552.288000
   6724   6723   6730     1   110.1900474 564.840000
   6724   6725   6729     1   110.1900474 564.840000
   6724   6725   6738     1   107.9700462 569.024000
   6725   6724   6743     1   111.0400475 552.288000
   6729   6725   6738     1   109.3800466 607.516800
   6731   6720   6738     1   107.9700462 569.024000
   6745   6747   6749     1   111.6100477 551.451200
   6747   6749   6753     1   114.2100488 537.225600
   6749   6753   6754     1   109.6600471 523.836800
   6749   6753   6755     1   109.6600471 523.836800
   6753   6754   6765     1   114.2100488 537.225600
   6753   6755   6757     1   114.2100488 537.225600
   6754   6765   6768     1   111.0400475 529.694400
   6754   6753   6755     1   109.6600471 523.836800
   6755   6757   6761     1   111.0400475 529.694400
   6757   6761   6762     1   123.2000528 564.003200
   6757   6761   6793     1   112.2600482 538.062400
   6761   6793   6774     1   118.5150508 540.957728
   6762   6761   6793     1   118.8300510 581.576000
   6765   6768   6769     1   123.2000528 564.003200
   6765   6768   6817     1   112.2600482 538.062400
   6768   6817   6798     1   118.5150508 540.957728
   6769   6768   6817     1   118.8300510 581.576000
   6770   6771   6773     1   111.5100476 526.347200
   6770   6771   6791     1   110.1900474 564.840000
   6770   6781   6786     1   110.1900474 564.840000
   6770   6788   6775     1   112.4800480 524.673600
   6771   6773   6774     1   111.5100476 526.347200
   6771   6773   6780     1   110.1900474 564.840000
   6771   6770   6781     1   111.5100476 526.347200
   6771   6770   6788     1   107.9700462 569.024000
   6773   6774   6775     1   111.5100476 526.347200
   6773   6774   6793     1   111.0400475 552.288000
   6773   6771   6791     1   110.1900474 564.840000
   6774   6775   6779     1   110.1900474 564.840000
   6774   6775   6788     1   107.9700462 569.024000
   6774   6773   6780     1   110.1900474 564.840000
   6775   6774   6793     1   111.0400475 552.288000
   6779   6775   6788     1   109.3800466 607.516800
   6781   6770   6788     1   107.9700462 569.024000
   6794   6795   6797     1   111.5100476 526.347200
   6794   6795   6815     1   110.1900474 564.840000
   6794   6805   6810     1   110.1900474 564.840000
   6794   6812   6799     1   112.4800480 524.673600
   6795   6797   6798     1   111.5100476 526.347200
   6795   6797   6804     1   110.1900474 564.840000
   6795   6794   6805     1   111.5100476 526.347200
   6795   6794   6812     1   107.9700462 569.024000
   6797   6798   6799     1   111.5100476 526.347200
   6797   6798   6817     1   111.0400475 552.288000
   6797   6795   6815     1   110.1900474 564.840000
   6798   6799   6803     1   110.1900474 564.840000
   6798   6799   6812     1   107.9700462 569.024000
   6798   6797   6804     1   110.1900474 564.840000
   6799   6798   6817     1   111.0400475 552.288000
   6803   6799   6812     1   109.3800466 607.516800
   6805   6794   6812     1   107.9700462 569.024000
   6819   6821   6823     1   111.6100477 551.451200
   6821   6823   6827     1   114.2100488 537.225600
   6823   6827   6828     1   109.6600471 523.836800
   6823   6827   6829     1   109.6600471 523.836800
   6827   6828   6839     1   114.2100488 537.225600
   6827   6829   6831     1   114.2100488 537.225600
   6828   6827   6829     1   109.6600471 523.836800
   6828   6839   6842     1   111.0400475 529.694400
   6829   6831   6835     1   111.0400475 529.694400
   6831   6835   6836     1   123.2000528 564.003200
   6831   6835   6867     1   112.2600482 538.062400
   6835   6867   6848     1   118.5150508 540.957728
   6836   6835   6867     1   118.8300510 581.576000
   6839   6842   6843     1   123.2000528 564.003200
   6839   6842   6891     1   112.2600482 538.062400
   6842   6891   6872     1   118.5150508 540.957728
   6843   6842   6891     1   118.8300510 581.576000
   6844   6845   6847     1   111.5100476 526.347200
   6844   6845   6865     1   110.1900474 564.840000
   6844   6855   6860     1   110.1900474 564.840000
   6844   6862   6849     1   112.4800480 524.673600
   6845   6844   6855     1   111.5100476 526.347200
   6845   6844   6862     1   107.9700462 569.024000
   6845   6847   6848     1   111.5100476 526.347200
   6845   6847   6854     1   110.1900474 564.840000
   6847   6845   6865     1   110.1900474 564.840000
   6847   6848   6849     1   111.5100476 526.347200
   6847   6848   6867     1   111.0400475 552.288000
   6848   6847   6854     1   110.1900474 564.840000
   6848   6849   6853     1   110.1900474 564.840000
   6848   6849   6862     1   107.9700462 569.024000
   6849   6848   6867     1   111.0400475 552.288000
   6853   6849   6862     1   109.3800466 607.516800
   6855   6844   6862     1   107.9700462 569.024000
   6868   6869   6871     1   111.5100476 526.347200
   6868   6869   6889     1   110.1900474 564.840000
   6868   6879   6884     1   110.1900474 564.840000
   6868   6886   6873     1   112.4800480 524.673600
   6869   6868   6879     1   111.5100476 526.347200
   6869   6868   6886     1   107.9700462 569.024000
   6869   6871   6872     1   111.5100476 526.347200
   6869   6871   6878     1   110.1900474 564.840000
   6871   6869   6889     1   110.1900474 564.840000
   6871   6872   6873     1   111.5100476 526.347200
   6871   6872   6891     1   111.0400475 552.288000
   6872   6871   6878     1   110.1900474 564.840000
   6872   6873   6877     1   110.1900474 564.840000
   6872   6873   6886     1   107.9700462 569.024000
   6873   6872   6891     1   111.0400475 552.288000
   6877   6873   6886     1   109.3800466 607.516800
   6879   6868   6886     1   107.9700462 569.024000
   6893   6895   6897     1   111.6100477 551.451200
   6895   6897   6901     1   114.2100488 537.225600
   6897   6901   6902     1   109.6600471 523.836800
   6897   6901   6903     1   109.6600471 523.836800
   6901   6902   6913     1   114.2100488 537.225600
   6901   6903   6905     1   114.2100488 537.225600
   6902   6913   6916     1   111.0400475 529.694400
   6902   6901   6903     1   109.6600471 523.836800
   6903   6905   6909     1   111.0400475 529.694400
   6905   6909   6910     1   123.2000528 564.003200
   6905   6909   6941     1   112.2600482 538.062400
   6909   6941   6922     1   118.5150508 540.957728
   6910   6909   6941     1   118.8300510 581.576000
   6913   6916   6917     1   123.2000528 564.003200
   6913   6916   6965     1   112.2600482 538.062400
   6916   6965   6946     1   118.5150508 540.957728
   6917   6916   6965     1   118.8300510 581.576000
   6918   6919   6921     1   111.5100476 526.347200
   6918   6919   6939     1   110.1900474 564.840000
   6918   6929   6934     1   110.1900474 564.840000
   6918   6936   6923     1   112.4800480 524.673600
   6919   6921   6922     1   111.5100476 526.347200
   6919   6921   6928     1   110.1900474 564.840000
   6919   6918   6929     1   111.5100476 526.347200
   6919   6918   6936     1   107.9700462 569.024000
   6921   6922   6923     1   111.5100476 526.347200
   6921   6922   6941     1   111.0400475 552.288000
   6921   6919   6939     1   110.1900474 564.840000
   6922   6923   6927     1   110.1900474 564.840000
   6922   6923   6936     1   107.9700462 569.024000
   6922   6921   6928     1   110.1900474 564.840000
   6923   6922   6941     1   111.0400475 552.288000
   6927   6923   6936     1   109.3800466 607.516800
   6929   6918   6936     1   107.9700462 569.024000
   6942   6943   6945     1   111.5100476 526.347200
   6942   6943   6963     1   110.1900474 564.840000
   6942   6953   6958     1   110.1900474 564.840000
   6942   6960   6947     1   112.4800480 524.673600
   6943   6945   6946     1   111.5100476 526.347200
   6943   6945   6952     1   110.1900474 564.840000
   6943   6942   6953     1   111.5100476 526.347200
   6943   6942   6960     1   107.9700462 569.024000
   6945   6946   6947     1   111.5100476 526.347200
   6945   6946   6965     1   111.0400475 552.288000
   6945   6943   6963     1   110.1900474 564.840000
   6946   6947   6951     1   110.1900474 564.840000
   6946   6947   6960     1   107.9700462 569.024000
   6946   6945   6952     1   110.1900474 564.840000
   6947   6946   6965     1   111.0400475 552.288000
   6951   6947   6960     1   109.3800466 607.516800
   6953   6942   6960     1   107.9700462 569.024000
   6967   6969   6971     1   111.6100477 551.451200
   6969   6971   6975     1   114.2100488 537.225600
   6971   6975   6976     1   109.6600471 523.836800
   6971   6975   6977     1   109.6600471 523.836800
   6975   6976   6987     1   114.2100488 537.225600
   6975   6977   6979     1   114.2100488 537.225600
   6976   6975   6977     1   109.6600471 523.836800
   6976   6987   6990     1   111.0400475 529.694400
   6977   6979   6983     1   111.0400475 529.694400
   6979   6983   6984     1   123.2000528 564.003200
   6979   6983   7015     1   112.2600482 538.062400
   6983   7015   6996     1   118.5150508 540.957728
   6984   6983   7015     1   118.8300510 581.576000
   6987   6990   6991     1   123.2000528 564.003200
   6987   6990   7039     1   112.2600482 538.062400
   6990   7039   7020     1   118.5150508 540.957728
   6991   6990   7039     1   118.8300510 581.576000
   6992   6993   6995     1   111.5100476 526.347200
   6992   6993   7013     1   110.1900474 564.840000
   6992   7003   7008     1   110.1900474 564.840000
   6992   7010   6997     1   112.4800480 524.673600
   6993   6992   7003     1   111.5100476 526.347200
   6993   6992   7010     1   107.9700462 569.024000
   6993   6995   6996     1   111.5100476 526.347200
   6993   6995   7002     1   110.1900474 564.840000
   6995   6993   7013     1   110.1900474 564.840000
   6995   6996   6997     1   111.5100476 526.347200
   6995   6996   7015     1   111.0400475 552.288000
   6996   6995   7002     1   110.1900474 564.840000
   6996   6997   7001     1   110.1900474 564.840000
   6996   6997   7010     1   107.9700462 569.024000
   6997   6996   7015     1   111.0400475 552.288000
   7001   6997   7010     1   109.3800466 607.516800
   7003   6992   7010     1   107.9700462 569.024000
   7016   7017   7019     1   111.5100476 526.347200
   7016   7017   7037     1   110.1900474 564.840000
   7016   7027   7032     1   110.1900474 564.840000
   7016   7034   7021     1   112.4800480 524.673600
   7017   7016   7027     1   111.5100476 526.347200
   7017   7016   7034     1   107.9700462 569.024000
   7017   7019   7020     1   111.5100476 526.347200
   7017   7019   7026     1   110.1900474 564.840000
   7019   7017   7037     1   110.1900474 564.840000
   7019   7020   7021     1   111.5100476 526.347200
   7019   7020   7039     1   111.0400475 552.288000
   7020   7019   7026     1   110.1900474 564.840000
   7020   7021   7025     1   110.1900474 564.840000
   7020   7021   7034     1   107.9700462 569.024000
   7021   7020   7039     1   111.0400475 552.288000
   7025   7021   7034     1   109.3800466 607.516800
   7027   7016   7034     1   107.9700462 569.024000
   7041   7043   7045     1   111.6100477 551.451200
   7043   7045   7049     1   114.2100488 537.225600
   7045   7049   7050     1   109.6600471 523.836800
   7045   7049   7051     1   109.6600471 523.836800
   7049   7050   7061     1   114.2100488 537.225600
   7049   7051   7053     1   114.2100488 537.225600
   7050   7061   7064     1   111.0400475 529.694400
   7050   7049   7051     1   109.6600471 523.836800
   7051   7053   7057     1   111.0400475 529.694400
   7053   7057   7058     1   123.2000528 564.003200
   7053   7057   7089     1   112.2600482 538.062400
   7057   7089   7070     1   118.5150508 540.957728
   7058   7057   7089     1   118.8300510 581.576000
   7061   7064   7065     1   123.2000528 564.003200
   7061   7064   7113     1   112.2600482 538.062400
   7064   7113   7094     1   118.5150508 540.957728
   7065   7064   7113     1   118.8300510 581.576000
   7066   7067   7069     1   111.5100476 526.347200
   7066   7067   7087     1   110.1900474 564.840000
   7066   7077   7082     1   110.1900474 564.840000
   7066   7084   7071     1   112.4800480 524.673600
   7067   7069   7070     1   111.5100476 526.347200
   7067   7069   7076     1   110.1900474 564.840000
   7067   7066   7077     1   111.5100476 526.347200
   7067   7066   7084     1   107.9700462 569.024000
   7069   7070   7071     1   111.5100476 526.347200
   7069   7070   7089     1   111.0400475 552.288000
   7069   7067   7087     1   110.1900474 564.840000
   7070   7071   7075     1   110.1900474 564.840000
   7070   7071   7084     1   107.9700462 569.024000
   7070   7069   7076     1   110.1900474 564.840000
   7071   7070   7089     1   111.0400475 552.288000
   7075   7071   7084     1   109.3800466 607.516800
   7077   7066   7084     1   107.9700462 569.024000
   7090   7091   7093     1   111.5100476 526.347200
   7090   7091   7111     1   110.1900474 564.840000
   7090   7101   7106     1   110.1900474 564.840000
   7090   7108   7095     1   112.4800480 524.673600
   7091   7093   7094     1   111.5100476 526.347200
   7091   7093   7100     1   110.1900474 564.840000
   7091   7090   7101     1   111.5100476 526.347200
   7091   7090   7108     1   107.9700462 569.024000
   7093   7094   7095     1   111.5100476 526.347200
   7093   7094   7113     1   111.0400475 552.288000
   7093   7091   7111     1   110.1900474 564.840000
   7094   7095   7099     1   110.1900474 564.840000
   7094   7095   7108     1   107.9700462 569.024000
   7094   7093   7100     1   110.1900474 564.840000
   7095   7094   7113     1   111.0400475 552.288000
   7099   7095   7108     1   109.3800466 607.516800
   7101   7090   7108     1   107.9700462 569.024000
   7115   7117   7119     1   111.6100477 551.451200
   7117   7119   7123     1   114.2100488 537.225600
   7119   7123   7124     1   109.6600471 523.836800
   7119   7123   7125     1   109.6600471 523.836800
   7123   7124   7135     1   114.2100488 537.225600
   7123   7125   7127     1   114.2100488 537.225600
   7124   7123   7125     1   109.6600471 523.836800
   7124   7135   7138     1   111.0400475 529.694400
   7125   7127   7131     1   111.0400475 529.694400
   7127   7131   7132     1   123.2000528 564.003200
   7127   7131   7163     1   112.2600482 538.062400
   7131   7163   7144     1   118.5150508 540.957728
   7132   7131   7163     1   118.8300510 581.576000
   7135   7138   7139     1   123.2000528 564.003200
   7135   7138   7187     1   112.2600482 538.062400
   7138   7187   7168     1   118.5150508 540.957728
   7139   7138   7187     1   118.8300510 581.576000
   7140   7141   7143     1   111.5100476 526.347200
   7140   7141   7161     1   110.1900474 564.840000
   7140   7151   7156     1   110.1900474 564.840000
   7140   7158   7145     1   112.4800480 524.673600
   7141   7140   7151     1   111.5100476 526.347200
   7141   7140   7158     1   107.9700462 569.024000
   7141   7143   7144     1   111.5100476 526.347200
   7141   7143   7150     1   110.1900474 564.840000
   7143   7141   7161     1   110.1900474 564.840000
   7143   7144   7145     1   111.5100476 526.347200
   7143   7144   7163     1   111.0400475 552.288000
   7144   7143   7150     1   110.1900474 564.840000
   7144   7145   7149     1   110.1900474 564.840000
   7144   7145   7158     1   107.9700462 569.024000
   7145   7144   7163     1   111.0400475 552.288000
   7149   7145   7158     1   109.3800466 607.516800
   7151   7140   7158     1   107.9700462 569.024000
   7164   7165   7167     1   111.5100476 526.347200
   7164   7165   7185     1   110.1900474 564.840000
   7164   7175   7180     1   110.1900474 564.840000
   7164   7182   7169     1   112.4800480 524.673600
   7165   7164   7175     1   111.5100476 526.347200
   7165   7164   7182     1   107.9700462 569.024000
   7165   7167   7168     1   111.5100476 526.347200
   7165   7167   7174     1   110.1900474 564.840000
   7167   7165   7185     1   110.1900474 564.840000
   7167   7168   7169     1   111.5100476 526.347200
   7167   7168   7187     1   111.0400475 552.288000
   7168   7167   7174     1   110.1900474 564.840000
   7168   7169   7173     1   110.1900474 564.840000
   7168   7169   7182     1   107.9700462 569.024000
   7169   7168   7187     1   111.0400475 552.288000
   7173   7169   7182     1   109.3800466 607.516800
   7175   7164   7182     1   107.9700462 569.024000
   7189   7191   7193     1   111.6100477 551.451200
   7191   7193   7197     1   114.2100488 537.225600
   7193   7197   7198     1   109.6600471 523.836800
   7193   7197   7199     1   109.6600471 523.836800
   7197   7198   7209     1   114.2100488 537.225600
   7197   7199   7201     1   114.2100488 537.225600
   7198   7209   7212     1   111.0400475 529.694400
   7198   7197   7199     1   109.6600471 523.836800
   7199   7201   7205     1   111.0400475 529.694400
   7201   7205   7206     1   123.2000528 564.003200
   7201   7205   7237     1   112.2600482 538.062400
   7205   7237   7218     1   118.5150508 540.957728
   7206   7205   7237     1   118.8300510 581.576000
   7209   7212   7213     1   123.2000528 564.003200
   7209   7212   7261     1   112.2600482 538.062400
   7212   7261   7242     1   118.5150508 540.957728
   7213   7212   7261     1   118.8300510 581.576000
   7214   7215   7217     1   111.5100476 526.347200
   7214   7215   7235     1   110.1900474 564.840000
   7214   7225   7230     1   110.1900474 564.840000
   7214   7232   7219     1   112.4800480 524.673600
   7215   7217   7218     1   111.5100476 526.347200
   7215   7217   7224     1   110.1900474 564.840000
   7215   7214   7225     1   111.5100476 526.347200
   7215   7214   7232     1   107.9700462 569.024000
   7217   7218   7219     1   111.5100476 526.347200
   7217   7218   7237     1   111.0400475 552.288000
   7217   7215   7235     1   110.1900474 564.840000
   7218   7219   7223     1   110.1900474 564.840000
   7218   7219   7232     1   107.9700462 569.024000
   7218   7217   7224     1   110.1900474 564.840000
   7219   7218   7237     1   111.0400475 552.288000
   7223   7219   7232     1   109.3800466 607.516800
   7225   7214   7232     1   107.9700462 569.024000
   7238   7239   7241     1   111.5100476 526.347200
   7238   7239   7259     1   110.1900474 564.840000
   7238   7249   7254     1   110.1900474 564.840000
   7238   7256   7243     1   112.4800480 524.673600
   7239   7241   7242     1   111.5100476 526.347200
   7239   7241   7248     1   110.1900474 564.840000
   7239   7238   7249     1   111.5100476 526.347200
   7239   7238   7256     1   107.9700462 569.024000
   7241   7242   7243     1   111.5100476 526.347200
   7241   7242   7261     1   111.0400475 552.288000
   7241   7239   7259     1   110.1900474 564.840000
   7242   7243   7247     1   110.1900474 564.840000
   7242   7243   7256     1   107.9700462 569.024000
   7242   7241   7248     1   110.1900474 564.840000
   7243   7242   7261     1   111.0400475 552.288000
   7247   7243   7256     1   109.3800466 607.516800
   7249   7238   7256     1   107.9700462 569.024000
   7263   7265   7267     1   111.6100477 551.451200
   7265   7267   7271     1   114.2100488 537.225600
   7267   7271   7272     1   109.6600471 523.836800
   7267   7271   7273     1   109.6600471 523.836800
   7271   7272   7283     1   114.2100488 537.225600
   7271   7273   7275     1   114.2100488 537.225600
   7272   7271   7273     1   109.6600471 523.836800
   7272   7283   7286     1   111.0400475 529.694400
   7273   7275   7279     1   111.0400475 529.694400
   7275   7279   7280     1   123.2000528 564.003200
   7275   7279   7311     1   112.2600482 538.062400
   7279   7311   7292     1   118.5150508 540.957728
   7280   7279   7311     1   118.8300510 581.576000
   7283   7286   7287     1   123.2000528 564.003200
   7283   7286   7335     1   112.2600482 538.062400
   7286   7335   7316     1   118.5150508 540.957728
   7287   7286   7335     1   118.8300510 581.576000
   7288   7289   7291     1   111.5100476 526.347200
   7288   7289   7309     1   110.1900474 564.840000
   7288   7299   7304     1   110.1900474 564.840000
   7288   7306   7293     1   112.4800480 524.673600
   7289   7288   7299     1   111.5100476 526.347200
   7289   7288   7306     1   107.9700462 569.024000
   7289   7291   7292     1   111.5100476 526.347200
   7289   7291   7298     1   110.1900474 564.840000
   7291   7289   7309     1   110.1900474 564.840000
   7291   7292   7293     1   111.5100476 526.347200
   7291   7292   7311     1   111.0400475 552.288000
   7292   7291   7298     1   110.1900474 564.840000
   7292   7293   7297     1   110.1900474 564.840000
   7292   7293   7306     1   107.9700462 569.024000
   7293   7292   7311     1   111.0400475 552.288000
   7297   7293   7306     1   109.3800466 607.516800
   7299   7288   7306     1   107.9700462 569.024000
   7312   7313   7315     1   111.5100476 526.347200
   7312   7313   7333     1   110.1900474 564.840000
   7312   7323   7328     1   110.1900474 564.840000
   7312   7330   7317     1   112.4800480 524.673600
   7313   7312   7323     1   111.5100476 526.347200
   7313   7312   7330     1   107.9700462 569.024000
   7313   7315   7316     1   111.5100476 526.347200
   7313   7315   7322     1   110.1900474 564.840000
   7315   7313   7333     1   110.1900474 564.840000
   7315   7316   7317     1   111.5100476 526.347200
   7315   7316   7335     1   111.0400475 552.288000
   7316   7315   7322     1   110.1900474 564.840000
   7316   7317   7321     1   110.1900474 564.840000
   7316   7317   7330     1   107.9700462 569.024000
   7317   7316   7335     1   111.0400475 552.288000
   7321   7317   7330     1   109.3800466 607.516800
   7323   7312   7330     1   107.9700462 569.024000
   7337   7339   7341     1   111.6100477 551.451200
   7339   7341   7345     1   114.2100488 537.225600
   7341   7345   7346     1   109.6600471 523.836800
   7341   7345   7347     1   109.6600471 523.836800
   7345   7346   7357     1   114.2100488 537.225600
   7345   7347   7349     1   114.2100488 537.225600
   7346   7357   7360     1   111.0400475 529.694400
   7346   7345   7347     1   109.6600471 523.836800
   7347   7349   7353     1   111.0400475 529.694400
   7349   7353   7354     1   123.2000528 564.003200
   7349   7353   7385     1   112.2600482 538.062400
   7353   7385   7366     1   118.5150508 540.957728
   7354   7353   7385     1   118.8300510 581.576000
   7357   7360   7361     1   123.2000528 564.003200
   7357   7360   7409     1   112.2600482 538.062400
   7360   7409   7390     1   118.5150508 540.957728
   7361   7360   7409     1   118.8300510 581.576000
   7362   7363   7365     1   111.5100476 526.347200
   7362   7363   7383     1   110.1900474 564.840000
   7362   7373   7378     1   110.1900474 564.840000
   7362   7380   7367     1   112.4800480 524.673600
   7363   7365   7366     1   111.5100476 526.347200
   7363   7365   7372     1   110.1900474 564.840000
   7363   7362   7373     1   111.5100476 526.347200
   7363   7362   7380     1   107.9700462 569.024000
   7365   7366   7367     1   111.5100476 526.347200
   7365   7366   7385     1   111.0400475 552.288000
   7365   7363   7383     1   110.1900474 564.840000
   7366   7367   7371     1   110.1900474 564.840000
   7366   7367   7380     1   107.9700462 569.024000
   7366   7365   7372     1   110.1900474 564.840000
   7367   7366   7385     1   111.0400475 552.288000
   7371   7367   7380     1   109.3800466 607.516800
   7373   7362   7380     1   107.9700462 569.024000
   7386   7387   7389     1   111.5100476 526.347200
   7386   7387   7407     1   110.1900474 564.840000
   7386   7397   7402     1   110.1900474 564.840000
   7386   7404   7391     1   112.4800480 524.673600
   7387   7389   7390     1   111.5100476 526.347200
   7387   7389   7396     1   110.1900474 564.840000
   7387   7386   7397     1   111.5100476 526.347200
   7387   7386   7404     1   107.9700462 569.024000
   7389   7390   7391     1   111.5100476 526.347200
   7389   7390   7409     1   111.0400475 552.288000
   7389   7387   7407     1   110.1900474 564.840000
   7390   7391   7395     1   110.1900474 564.840000
   7390   7391   7404     1   107.9700462 569.024000
   7390   7389   7396     1   110.1900474 564.840000
   7391   7390   7409     1   111.0400475 552.288000
   7395   7391   7404     1   109.3800466 607.516800
   7397   7386   7404     1   107.9700462 569.024000
   7411   7413   7415     1   111.6100477 551.451200
   7413   7415   7419     1   114.2100488 537.225600
   7415   7419   7420     1   109.6600471 523.836800
   7415   7419   7421     1   109.6600471 523.836800
   7419   7420   7431     1   114.2100488 537.225600
   7419   7421   7423     1   114.2100488 537.225600
   7420   7419   7421     1   109.6600471 523.836800
   7420   7431   7434     1   111.0400475 529.694400
   7421   7423   7427     1   111.0400475 529.694400
   7423   7427   7428     1   123.2000528 564.003200
   7423   7427   7459     1   112.2600482 538.062400
   7427   7459   7440     1   118.5150508 540.957728
   7428   7427   7459     1   118.8300510 581.576000
   7431   7434   7435     1   123.2000528 564.003200
   7431   7434   7483     1   112.2600482 538.062400
   7434   7483   7464     1   118.5150508 540.957728
   7435   7434   7483     1   118.8300510 581.576000
   7436   7437   7439     1   111.5100476 526.347200
   7436   7437   7457     1   110.1900474 564.840000
   7436   7447   7452     1   110.1900474 564.840000
   7436   7454   7441     1   112.4800480 524.673600
   7437   7436   7447     1   111.5100476 526.347200
   7437   7436   7454     1   107.9700462 569.024000
   7437   7439   7440     1   111.5100476 526.347200
   7437   7439   7446     1   110.1900474 564.840000
   7439   7437   7457     1   110.1900474 564.840000
   7439   7440   7441     1   111.5100476 526.347200
   7439   7440   7459     1   111.0400475 552.288000
   7440   7439   7446     1   110.1900474 564.840000
   7440   7441   7445     1   110.1900474 564.840000
   7440   7441   7454     1   107.9700462 569.024000
   7441   7440   7459     1   111.0400475 552.288000
   7445   7441   7454     1   109.3800466 607.516800
   7447   7436   7454     1   107.9700462 569.024000
   7460   7461   7463     1   111.5100476 526.347200
   7460   7461   7481     1   110.1900474 564.840000
   7460   7471   7476     1   110.1900474 564.840000
   7460   7478   7465     1   112.4800480 524.673600
   7461   7460   7471     1   111.5100476 526.347200
   7461   7460   7478     1   107.9700462 569.024000
   7461   7463   7464     1   111.5100476 526.347200
   7461   7463   7470     1   110.1900474 564.840000
   7463   7461   7481     1   110.1900474 564.840000
   7463   7464   7465     1   111.5100476 526.347200
   7463   7464   7483     1   111.0400475 552.288000
   7464   7463   7470     1   110.1900474 564.840000
   7464   7465   7469     1   110.1900474 564.840000
   7464   7465   7478     1   107.9700462 569.024000
   7465   7464   7483     1   111.0400475 552.288000
   7469   7465   7478     1   109.3800466 607.516800
   7471   7460   7478     1   107.9700462 569.024000
   7485   7487   7489     1   111.6100477 551.451200
   7487   7489   7493     1   114.2100488 537.225600
   7489   7493   7494     1   109.6600471 523.836800
   7489   7493   7495     1   109.6600471 523.836800
   7493   7494   7505     1   114.2100488 537.225600
   7493   7495   7497     1   114.2100488 537.225600
   7494   7505   7508     1   111.0400475 529.694400
   7494   7493   7495     1   109.6600471 523.836800
   7495   7497   7501     1   111.0400475 529.694400
   7497   7501   7502     1   123.2000528 564.003200
   7497   7501   7533     1   112.2600482 538.062400
   7501   7533   7514     1   118.5150508 540.957728
   7502   7501   7533     1   118.8300510 581.576000
   7505   7508   7509     1   123.2000528 564.003200
   7505   7508   7557     1   112.2600482 538.062400
   7508   7557   7538     1   118.5150508 540.957728
   7509   7508   7557     1   118.8300510 581.576000
   7510   7511   7513     1   111.5100476 526.347200
   7510   7511   7531     1   110.1900474 564.840000
   7510   7521   7526     1   110.1900474 564.840000
   7510   7528   7515     1   112.4800480 524.673600
   7511   7513   7514     1   111.5100476 526.347200
   7511   7513   7520     1   110.1900474 564.840000
   7511   7510   7521     1   111.5100476 526.347200
   7511   7510   7528     1   107.9700462 569.024000
   7513   7514   7515     1   111.5100476 526.347200
   7513   7514   7533     1   111.0400475 552.288000
   7513   7511   7531     1   110.1900474 564.840000
   7514   7515   7519     1   110.1900474 564.840000
   7514   7515   7528     1   107.9700462 569.024000
   7514   7513   7520     1   110.1900474 564.840000
   7515   7514   7533     1   111.0400475 552.288000
   7519   7515   7528     1   109.3800466 607.516800
   7521   7510   7528     1   107.9700462 569.024000
   7534   7535   7537     1   111.5100476 526.347200
   7534   7535   7555     1   110.1900474 564.840000
   7534   7545   7550     1   110.1900474 564.840000
   7534   7552   7539     1   112.4800480 524.673600
   7535   7537   7538     1   111.5100476 526.347200
   7535   7537   7544     1   110.1900474 564.840000
   7535   7534   7545     1   111.5100476 526.347200
   7535   7534   7552     1   107.9700462 569.024000
   7537   7538   7539     1   111.5100476 526.347200
   7537   7538   7557     1   111.0400475 552.288000
   7537   7535   7555     1   110.1900474 564.840000
   7538   7539   7543     1   110.1900474 564.840000
   7538   7539   7552     1   107.9700462 569.024000
   7538   7537   7544     1   110.1900474 564.840000
   7539   7538   7557     1   111.0400475 552.288000
   7543   7539   7552     1   109.3800466 607.516800
   7545   7534   7552     1   107.9700462 569.024000
   7559   7561   7563     1   111.6100477 551.451200
   7561   7563   7567     1   114.2100488 537.225600
   7563   7567   7568     1   109.6600471 523.836800
   7563   7567   7569     1   109.6600471 523.836800
   7567   7568   7579     1   114.2100488 537.225600
   7567   7569   7571     1   114.2100488 537.225600
   7568   7567   7569     1   109.6600471 523.836800
   7568   7579   7582     1   111.0400475 529.694400
   7569   7571   7575     1   111.0400475 529.694400
   7571   7575   7576     1   123.2000528 564.003200
   7571   7575   7607     1   112.2600482 538.062400
   7575   7607   7588     1   118.5150508 540.957728
   7576   7575   7607     1   118.8300510 581.576000
   7579   7582   7583     1   123.2000528 564.003200
   7579   7582   7631     1   112.2600482 538.062400
   7582   7631   7612     1   118.5150508 540.957728
   7583   7582   7631     1   118.8300510 581.576000
   7584   7585   7587     1   111.5100476 526.347200
   7584   7585   7605     1   110.1900474 564.840000
   7584   7595   7600     1   110.1900474 564.840000
   7584   7602   7589     1   112.4800480 524.673600
   7585   7584   7595     1   111.5100476 526.347200
   7585   7584   7602     1   107.9700462 569.024000
   7585   7587   7588     1   111.5100476 526.347200
   7585   7587   7594     1   110.1900474 564.840000
   7587   7585   7605     1   110.1900474 564.840000
   7587   7588   7589     1   111.5100476 526.347200
   7587   7588   7607     1   111.0400475 552.288000
   7588   7587   7594     1   110.1900474 564.840000
   7588   7589   7593     1   110.1900474 564.840000
   7588   7589   7602     1   107.9700462 569.024000
   7589   7588   7607     1   111.0400475 552.288000
   7593   7589   7602     1   109.3800466 607.516800
   7595   7584   7602     1   107.9700462 569.024000
   7608   7609   7611     1   111.5100476 526.347200
   7608   7609   7629     1   110.1900474 564.840000
   7608   7619   7624     1   110.1900474 564.840000
   7608   7626   7613     1   112.4800480 524.673600
   7609   7608   7619     1   111.5100476 526.347200
   7609   7608   7626     1   107.9700462 569.024000
   7609   7611   7612     1   111.5100476 526.347200
   7609   7611   7618     1   110.1900474 564.840000
   7611   7609   7629     1   110.1900474 564.840000
   7611   7612   7613     1   111.5100476 526.347200
   7611   7612   7631     1   111.0400475 552.288000
   7612   7611   7618     1   110.1900474 564.840000
   7612   7613   7617     1   110.1900474 564.840000
   7612   7613   7626     1   107.9700462 569.024000
   7613   7612   7631     1   111.0400475 552.288000
   7617   7613   7626     1   109.3800466 607.516800
   7619   7608   7626     1   107.9700462 569.024000
   7633   7635   7637     1   111.6100477 551.451200
   7635   7637   7641     1   114.2100488 537.225600
   7637   7641   7642     1   109.6600471 523.836800
   7637   7641   7643     1   109.6600471 523.836800
   7641   7642   7653     1   114.2100488 537.225600
   7641   7643   7645     1   114.2100488 537.225600
   7642   7653   7656     1   111.0400475 529.694400
   7642   7641   7643     1   109.6600471 523.836800
   7643   7645   7649     1   111.0400475 529.694400
   7645   7649   7650     1   123.2000528 564.003200
   7645   7649   7681     1   112.2600482 538.062400
   7649   7681   7662     1   118.5150508 540.957728
   7650   7649   7681     1   118.8300510 581.576000
   7653   7656   7657     1   123.2000528 564.003200
   7653   7656   7705     1   112.2600482 538.062400
   7656   7705   7686     1   118.5150508 540.957728
   7657   7656   7705     1   118.8300510 581.576000
   7658   7659   7661     1   111.5100476 526.347200
   7658   7659   7679     1   110.1900474 564.840000
   7658   7669   7674     1   110.1900474 564.840000
   7658   7676   7663     1   112.4800480 524.673600
   7659   7661   7662     1   111.5100476 526.347200
   7659   7661   7668     1   110.1900474 564.840000
   7659   7658   7669     1   111.5100476 526.347200
   7659   7658   7676     1   107.9700462 569.024000
   7661   7662   7663     1   111.5100476 526.347200
   7661   7662   7681     1   111.0400475 552.288000
   7661   7659   7679     1   110.1900474 564.840000
   7662   7663   7667     1   110.1900474 564.840000
   7662   7663   7676     1   107.9700462 569.024000
   7662   7661   7668     1   110.1900474 564.840000
   7663   7662   7681     1   111.0400475 552.288000
   7667   7663   7676     1   109.3800466 607.516800
   7669   7658   7676     1   107.9700462 569.024000
   7682   7683   7685     1   111.5100476 526.347200
   7682   7683   7703     1   110.1900474 564.840000
   7682   7693   7698     1   110.1900474 564.840000
   7682   7700   7687     1   112.4800480 524.673600
   7683   7685   7686     1   111.5100476 526.347200
   7683   7685   7692     1   110.1900474 564.840000
   7683   7682   7693     1   111.5100476 526.347200
   7683   7682   7700     1   107.9700462 569.024000
   7685   7686   7687     1   111.5100476 526.347200
   7685   7686   7705     1   111.0400475 552.288000
   7685   7683   7703     1   110.1900474 564.840000
   7686   7687   7691     1   110.1900474 564.840000
   7686   7687   7700     1   107.9700462 569.024000
   7686   7685   7692     1   110.1900474 564.840000
   7687   7686   7705     1   111.0400475 552.288000
   7691   7687   7700     1   109.3800466 607.516800
   7693   7682   7700     1   107.9700462 569.024000
   7707   7709   7711     1   111.6100477 551.451200
   7709   7711   7715     1   114.2100488 537.225600
   7711   7715   7716     1   109.6600471 523.836800
   7711   7715   7717     1   109.6600471 523.836800
   7715   7716   7727     1   114.2100488 537.225600
   7715   7717   7719     1   114.2100488 537.225600
   7716   7715   7717     1   109.6600471 523.836800
   7716   7727   7730     1   111.0400475 529.694400
   7717   7719   7723     1   111.0400475 529.694400
   7719   7723   7724     1   123.2000528 564.003200
   7719   7723   7755     1   112.2600482 538.062400
   7723   7755   7736     1   118.5150508 540.957728
   7724   7723   7755     1   118.8300510 581.576000
   7727   7730   7731     1   123.2000528 564.003200
   7727   7730   7779     1   112.2600482 538.062400
   7730   7779   7760     1   118.5150508 540.957728
   7731   7730   7779     1   118.8300510 581.576000
   7732   7733   7735     1   111.5100476 526.347200
   7732   7733   7753     1   110.1900474 564.840000
   7732   7743   7748     1   110.1900474 564.840000
   7732   7750   7737     1   112.4800480 524.673600
   7733   7732   7743     1   111.5100476 526.347200
   7733   7732   7750     1   107.9700462 569.024000
   7733   7735   7736     1   111.5100476 526.347200
   7733   7735   7742     1   110.1900474 564.840000
   7735   7733   7753     1   110.1900474 564.840000
   7735   7736   7737     1   111.5100476 526.347200
   7735   7736   7755     1   111.0400475 552.288000
   7736   7735   7742     1   110.1900474 564.840000
   7736   7737   7741     1   110.1900474 564.840000
   7736   7737   7750     1   107.9700462 569.024000
   7737   7736   7755     1   111.0400475 552.288000
   7741   7737   7750     1   109.3800466 607.516800
   7743   7732   7750     1   107.9700462 569.024000
   7756   7757   7759     1   111.5100476 526.347200
   7756   7757   7777     1   110.1900474 564.840000
   7756   7767   7772     1   110.1900474 564.840000
   7756   7774   7761     1   112.4800480 524.673600
   7757   7756   7767     1   111.5100476 526.347200
   7757   7756   7774     1   107.9700462 569.024000
   7757   7759   7760     1   111.5100476 526.347200
   7757   7759   7766     1   110.1900474 564.840000
   7759   7757   7777     1   110.1900474 564.840000
   7759   7760   7761     1   111.5100476 526.347200
   7759   7760   7779     1   111.0400475 552.288000
   7760   7759   7766     1   110.1900474 564.840000
   7760   7761   7765     1   110.1900474 564.840000
   7760   7761   7774     1   107.9700462 569.024000
   7761   7760   7779     1   111.0400475 552.288000
   7765   7761   7774     1   109.3800466 607.516800
   7767   7756   7774     1   107.9700462 569.024000
   7781   7783   7785     1   111.6100477 551.451200
   7783   7785   7789     1   114.2100488 537.225600
   7785   7789   7790     1   109.6600471 523.836800
   7785   7789   7791     1   109.6600471 523.836800
   7789   7790   7801     1   114.2100488 537.225600
   7789   7791   7793     1   114.2100488 537.225600
   7790   7801   7804     1   111.0400475 529.694400
   7790   7789   7791     1   109.6600471 523.836800
   7791   7793   7797     1   111.0400475 529.694400
   7793   7797   7798     1   123.2000528 564.003200
   7793   7797   7829     1   112.2600482 538.062400
   7797   7829   7810     1   118.5150508 540.957728
   7798   7797   7829     1   118.8300510 581.576000
   7801   7804   7805     1   123.2000528 564.003200
   7801   7804   7853     1   112.2600482 538.062400
   7804   7853   7834     1   118.5150508 540.957728
   7805   7804   7853     1   118.8300510 581.576000
   7806   7807   7809     1   111.5100476 526.347200
   7806   7807   7827     1   110.1900474 564.840000
   7806   7817   7822     1   110.1900474 564.840000
   7806   7824   7811     1   112.4800480 524.673600
   7807   7809   7810     1   111.5100476 526.347200
   7807   7809   7816     1   110.1900474 564.840000
   7807   7806   7817     1   111.5100476 526.347200
   7807   7806   7824     1   107.9700462 569.024000
   7809   7810   7811     1   111.5100476 526.347200
   7809   7810   7829     1   111.0400475 552.288000
   7809   7807   7827     1   110.1900474 564.840000
   7810   7811   7815     1   110.1900474 564.840000
   7810   7811   7824     1   107.9700462 569.024000
   7810   7809   7816     1   110.1900474 564.840000
   7811   7810   7829     1   111.0400475 552.288000
   7815   7811   7824     1   109.3800466 607.516800
   7817   7806   7824     1   107.9700462 569.024000
   7830   7831   7833     1   111.5100476 526.347200
   7830   7831   7851     1   110.1900474 564.840000
   7830   7841   7846     1   110.1900474 564.840000
   7830   7848   7835     1   112.4800480 524.673600
   7831   7833   7834     1   111.5100476 526.347200
   7831   7833   7840     1   110.1900474 564.840000
   7831   7830   7841     1   111.5100476 526.347200
   7831   7830   7848     1   107.9700462 569.024000
   7833   7834   7835     1   111.5100476 526.347200
   7833   7834   7853     1   111.0400475 552.288000
   7833   7831   7851     1   110.1900474 564.840000
   7834   7835   7839     1   110.1900474 564.840000
   7834   7835   7848     1   107.9700462 569.024000
   7834   7833   7840     1   110.1900474 564.840000
   7835   7834   7853     1   111.0400475 552.288000
   7839   7835   7848     1   109.3800466 607.516800
   7841   7830   7848     1   107.9700462 569.024000
   7855   7857   7859     1   111.6100477 551.451200
   7857   7859   7863     1   114.2100488 537.225600
   7859   7863   7864     1   109.6600471 523.836800
   7859   7863   7865     1   109.6600471 523.836800
   7863   7864   7875     1   114.2100488 537.225600
   7863   7865   7867     1   114.2100488 537.225600
   7864   7863   7865     1   109.6600471 523.836800
   7864   7875   7878     1   111.0400475 529.694400
   7865   7867   7871     1   111.0400475 529.694400
   7867   7871   7872     1   123.2000528 564.003200
   7867   7871   7903     1   112.2600482 538.062400
   7871   7903   7884     1   118.5150508 540.957728
   7872   7871   7903     1   118.8300510 581.576000
   7875   7878   7879     1   123.2000528 564.003200
   7875   7878   7927     1   112.2600482 538.062400
   7878   7927   7908     1   118.5150508 540.957728
   7879   7878   7927     1   118.8300510 581.576000
   7880   7881   7883     1   111.5100476 526.347200
   7880   7881   7901     1   110.1900474 564.840000
   7880   7891   7896     1   110.1900474 564.840000
   7880   7898   7885     1   112.4800480 524.673600
   7881   7880   7891     1   111.5100476 526.347200
   7881   7880   7898     1   107.9700462 569.024000
   7881   7883   7884     1   111.5100476 526.347200
   7881   7883   7890     1   110.1900474 564.840000
   7883   7881   7901     1   110.1900474 564.840000
   7883   7884   7885     1   111.5100476 526.347200
   7883   7884   7903     1   111.0400475 552.288000
   7884   7883   7890     1   110.1900474 564.840000
   7884   7885   7889     1   110.1900474 564.840000
   7884   7885   7898     1   107.9700462 569.024000
   7885   7884   7903     1   111.0400475 552.288000
   7889   7885   7898     1   109.3800466 607.516800
   7891   7880   7898     1   107.9700462 569.024000
   7904   7905   7907     1   111.5100476 526.347200
   7904   7905   7925     1   110.1900474 564.840000
   7904   7915   7920     1   110.1900474 564.840000
   7904   7922   7909     1   112.4800480 524.673600
   7905   7904   7915     1   111.5100476 526.347200
   7905   7904   7922     1   107.9700462 569.024000
   7905   7907   7908     1   111.5100476 526.347200
   7905   7907   7914     1   110.1900474 564.840000
   7907   7905   7925     1   110.1900474 564.840000
   7907   7908   7909     1   111.5100476 526.347200
   7907   7908   7927     1   111.0400475 552.288000
   7908   7907   7914     1   110.1900474 564.840000
   7908   7909   7913     1   110.1900474 564.840000
   7908   7909   7922     1   107.9700462 569.024000
   7909   7908   7927     1   111.0400475 552.288000
   7913   7909   7922     1   109.3800466 607.516800
   7915   7904   7922     1   107.9700462 569.024000
   7929   7931   7933     1   111.6100477 551.451200
   7931   7933   7937     1   114.2100488 537.225600
   7933   7937   7938     1   109.6600471 523.836800
   7933   7937   7939     1   109.6600471 523.836800
   7937   7938   7949     1   114.2100488 537.225600
   7937   7939   7941     1   114.2100488 537.225600
   7938   7949   7952     1   111.0400475 529.694400
   7938   7937   7939     1   109.6600471 523.836800
   7939   7941   7945     1   111.0400475 529.694400
   7941   7945   7946     1   123.2000528 564.003200
   7941   7945   7977     1   112.2600482 538.062400
   7945   7977   7958     1   118.5150508 540.957728
   7946   7945   7977     1   118.8300510 581.576000
   7949   7952   7953     1   123.2000528 564.003200
   7949   7952   8001     1   112.2600482 538.062400
   7952   8001   7982     1   118.5150508 540.957728
   7953   7952   8001     1   118.8300510 581.576000
   7954   7955   7957     1   111.5100476 526.347200
   7954   7955   7975     1   110.1900474 564.840000
   7954   7965   7970     1   110.1900474 564.840000
   7954   7972   7959     1   112.4800480 524.673600
   7955   7957   7958     1   111.5100476 526.347200
   7955   7957   7964     1   110.1900474 564.840000
   7955   7954   7965     1   111.5100476 526.347200
   7955   7954   7972     1   107.9700462 569.024000
   7957   7958   7959     1   111.5100476 526.347200
   7957   7958   7977     1   111.0400475 552.288000
   7957   7955   7975     1   110.1900474 564.840000
   7958   7959   7963     1   110.1900474 564.840000
   7958   7959   7972     1   107.9700462 569.024000
   7958   7957   7964     1   110.1900474 564.840000
   7959   7958   7977     1   111.0400475 552.288000
   7963   7959   7972     1   109.3800466 607.516800
   7965   7954   7972     1   107.9700462 569.024000
   7978   7979   7981     1   111.5100476 526.347200
   7978   7979   7999     1   110.1900474 564.840000
   7978   7989   7994     1   110.1900474 564.840000
   7978   7996   7983     1   112.4800480 524.673600
   7979   7981   7982     1   111.5100476 526.347200
   7979   7981   7988     1   110.1900474 564.840000
   7979   7978   7989     1   111.5100476 526.347200
   7979   7978   7996     1   107.9700462 569.024000
   7981   7982   7983     1   111.5100476 526.347200
   7981   7982   8001     1   111.0400475 552.288000
   7981   7979   7999     1   110.1900474 564.840000
   7982   7983   7987     1   110.1900474 564.840000
   7982   7983   7996     1   107.9700462 569.024000
   7982   7981   7988     1   110.1900474 564.840000
   7983   7982   8001     1   111.0400475 552.288000
   7987   7983   7996     1   109.3800466 607.516800
   7989   7978   7996     1   107.9700462 569.024000
   8003   8005   8007     1   111.6100477 551.451200
   8005   8007   8011     1   114.2100488 537.225600
   8007   8011   8012     1   109.6600471 523.836800
   8007   8011   8013     1   109.6600471 523.836800
   8011   8012   8023     1   114.2100488 537.225600
   8011   8013   8015     1   114.2100488 537.225600
   8012   8011   8013     1   109.6600471 523.836800
   8012   8023   8026     1   111.0400475 529.694400
   8013   8015   8019     1   111.0400475 529.694400
   8015   8019   8020     1   123.2000528 564.003200
   8015   8019   8051     1   112.2600482 538.062400
   8019   8051   8032     1   118.5150508 540.957728
   8020   8019   8051     1   118.8300510 581.576000
   8023   8026   8027     1   123.2000528 564.003200
   8023   8026   8075     1   112.2600482 538.062400
   8026   8075   8056     1   118.5150508 540.957728
   8027   8026   8075     1   118.8300510 581.576000
   8028   8029   8031     1   111.5100476 526.347200
   8028   8029   8049     1   110.1900474 564.840000
   8028   8039   8044     1   110.1900474 564.840000
   8028   8046   8033     1   112.4800480 524.673600
   8029   8028   8039     1   111.5100476 526.347200
   8029   8028   8046     1   107.9700462 569.024000
   8029   8031   8032     1   111.5100476 526.347200
   8029   8031   8038     1   110.1900474 564.840000
   8031   8029   8049     1   110.1900474 564.840000
   8031   8032   8033     1   111.5100476 526.347200
   8031   8032   8051     1   111.0400475 552.288000
   8032   8031   8038     1   110.1900474 564.840000
   8032   8033   8037     1   110.1900474 564.840000
   8032   8033   8046     1   107.9700462 569.024000
   8033   8032   8051     1   111.0400475 552.288000
   8037   8033   8046     1   109.3800466 607.516800
   8039   8028   8046     1   107.9700462 569.024000
   8052   8053   8055     1   111.5100476 526.347200
   8052   8053   8073     1   110.1900474 564.840000
   8052   8063   8068     1   110.1900474 564.840000
   8052   8070   8057     1   112.4800480 524.673600
   8053   8052   8063     1   111.5100476 526.347200
   8053   8052   8070     1   107.9700462 569.024000
   8053   8055   8056     1   111.5100476 526.347200
   8053   8055   8062     1   110.1900474 564.840000
   8055   8053   8073     1   110.1900474 564.840000
   8055   8056   8057     1   111.5100476 526.347200
   8055   8056   8075     1   111.0400475 552.288000
   8056   8055   8062     1   110.1900474 564.840000
   8056   8057   8061     1   110.1900474 564.840000
   8056   8057   8070     1   107.9700462 569.024000
   8057   8056   8075     1   111.0400475 552.288000
   8061   8057   8070     1   109.3800466 607.516800
   8063   8052   8070     1   107.9700462 569.024000
   8077   8079   8081     1   111.6100477 551.451200
   8079   8081   8085     1   114.2100488 537.225600
   8081   8085   8086     1   109.6600471 523.836800
   8081   8085   8087     1   109.6600471 523.836800
   8085   8086   8097     1   114.2100488 537.225600
   8085   8087   8089     1   114.2100488 537.225600
   8086   8097   8100     1   111.0400475 529.694400
   8086   8085   8087     1   109.6600471 523.836800
   8087   8089   8093     1   111.0400475 529.694400
   8089   8093   8094     1   123.2000528 564.003200
   8089   8093   8125     1   112.2600482 538.062400
   8093   8125   8106     1   118.5150508 540.957728
   8094   8093   8125     1   118.8300510 581.576000
   8097   8100   8101     1   123.2000528 564.003200
   8097   8100   8149     1   112.2600482 538.062400
   8100   8149   8130     1   118.5150508 540.957728
   8101   8100   8149     1   118.8300510 581.576000
   8102   8103   8105     1   111.5100476 526.347200
   8102   8103   8123     1   110.1900474 564.840000
   8102   8113   8118     1   110.1900474 564.840000
   8102   8120   8107     1   112.4800480 524.673600
   8103   8105   8106     1   111.5100476 526.347200
   8103   8105   8112     1   110.1900474 564.840000
   8103   8102   8113     1   111.5100476 526.347200
   8103   8102   8120     1   107.9700462 569.024000
   8105   8106   8107     1   111.5100476 526.347200
   8105   8106   8125     1   111.0400475 552.288000
   8105   8103   8123     1   110.1900474 564.840000
   8106   8107   8111     1   110.1900474 564.840000
   8106   8107   8120     1   107.9700462 569.024000
   8106   8105   8112     1   110.1900474 564.840000
   8107   8106   8125     1   111.0400475 552.288000
   8111   8107   8120     1   109.3800466 607.516800
   8113   8102   8120     1   107.9700462 569.024000
   8126   8127   8129     1   111.5100476 526.347200
   8126   8127   8147     1   110.1900474 564.840000
   8126   8137   8142     1   110.1900474 564.840000
   8126   8144   8131     1   112.4800480 524.673600
   8127   8129   8130     1   111.5100476 526.347200
   8127   8129   8136     1   110.1900474 564.840000
   8127   8126   8137     1   111.5100476 526.347200
   8127   8126   8144     1   107.9700462 569.024000
   8129   8130   8131     1   111.5100476 526.347200
   8129   8130   8149     1   111.0400475 552.288000
   8129   8127   8147     1   110.1900474 564.840000
   8130   8131   8135     1   110.1900474 564.840000
   8130   8131   8144     1   107.9700462 569.024000
   8130   8129   8136     1   110.1900474 564.840000
   8131   8130   8149     1   111.0400475 552.288000
   8135   8131   8144     1   109.3800466 607.516800
   8137   8126   8144     1   107.9700462 569.024000
   8151   8153   8155     1   111.6100477 551.451200
   8153   8155   8159     1   114.2100488 537.225600
   8155   8159   8160     1   109.6600471 523.836800
   8155   8159   8161     1   109.6600471 523.836800
   8159   8160   8171     1   114.2100488 537.225600
   8159   8161   8163     1   114.2100488 537.225600
   8160   8159   8161     1   109.6600471 523.836800
   8160   8171   8174     1   111.0400475 529.694400
   8161   8163   8167     1   111.0400475 529.694400
   8163   8167   8168     1   123.2000528 564.003200
   8163   8167   8199     1   112.2600482 538.062400
   8167   8199   8180     1   118.5150508 540.957728
   8168   8167   8199     1   118.8300510 581.576000
   8171   8174   8175     1   123.2000528 564.003200
   8171   8174   8223     1   112.2600482 538.062400
   8174   8223   8204     1   118.5150508 540.957728
   8175   8174   8223     1   118.8300510 581.576000
   8176   8177   8179     1   111.5100476 526.347200
   8176   8177   8197     1   110.1900474 564.840000
   8176   8187   8192     1   110.1900474 564.840000
   8176   8194   8181     1   112.4800480 524.673600
   8177   8176   8187     1   111.5100476 526.347200
   8177   8176   8194     1   107.9700462 569.024000
   8177   8179   8180     1   111.5100476 526.347200
   8177   8179   8186     1   110.1900474 564.840000
   8179   8177   8197     1   110.1900474 564.840000
   8179   8180   8181     1   111.5100476 526.347200
   8179   8180   8199     1   111.0400475 552.288000
   8180   8179   8186     1   110.1900474 564.840000
   8180   8181   8185     1   110.1900474 564.840000
   8180   8181   8194     1   107.9700462 569.024000
   8181   8180   8199     1   111.0400475 552.288000
   8185   8181   8194     1   109.3800466 607.516800
   8187   8176   8194     1   107.9700462 569.024000
   8200   8201   8203     1   111.5100476 526.347200
   8200   8201   8221     1   110.1900474 564.840000
   8200   8211   8216     1   110.1900474 564.840000
   8200   8218   8205     1   112.4800480 524.673600
   8201   8200   8211     1   111.5100476 526.347200
   8201   8200   8218     1   107.9700462 569.024000
   8201   8203   8204     1   111.5100476 526.347200
   8201   8203   8210     1   110.1900474 564.840000
   8203   8201   8221     1   110.1900474 564.840000
   8203   8204   8205     1   111.5100476 526.347200
   8203   8204   8223     1   111.0400475 552.288000
   8204   8203   8210     1   110.1900474 564.840000
   8204   8205   8209     1   110.1900474 564.840000
   8204   8205   8218     1   107.9700462 569.024000
   8205   8204   8223     1   111.0400475 552.288000
   8209   8205   8218     1   109.3800466 607.516800
   8211   8200   8218     1   107.9700462 569.024000
   8225   8227   8229     1   111.6100477 551.451200
   8227   8229   8233     1   114.2100488 537.225600
   8229   8233   8234     1   109.6600471 523.836800
   8229   8233   8235     1   109.6600471 523.836800
   8233   8234   8245     1   114.2100488 537.225600
   8233   8235   8237     1   114.2100488 537.225600
   8234   8245   8248     1   111.0400475 529.694400
   8234   8233   8235     1   109.6600471 523.836800
   8235   8237   8241     1   111.0400475 529.694400
   8237   8241   8242     1   123.2000528 564.003200
   8237   8241   8273     1   112.2600482 538.062400
   8241   8273   8254     1   118.5150508 540.957728
   8242   8241   8273     1   118.8300510 581.576000
   8245   8248   8249     1   123.2000528 564.003200
   8245   8248   8297     1   112.2600482 538.062400
   8248   8297   8278     1   118.5150508 540.957728
   8249   8248   8297     1   118.8300510 581.576000
   8250   8251   8253     1   111.5100476 526.347200
   8250   8251   8271     1   110.1900474 564.840000
   8250   8261   8266     1   110.1900474 564.840000
   8250   8268   8255     1   112.4800480 524.673600
   8251   8253   8254     1   111.5100476 526.347200
   8251   8253   8260     1   110.1900474 564.840000
   8251   8250   8261     1   111.5100476 526.347200
   8251   8250   8268     1   107.9700462 569.024000
   8253   8254   8255     1   111.5100476 526.347200
   8253   8254   8273     1   111.0400475 552.288000
   8253   8251   8271     1   110.1900474 564.840000
   8254   8255   8259     1   110.1900474 564.840000
   8254   8255   8268     1   107.9700462 569.024000
   8254   8253   8260     1   110.1900474 564.840000
   8255   8254   8273     1   111.0400475 552.288000
   8259   8255   8268     1   109.3800466 607.516800
   8261   8250   8268     1   107.9700462 569.024000
   8274   8275   8277     1   111.5100476 526.347200
   8274   8275   8295     1   110.1900474 564.840000
   8274   8285   8290     1   110.1900474 564.840000
   8274   8292   8279     1   112.4800480 524.673600
   8275   8277   8278     1   111.5100476 526.347200
   8275   8277   8284     1   110.1900474 564.840000
   8275   8274   8285     1   111.5100476 526.347200
   8275   8274   8292     1   107.9700462 569.024000
   8277   8278   8279     1   111.5100476 526.347200
   8277   8278   8297     1   111.0400475 552.288000
   8277   8275   8295     1   110.1900474 564.840000
   8278   8279   8283     1   110.1900474 564.840000
   8278   8279   8292     1   107.9700462 569.024000
   8278   8277   8284     1   110.1900474 564.840000
   8279   8278   8297     1   111.0400475 552.288000
   8283   8279   8292     1   109.3800466 607.516800
   8285   8274   8292     1   107.9700462 569.024000
   8299   8301   8303     1   111.6100477 551.451200
   8301   8303   8307     1   114.2100488 537.225600
   8303   8307   8308     1   109.6600471 523.836800
   8303   8307   8309     1   109.6600471 523.836800
   8307   8308   8319     1   114.2100488 537.225600
   8307   8309   8311     1   114.2100488 537.225600
   8308   8307   8309     1   109.6600471 523.836800
   8308   8319   8322     1   111.0400475 529.694400
   8309   8311   8315     1   111.0400475 529.694400
   8311   8315   8316     1   123.2000528 564.003200
   8311   8315   8347     1   112.2600482 538.062400
   8315   8347   8328     1   118.5150508 540.957728
   8316   8315   8347     1   118.8300510 581.576000
   8319   8322   8323     1   123.2000528 564.003200
   8319   8322   8371     1   112.2600482 538.062400
   8322   8371   8352     1   118.5150508 540.957728
   8323   8322   8371     1   118.8300510 581.576000
   8324   8325   8327     1   111.5100476 526.347200
   8324   8325   8345     1   110.1900474 564.840000
   8324   8335   8340     1   110.1900474 564.840000
   8324   8342   8329     1   112.4800480 524.673600
   8325   8324   8335     1   111.5100476 526.347200
   8325   8324   8342     1   107.9700462 569.024000
   8325   8327   8328     1   111.5100476 526.347200
   8325   8327   8334     1   110.1900474 564.840000
   8327   8325   8345     1   110.1900474 564.840000
   8327   8328   8329     1   111.5100476 526.347200
   8327   8328   8347     1   111.0400475 552.288000
   8328   8327   8334     1   110.1900474 564.840000
   8328   8329   8333     1   110.1900474 564.840000
   8328   8329   8342     1   107.9700462 569.024000
   8329   8328   8347     1   111.0400475 552.288000
   8333   8329   8342     1   109.3800466 607.516800
   8335   8324   8342     1   107.9700462 569.024000
   8348   8349   8351     1   111.5100476 526.347200
   8348   8349   8369     1   110.1900474 564.840000
   8348   8359   8364     1   110.1900474 564.840000
   8348   8366   8353     1   112.4800480 524.673600
   8349   8348   8359     1   111.5100476 526.347200
   8349   8348   8366     1   107.9700462 569.024000
   8349   8351   8352     1   111.5100476 526.347200
   8349   8351   8358     1   110.1900474 564.840000
   8351   8349   8369     1   110.1900474 564.840000
   8351   8352   8353     1   111.5100476 526.347200
   8351   8352   8371     1   111.0400475 552.288000
   8352   8351   8358     1   110.1900474 564.840000
   8352   8353   8357     1   110.1900474 564.840000
   8352   8353   8366     1   107.9700462 569.024000
   8353   8352   8371     1   111.0400475 552.288000
   8357   8353   8366     1   109.3800466 607.516800
   8359   8348   8366     1   107.9700462 569.024000
   8373   8375   8377     1   111.6100477 551.451200
   8375   8377   8381     1   114.2100488 537.225600
   8377   8381   8382     1   109.6600471 523.836800
   8377   8381   8383     1   109.6600471 523.836800
   8381   8382   8393     1   114.2100488 537.225600
   8381   8383   8385     1   114.2100488 537.225600
   8382   8393   8396     1   111.0400475 529.694400
   8382   8381   8383     1   109.6600471 523.836800
   8383   8385   8389     1   111.0400475 529.694400
   8385   8389   8390     1   123.2000528 564.003200
   8385   8389   8421     1   112.2600482 538.062400
   8389   8421   8402     1   118.5150508 540.957728
   8390   8389   8421     1   118.8300510 581.576000
   8393   8396   8397     1   123.2000528 564.003200
   8393   8396   8445     1   112.2600482 538.062400
   8396   8445   8426     1   118.5150508 540.957728
   8397   8396   8445     1   118.8300510 581.576000
   8398   8399   8401     1   111.5100476 526.347200
   8398   8399   8419     1   110.1900474 564.840000
   8398   8409   8414     1   110.1900474 564.840000
   8398   8416   8403     1   112.4800480 524.673600
   8399   8401   8402     1   111.5100476 526.347200
   8399   8401   8408     1   110.1900474 564.840000
   8399   8398   8409     1   111.5100476 526.347200
   8399   8398   8416     1   107.9700462 569.024000
   8401   8402   8403     1   111.5100476 526.347200
   8401   8402   8421     1   111.0400475 552.288000
   8401   8399   8419     1   110.1900474 564.840000
   8402   8403   8407     1   110.1900474 564.840000
   8402   8403   8416     1   107.9700462 569.024000
   8402   8401   8408     1   110.1900474 564.840000
   8403   8402   8421     1   111.0400475 552.288000
   8407   8403   8416     1   109.3800466 607.516800
   8409   8398   8416     1   107.9700462 569.024000
   8422   8423   8425     1   111.5100476 526.347200
   8422   8423   8443     1   110.1900474 564.840000
   8422   8433   8438     1   110.1900474 564.840000
   8422   8440   8427     1   112.4800480 524.673600
   8423   8425   8426     1   111.5100476 526.347200
   8423   8425   8432     1   110.1900474 564.840000
   8423   8422   8433     1   111.5100476 526.347200
   8423   8422   8440     1   107.9700462 569.024000
   8425   8426   8427     1   111.5100476 526.347200
   8425   8426   8445     1   111.0400475 552.288000
   8425   8423   8443     1   110.1900474 564.840000
   8426   8427   8431     1   110.1900474 564.840000
   8426   8427   8440     1   107.9700462 569.024000
   8426   8425   8432     1   110.1900474 564.840000
   8427   8426   8445     1   111.0400475 552.288000
   8431   8427   8440     1   109.3800466 607.516800
   8433   8422   8440     1   107.9700462 569.024000
   8447   8449   8451     1   111.6100477 551.451200
   8449   8451   8455     1   114.2100488 537.225600
   8451   8455   8456     1   109.6600471 523.836800
   8451   8455   8457     1   109.6600471 523.836800
   8455   8456   8467     1   114.2100488 537.225600
   8455   8457   8459     1   114.2100488 537.225600
   8456   8455   8457     1   109.6600471 523.836800
   8456   8467   8470     1   111.0400475 529.694400
   8457   8459   8463     1   111.0400475 529.694400
   8459   8463   8464     1   123.2000528 564.003200
   8459   8463   8495     1   112.2600482 538.062400
   8463   8495   8476     1   118.5150508 540.957728
   8464   8463   8495     1   118.8300510 581.576000
   8467   8470   8471     1   123.2000528 564.003200
   8467   8470   8519     1   112.2600482 538.062400
   8470   8519   8500     1   118.5150508 540.957728
   8471   8470   8519     1   118.8300510 581.576000
   8472   8473   8475     1   111.5100476 526.347200
   8472   8473   8493     1   110.1900474 564.840000
   8472   8483   8488     1   110.1900474 564.840000
   8472   8490   8477     1   112.4800480 524.673600
   8473   8472   8483     1   111.5100476 526.347200
   8473   8472   8490     1   107.9700462 569.024000
   8473   8475   8476     1   111.5100476 526.347200
   8473   8475   8482     1   110.1900474 564.840000
   8475   8473   8493     1   110.1900474 564.840000
   8475   8476   8477     1   111.5100476 526.347200
   8475   8476   8495     1   111.0400475 552.288000
   8476   8475   8482     1   110.1900474 564.840000
   8476   8477   8481     1   110.1900474 564.840000
   8476   8477   8490     1   107.9700462 569.024000
   8477   8476   8495     1   111.0400475 552.288000
   8481   8477   8490     1   109.3800466 607.516800
   8483   8472   8490     1   107.9700462 569.024000
   8496   8497   8499     1   111.5100476 526.347200
   8496   8497   8517     1   110.1900474 564.840000
   8496   8507   8512     1   110.1900474 564.840000
   8496   8514   8501     1   112.4800480 524.673600
   8497   8496   8507     1   111.5100476 526.347200
   8497   8496   8514     1   107.9700462 569.024000
   8497   8499   8500     1   111.5100476 526.347200
   8497   8499   8506     1   110.1900474 564.840000
   8499   8497   8517     1   110.1900474 564.840000
   8499   8500   8501     1   111.5100476 526.347200
   8499   8500   8519     1   111.0400475 552.288000
   8500   8499   8506     1   110.1900474 564.840000
   8500   8501   8505     1   110.1900474 564.840000
   8500   8501   8514     1   107.9700462 569.024000
   8501   8500   8519     1   111.0400475 552.288000
   8505   8501   8514     1   109.3800466 607.516800
   8507   8496   8514     1   107.9700462 569.024000
   8521   8523   8525     1   111.6100477 551.451200
   8523   8525   8529     1   114.2100488 537.225600
   8525   8529   8530     1   109.6600471 523.836800
   8525   8529   8531     1   109.6600471 523.836800
   8529   8530   8541     1   114.2100488 537.225600
   8529   8531   8533     1   114.2100488 537.225600
   8530   8541   8544     1   111.0400475 529.694400
   8530   8529   8531     1   109.6600471 523.836800
   8531   8533   8537     1   111.0400475 529.694400
   8533   8537   8538     1   123.2000528 564.003200
   8533   8537   8569     1   112.2600482 538.062400
   8537   8569   8550     1   118.5150508 540.957728
   8538   8537   8569     1   118.8300510 581.576000
   8541   8544   8545     1   123.2000528 564.003200
   8541   8544   8593     1   112.2600482 538.062400
   8544   8593   8574     1   118.5150508 540.957728
   8545   8544   8593     1   118.8300510 581.576000
   8546   8547   8549     1   111.5100476 526.347200
   8546   8547   8567     1   110.1900474 564.840000
   8546   8557   8562     1   110.1900474 564.840000
   8546   8564   8551     1   112.4800480 524.673600
   8547   8549   8550     1   111.5100476 526.347200
   8547   8549   8556     1   110.1900474 564.840000
   8547   8546   8557     1   111.5100476 526.347200
   8547   8546   8564     1   107.9700462 569.024000
   8549   8550   8551     1   111.5100476 526.347200
   8549   8550   8569     1   111.0400475 552.288000
   8549   8547   8567     1   110.1900474 564.840000
   8550   8551   8555     1   110.1900474 564.840000
   8550   8551   8564     1   107.9700462 569.024000
   8550   8549   8556     1   110.1900474 564.840000
   8551   8550   8569     1   111.0400475 552.288000
   8555   8551   8564     1   109.3800466 607.516800
   8557   8546   8564     1   107.9700462 569.024000
   8570   8571   8573     1   111.5100476 526.347200
   8570   8571   8591     1   110.1900474 564.840000
   8570   8581   8586     1   110.1900474 564.840000
   8570   8588   8575     1   112.4800480 524.673600
   8571   8573   8574     1   111.5100476 526.347200
   8571   8573   8580     1   110.1900474 564.840000
   8571   8570   8581     1   111.5100476 526.347200
   8571   8570   8588     1   107.9700462 569.024000
   8573   8574   8575     1   111.5100476 526.347200
   8573   8574   8593     1   111.0400475 552.288000
   8573   8571   8591     1   110.1900474 564.840000
   8574   8575   8579     1   110.1900474 564.840000
   8574   8575   8588     1   107.9700462 569.024000
   8574   8573   8580     1   110.1900474 564.840000
   8575   8574   8593     1   111.0400475 552.288000
   8579   8575   8588     1   109.3800466 607.516800
   8581   8570   8588     1   107.9700462 569.024000
   8595   8597   8599     1   111.6100477 551.451200
   8597   8599   8603     1   114.2100488 537.225600
   8599   8603   8604     1   109.6600471 523.836800
   8599   8603   8605     1   109.6600471 523.836800
   8603   8604   8615     1   114.2100488 537.225600
   8603   8605   8607     1   114.2100488 537.225600
   8604   8603   8605     1   109.6600471 523.836800
   8604   8615   8618     1   111.0400475 529.694400
   8605   8607   8611     1   111.0400475 529.694400
   8607   8611   8612     1   123.2000528 564.003200
   8607   8611   8643     1   112.2600482 538.062400
   8611   8643   8624     1   118.5150508 540.957728
   8612   8611   8643     1   118.8300510 581.576000
   8615   8618   8619     1   123.2000528 564.003200
   8615   8618   8667     1   112.2600482 538.062400
   8618   8667   8648     1   118.5150508 540.957728
   8619   8618   8667     1   118.8300510 581.576000
   8620   8621   8623     1   111.5100476 526.347200
   8620   8621   8641     1   110.1900474 564.840000
   8620   8631   8636     1   110.1900474 564.840000
   8620   8638   8625     1   112.4800480 524.673600
   8621   8620   8631     1   111.5100476 526.347200
   8621   8620   8638     1   107.9700462 569.024000
   8621   8623   8624     1   111.5100476 526.347200
   8621   8623   8630     1   110.1900474 564.840000
   8623   8621   8641     1   110.1900474 564.840000
   8623   8624   8625     1   111.5100476 526.347200
   8623   8624   8643     1   111.0400475 552.288000
   8624   8623   8630     1   110.1900474 564.840000
   8624   8625   8629     1   110.1900474 564.840000
   8624   8625   8638     1   107.9700462 569.024000
   8625   8624   8643     1   111.0400475 552.288000
   8629   8625   8638     1   109.3800466 607.516800
   8631   8620   8638     1   107.9700462 569.024000
   8644   8645   8647     1   111.5100476 526.347200
   8644   8645   8665     1   110.1900474 564.840000
   8644   8655   8660     1   110.1900474 564.840000
   8644   8662   8649     1   112.4800480 524.673600
   8645   8644   8655     1   111.5100476 526.347200
   8645   8644   8662     1   107.9700462 569.024000
   8645   8647   8648     1   111.5100476 526.347200
   8645   8647   8654     1   110.1900474 564.840000
   8647   8645   8665     1   110.1900474 564.840000
   8647   8648   8649     1   111.5100476 526.347200
   8647   8648   8667     1   111.0400475 552.288000
   8648   8647   8654     1   110.1900474 564.840000
   8648   8649   8653     1   110.1900474 564.840000
   8648   8649   8662     1   107.9700462 569.024000
   8649   8648   8667     1   111.0400475 552.288000
   8653   8649   8662     1   109.3800466 607.516800
   8655   8644   8662     1   107.9700462 569.024000
   8669   8671   8673     1   111.6100477 551.451200
   8671   8673   8677     1   114.2100488 537.225600
   8673   8677   8678     1   109.6600471 523.836800
   8673   8677   8679     1   109.6600471 523.836800
   8677   8678   8689     1   114.2100488 537.225600
   8677   8679   8681     1   114.2100488 537.225600
   8678   8689   8692     1   111.0400475 529.694400
   8678   8677   8679     1   109.6600471 523.836800
   8679   8681   8685     1   111.0400475 529.694400
   8681   8685   8686     1   123.2000528 564.003200
   8681   8685   8717     1   112.2600482 538.062400
   8685   8717   8698     1   118.5150508 540.957728
   8686   8685   8717     1   118.8300510 581.576000
   8689   8692   8693     1   123.2000528 564.003200
   8689   8692   8741     1   112.2600482 538.062400
   8692   8741   8722     1   118.5150508 540.957728
   8693   8692   8741     1   118.8300510 581.576000
   8694   8695   8697     1   111.5100476 526.347200
   8694   8695   8715     1   110.1900474 564.840000
   8694   8705   8710     1   110.1900474 564.840000
   8694   8712   8699     1   112.4800480 524.673600
   8695   8697   8698     1   111.5100476 526.347200
   8695   8697   8704     1   110.1900474 564.840000
   8695   8694   8705     1   111.5100476 526.347200
   8695   8694   8712     1   107.9700462 569.024000
   8697   8698   8699     1   111.5100476 526.347200
   8697   8698   8717     1   111.0400475 552.288000
   8697   8695   8715     1   110.1900474 564.840000
   8698   8699   8703     1   110.1900474 564.840000
   8698   8699   8712     1   107.9700462 569.024000
   8698   8697   8704     1   110.1900474 564.840000
   8699   8698   8717     1   111.0400475 552.288000
   8703   8699   8712     1   109.3800466 607.516800
   8705   8694   8712     1   107.9700462 569.024000
   8718   8719   8721     1   111.5100476 526.347200
   8718   8719   8739     1   110.1900474 564.840000
   8718   8729   8734     1   110.1900474 564.840000
   8718   8736   8723     1   112.4800480 524.673600
   8719   8721   8722     1   111.5100476 526.347200
   8719   8721   8728     1   110.1900474 564.840000
   8719   8718   8729     1   111.5100476 526.347200
   8719   8718   8736     1   107.9700462 569.024000
   8721   8722   8723     1   111.5100476 526.347200
   8721   8722   8741     1   111.0400475 552.288000
   8721   8719   8739     1   110.1900474 564.840000
   8722   8723   8727     1   110.1900474 564.840000
   8722   8723   8736     1   107.9700462 569.024000
   8722   8721   8728     1   110.1900474 564.840000
   8723   8722   8741     1   111.0400475 552.288000
   8727   8723   8736     1   109.3800466 607.516800
   8729   8718   8736     1   107.9700462 569.024000
   8743   8745   8747     1   111.6100477 551.451200
   8745   8747   8751     1   114.2100488 537.225600
   8747   8751   8752     1   109.6600471 523.836800
   8747   8751   8753     1   109.6600471 523.836800
   8751   8752   8763     1   114.2100488 537.225600
   8751   8753   8755     1   114.2100488 537.225600
   8752   8751   8753     1   109.6600471 523.836800
   8752   8763   8766     1   111.0400475 529.694400
   8753   8755   8759     1   111.0400475 529.694400
   8755   8759   8760     1   123.2000528 564.003200
   8755   8759   8791     1   112.2600482 538.062400
   8759   8791   8772     1   118.5150508 540.957728
   8760   8759   8791     1   118.8300510 581.576000
   8763   8766   8767     1   123.2000528 564.003200
   8763   8766   8815     1   112.2600482 538.062400
   8766   8815   8796     1   118.5150508 540.957728
   8767   8766   8815     1   118.8300510 581.576000
   8768   8769   8771     1   111.5100476 526.347200
   8768   8769   8789     1   110.1900474 564.840000
   8768   8779   8784     1   110.1900474 564.840000
   8768   8786   8773     1   112.4800480 524.673600
   8769   8768   8779     1   111.5100476 526.347200
   8769   8768   8786     1   107.9700462 569.024000
   8769   8771   8772     1   111.5100476 526.347200
   8769   8771   8778     1   110.1900474 564.840000
   8771   8769   8789     1   110.1900474 564.840000
   8771   8772   8773     1   111.5100476 526.347200
   8771   8772   8791     1   111.0400475 552.288000
   8772   8771   8778     1   110.1900474 564.840000
   8772   8773   8777     1   110.1900474 564.840000
   8772   8773   8786     1   107.9700462 569.024000
   8773   8772   8791     1   111.0400475 552.288000
   8777   8773   8786     1   109.3800466 607.516800
   8779   8768   8786     1   107.9700462 569.024000
   8792   8793   8795     1   111.5100476 526.347200
   8792   8793   8813     1   110.1900474 564.840000
   8792   8803   8808     1   110.1900474 564.840000
   8792   8810   8797     1   112.4800480 524.673600
   8793   8792   8803     1   111.5100476 526.347200
   8793   8792   8810     1   107.9700462 569.024000
   8793   8795   8796     1   111.5100476 526.347200
   8793   8795   8802     1   110.1900474 564.840000
   8795   8793   8813     1   110.1900474 564.840000
   8795   8796   8797     1   111.5100476 526.347200
   8795   8796   8815     1   111.0400475 552.288000
   8796   8795   8802     1   110.1900474 564.840000
   8796   8797   8801     1   110.1900474 564.840000
   8796   8797   8810     1   107.9700462 569.024000
   8797   8796   8815     1   111.0400475 552.288000
   8801   8797   8810     1   109.3800466 607.516800
   8803   8792   8810     1   107.9700462 569.024000
   8817   8819   8821     1   111.6100477 551.451200
   8819   8821   8825     1   114.2100488 537.225600
   8821   8825   8826     1   109.6600471 523.836800
   8821   8825   8827     1   109.6600471 523.836800
   8825   8826   8837     1   114.2100488 537.225600
   8825   8827   8829     1   114.2100488 537.225600
   8826   8837   8840     1   111.0400475 529.694400
   8826   8825   8827     1   109.6600471 523.836800
   8827   8829   8833     1   111.0400475 529.694400
   8829   8833   8834     1   123.2000528 564.003200
   8829   8833   8865     1   112.2600482 538.062400
   8833   8865   8846     1   118.5150508 540.957728
   8834   8833   8865     1   118.8300510 581.576000
   8837   8840   8841     1   123.2000528 564.003200
   8837   8840   8889     1   112.2600482 538.062400
   8840   8889   8870     1   118.5150508 540.957728
   8841   8840   8889     1   118.8300510 581.576000
   8842   8843   8845     1   111.5100476 526.347200
   8842   8843   8863     1   110.1900474 564.840000
   8842   8853   8858     1   110.1900474 564.840000
   8842   8860   8847     1   112.4800480 524.673600
   8843   8845   8846     1   111.5100476 526.347200
   8843   8845   8852     1   110.1900474 564.840000
   8843   8842   8853     1   111.5100476 526.347200
   8843   8842   8860     1   107.9700462 569.024000
   8845   8846   8847     1   111.5100476 526.347200
   8845   8846   8865     1   111.0400475 552.288000
   8845   8843   8863     1   110.1900474 564.840000
   8846   8847   8851     1   110.1900474 564.840000
   8846   8847   8860     1   107.9700462 569.024000
   8846   8845   8852     1   110.1900474 564.840000
   8847   8846   8865     1   111.0400475 552.288000
   8851   8847   8860     1   109.3800466 607.516800
   8853   8842   8860     1   107.9700462 569.024000
   8866   8867   8869     1   111.5100476 526.347200
   8866   8867   8887     1   110.1900474 564.840000
   8866   8877   8882     1   110.1900474 564.840000
   8866   8884   8871     1   112.4800480 524.673600
   8867   8869   8870     1   111.5100476 526.347200
   8867   8869   8876     1   110.1900474 564.840000
   8867   8866   8877     1   111.5100476 526.347200
   8867   8866   8884     1   107.9700462 569.024000
   8869   8870   8871     1   111.5100476 526.347200
   8869   8870   8889     1   111.0400475 552.288000
   8869   8867   8887     1   110.1900474 564.840000
   8870   8871   8875     1   110.1900474 564.840000
   8870   8871   8884     1   107.9700462 569.024000
   8870   8869   8876     1   110.1900474 564.840000
   8871   8870   8889     1   111.0400475 552.288000
   8875   8871   8884     1   109.3800466 607.516800
   8877   8866   8884     1   107.9700462 569.024000
   8891   8893   8895     1   111.6100477 551.451200
   8893   8895   8899     1   114.2100488 537.225600
   8895   8899   8900     1   109.6600471 523.836800
   8895   8899   8901     1   109.6600471 523.836800
   8899   8900   8911     1   114.2100488 537.225600
   8899   8901   8903     1   114.2100488 537.225600
   8900   8899   8901     1   109.6600471 523.836800
   8900   8911   8914     1   111.0400475 529.694400
   8901   8903   8907     1   111.0400475 529.694400
   8903   8907   8908     1   123.2000528 564.003200
   8903   8907   8939     1   112.2600482 538.062400
   8907   8939   8920     1   118.5150508 540.957728
   8908   8907   8939     1   118.8300510 581.576000
   8911   8914   8915     1   123.2000528 564.003200
   8911   8914   8963     1   112.2600482 538.062400
   8914   8963   8944     1   118.5150508 540.957728
   8915   8914   8963     1   118.8300510 581.576000
   8916   8917   8919     1   111.5100476 526.347200
   8916   8917   8937     1   110.1900474 564.840000
   8916   8927   8932     1   110.1900474 564.840000
   8916   8934   8921     1   112.4800480 524.673600
   8917   8916   8927     1   111.5100476 526.347200
   8917   8916   8934     1   107.9700462 569.024000
   8917   8919   8920     1   111.5100476 526.347200
   8917   8919   8926     1   110.1900474 564.840000
   8919   8917   8937     1   110.1900474 564.840000
   8919   8920   8921     1   111.5100476 526.347200
   8919   8920   8939     1   111.0400475 552.288000
   8920   8919   8926     1   110.1900474 564.840000
   8920   8921   8925     1   110.1900474 564.840000
   8920   8921   8934     1   107.9700462 569.024000
   8921   8920   8939     1   111.0400475 552.288000
   8925   8921   8934     1   109.3800466 607.516800
   8927   8916   8934     1   107.9700462 569.024000
   8940   8941   8943     1   111.5100476 526.347200
   8940   8941   8961     1   110.1900474 564.840000
   8940   8951   8956     1   110.1900474 564.840000
   8940   8958   8945     1   112.4800480 524.673600
   8941   8940   8951     1   111.5100476 526.347200
   8941   8940   8958     1   107.9700462 569.024000
   8941   8943   8944     1   111.5100476 526.347200
   8941   8943   8950     1   110.1900474 564.840000
   8943   8941   8961     1   110.1900474 564.840000
   8943   8944   8945     1   111.5100476 526.347200
   8943   8944   8963     1   111.0400475 552.288000
   8944   8943   8950     1   110.1900474 564.840000
   8944   8945   8949     1   110.1900474 564.840000
   8944   8945   8958     1   107.9700462 569.024000
   8945   8944   8963     1   111.0400475 552.288000
   8949   8945   8958     1   109.3800466 607.516800
   8951   8940   8958     1   107.9700462 569.024000
   8965   8967   8969     1   111.6100477 551.451200
   8967   8969   8973     1   114.2100488 537.225600
   8969   8973   8974     1   109.6600471 523.836800
   8969   8973   8975     1   109.6600471 523.836800
   8973   8974   8985     1   114.2100488 537.225600
   8973   8975   8977     1   114.2100488 537.225600
   8974   8985   8988     1   111.0400475 529.694400
   8974   8973   8975     1   109.6600471 523.836800
   8975   8977   8981     1   111.0400475 529.694400
   8977   8981   8982     1   123.2000528 564.003200
   8977   8981   9013     1   112.2600482 538.062400
   8981   9013   8994     1   118.5150508 540.957728
   8982   8981   9013     1   118.8300510 581.576000
   8985   8988   8989     1   123.2000528 564.003200
   8985   8988   9037     1   112.2600482 538.062400
   8988   9037   9018     1   118.5150508 540.957728
   8989   8988   9037     1   118.8300510 581.576000
   8990   8991   8993     1   111.5100476 526.347200
   8990   8991   9011     1   110.1900474 564.840000
   8990   9001   9006     1   110.1900474 564.840000
   8990   9008   8995     1   112.4800480 524.673600
   8991   8993   8994     1   111.5100476 526.347200
   8991   8993   9000     1   110.1900474 564.840000
   8991   8990   9001     1   111.5100476 526.347200
   8991   8990   9008     1   107.9700462 569.024000
   8993   8994   8995     1   111.5100476 526.347200
   8993   8994   9013     1   111.0400475 552.288000
   8993   8991   9011     1   110.1900474 564.840000
   8994   8995   8999     1   110.1900474 564.840000
   8994   8995   9008     1   107.9700462 569.024000
   8994   8993   9000     1   110.1900474 564.840000
   8995   8994   9013     1   111.0400475 552.288000
   8999   8995   9008     1   109.3800466 607.516800
   9001   8990   9008     1   107.9700462 569.024000
   9014   9015   9017     1   111.5100476 526.347200
   9014   9015   9035     1   110.1900474 564.840000
   9014   9025   9030     1   110.1900474 564.840000
   9014   9032   9019     1   112.4800480 524.673600
   9015   9017   9018     1   111.5100476 526.347200
   9015   9017   9024     1   110.1900474 564.840000
   9015   9014   9025     1   111.5100476 526.347200
   9015   9014   9032     1   107.9700462 569.024000
   9017   9018   9019     1   111.5100476 526.347200
   9017   9018   9037     1   111.0400475 552.288000
   9017   9015   9035     1   110.1900474 564.840000
   9018   9019   9023     1   110.1900474 564.840000
   9018   9019   9032     1   107.9700462 569.024000
   9018   9017   9024     1   110.1900474 564.840000
   9019   9018   9037     1   111.0400475 552.288000
   9023   9019   9032     1   109.3800466 607.516800
   9025   9014   9032     1   107.9700462 569.024000
   9039   9041   9043     1   111.6100477 551.451200
   9041   9043   9047     1   114.2100488 537.225600
   9043   9047   9048     1   109.6600471 523.836800
   9043   9047   9049     1   109.6600471 523.836800
   9047   9048   9059     1   114.2100488 537.225600
   9047   9049   9051     1   114.2100488 537.225600
   9048   9047   9049     1   109.6600471 523.836800
   9048   9059   9062     1   111.0400475 529.694400
   9049   9051   9055     1   111.0400475 529.694400
   9051   9055   9056     1   123.2000528 564.003200
   9051   9055   9087     1   112.2600482 538.062400
   9055   9087   9068     1   118.5150508 540.957728
   9056   9055   9087     1   118.8300510 581.576000
   9059   9062   9063     1   123.2000528 564.003200
   9059   9062   9111     1   112.2600482 538.062400
   9062   9111   9092     1   118.5150508 540.957728
   9063   9062   9111     1   118.8300510 581.576000
   9064   9065   9067     1   111.5100476 526.347200
   9064   9065   9085     1   110.1900474 564.840000
   9064   9075   9080     1   110.1900474 564.840000
   9064   9082   9069     1   112.4800480 524.673600
   9065   9064   9075     1   111.5100476 526.347200
   9065   9064   9082     1   107.9700462 569.024000
   9065   9067   9068     1   111.5100476 526.347200
   9065   9067   9074     1   110.1900474 564.840000
   9067   9065   9085     1   110.1900474 564.840000
   9067   9068   9069     1   111.5100476 526.347200
   9067   9068   9087     1   111.0400475 552.288000
   9068   9067   9074     1   110.1900474 564.840000
   9068   9069   9073     1   110.1900474 564.840000
   9068   9069   9082     1   107.9700462 569.024000
   9069   9068   9087     1   111.0400475 552.288000
   9073   9069   9082     1   109.3800466 607.516800
   9075   9064   9082     1   107.9700462 569.024000
   9088   9089   9091     1   111.5100476 526.347200
   9088   9089   9109     1   110.1900474 564.840000
   9088   9099   9104     1   110.1900474 564.840000
   9088   9106   9093     1   112.4800480 524.673600
   9089   9088   9099     1   111.5100476 526.347200
   9089   9088   9106     1   107.9700462 569.024000
   9089   9091   9092     1   111.5100476 526.347200
   9089   9091   9098     1   110.1900474 564.840000
   9091   9089   9109     1   110.1900474 564.840000
   9091   9092   9093     1   111.5100476 526.347200
   9091   9092   9111     1   111.0400475 552.288000
   9092   9091   9098     1   110.1900474 564.840000
   9092   9093   9097     1   110.1900474 564.840000
   9092   9093   9106     1   107.9700462 569.024000
   9093   9092   9111     1   111.0400475 552.288000
   9097   9093   9106     1   109.3800466 607.516800
   9099   9088   9106     1   107.9700462 569.024000
   9113   9115   9117     1   111.6100477 551.451200
   9115   9117   9121     1   114.2100488 537.225600
   9117   9121   9122     1   109.6600471 523.836800
   9117   9121   9123     1   109.6600471 523.836800
   9121   9122   9133     1   114.2100488 537.225600
   9121   9123   9125     1   114.2100488 537.225600
   9122   9133   9136     1   111.0400475 529.694400
   9122   9121   9123     1   109.6600471 523.836800
   9123   9125   9129     1   111.0400475 529.694400
   9125   9129   9130     1   123.2000528 564.003200
   9125   9129   9161     1   112.2600482 538.062400
   9129   9161   9142     1   118.5150508 540.957728
   9130   9129   9161     1   118.8300510 581.576000
   9133   9136   9137     1   123.2000528 564.003200
   9133   9136   9185     1   112.2600482 538.062400
   9136   9185   9166     1   118.5150508 540.957728
   9137   9136   9185     1   118.8300510 581.576000
   9138   9139   9141     1   111.5100476 526.347200
   9138   9139   9159     1   110.1900474 564.840000
   9138   9149   9154     1   110.1900474 564.840000
   9138   9156   9143     1   112.4800480 524.673600
   9139   9141   9142     1   111.5100476 526.347200
   9139   9141   9148     1   110.1900474 564.840000
   9139   9138   9149     1   111.5100476 526.347200
   9139   9138   9156     1   107.9700462 569.024000
   9141   9142   9143     1   111.5100476 526.347200
   9141   9142   9161     1   111.0400475 552.288000
   9141   9139   9159     1   110.1900474 564.840000
   9142   9143   9147     1   110.1900474 564.840000
   9142   9143   9156     1   107.9700462 569.024000
   9142   9141   9148     1   110.1900474 564.840000
   9143   9142   9161     1   111.0400475 552.288000
   9147   9143   9156     1   109.3800466 607.516800
   9149   9138   9156     1   107.9700462 569.024000
   9162   9163   9165     1   111.5100476 526.347200
   9162   9163   9183     1   110.1900474 564.840000
   9162   9173   9178     1   110.1900474 564.840000
   9162   9180   9167     1   112.4800480 524.673600
   9163   9165   9166     1   111.5100476 526.347200
   9163   9165   9172     1   110.1900474 564.840000
   9163   9162   9173     1   111.5100476 526.347200
   9163   9162   9180     1   107.9700462 569.024000
   9165   9166   9167     1   111.5100476 526.347200
   9165   9166   9185     1   111.0400475 552.288000
   9165   9163   9183     1   110.1900474 564.840000
   9166   9167   9171     1   110.1900474 564.840000
   9166   9167   9180     1   107.9700462 569.024000
   9166   9165   9172     1   110.1900474 564.840000
   9167   9166   9185     1   111.0400475 552.288000
   9171   9167   9180     1   109.3800466 607.516800
   9173   9162   9180     1   107.9700462 569.024000
   9187   9189   9191     1   111.6100477 551.451200
   9189   9191   9195     1   114.2100488 537.225600
   9191   9195   9196     1   109.6600471 523.836800
   9191   9195   9197     1   109.6600471 523.836800
   9195   9196   9207     1   114.2100488 537.225600
   9195   9197   9199     1   114.2100488 537.225600
   9196   9195   9197     1   109.6600471 523.836800
   9196   9207   9210     1   111.0400475 529.694400
   9197   9199   9203     1   111.0400475 529.694400
   9199   9203   9204     1   123.2000528 564.003200
   9199   9203   9235     1   112.2600482 538.062400
   9203   9235   9216     1   118.5150508 540.957728
   9204   9203   9235     1   118.8300510 581.576000
   9207   9210   9211     1   123.2000528 564.003200
   9207   9210   9259     1   112.2600482 538.062400
   9210   9259   9240     1   118.5150508 540.957728
   9211   9210   9259     1   118.8300510 581.576000
   9212   9213   9215     1   111.5100476 526.347200
   9212   9213   9233     1   110.1900474 564.840000
   9212   9223   9228     1   110.1900474 564.840000
   9212   9230   9217     1   112.4800480 524.673600
   9213   9212   9223     1   111.5100476 526.347200
   9213   9212   9230     1   107.9700462 569.024000
   9213   9215   9216     1   111.5100476 526.347200
   9213   9215   9222     1   110.1900474 564.840000
   9215   9213   9233     1   110.1900474 564.840000
   9215   9216   9217     1   111.5100476 526.347200
   9215   9216   9235     1   111.0400475 552.288000
   9216   9215   9222     1   110.1900474 564.840000
   9216   9217   9221     1   110.1900474 564.840000
   9216   9217   9230     1   107.9700462 569.024000
   9217   9216   9235     1   111.0400475 552.288000
   9221   9217   9230     1   109.3800466 607.516800
   9223   9212   9230     1   107.9700462 569.024000
   9236   9237   9239     1   111.5100476 526.347200
   9236   9237   9257     1   110.1900474 564.840000
   9236   9247   9252     1   110.1900474 564.840000
   9236   9254   9241     1   112.4800480 524.673600
   9237   9236   9247     1   111.5100476 526.347200
   9237   9236   9254     1   107.9700462 569.024000
   9237   9239   9240     1   111.5100476 526.347200
   9237   9239   9246     1   110.1900474 564.840000
   9239   9237   9257     1   110.1900474 564.840000
   9239   9240   9241     1   111.5100476 526.347200
   9239   9240   9259     1   111.0400475 552.288000
   9240   9239   9246     1   110.1900474 564.840000
   9240   9241   9245     1   110.1900474 564.840000
   9240   9241   9254     1   107.9700462 569.024000
   9241   9240   9259     1   111.0400475 552.288000
   9245   9241   9254     1   109.3800466 607.516800
   9247   9236   9254     1   107.9700462 569.024000
   9261   9263   9265     1   111.6100477 551.451200
   9263   9265   9269     1   114.2100488 537.225600
   9265   9269   9270     1   109.6600471 523.836800
   9265   9269   9271     1   109.6600471 523.836800
   9269   9270   9281     1   114.2100488 537.225600
   9269   9271   9273     1   114.2100488 537.225600
   9270   9281   9284     1   111.0400475 529.694400
   9270   9269   9271     1   109.6600471 523.836800
   9271   9273   9277     1   111.0400475 529.694400
   9273   9277   9278     1   123.2000528 564.003200
   9273   9277   9309     1   112.2600482 538.062400
   9277   9309   9290     1   118.5150508 540.957728
   9278   9277   9309     1   118.8300510 581.576000
   9281   9284   9285     1   123.2000528 564.003200
   9281   9284   9333     1   112.2600482 538.062400
   9284   9333   9314     1   118.5150508 540.957728
   9285   9284   9333     1   118.8300510 581.576000
   9286   9287   9289     1   111.5100476 526.347200
   9286   9287   9307     1   110.1900474 564.840000
   9286   9297   9302     1   110.1900474 564.840000
   9286   9304   9291     1   112.4800480 524.673600
   9287   9289   9290     1   111.5100476 526.347200
   9287   9289   9296     1   110.1900474 564.840000
   9287   9286   9297     1   111.5100476 526.347200
   9287   9286   9304     1   107.9700462 569.024000
   9289   9290   9291     1   111.5100476 526.347200
   9289   9290   9309     1   111.0400475 552.288000
   9289   9287   9307     1   110.1900474 564.840000
   9290   9291   9295     1   110.1900474 564.840000
   9290   9291   9304     1   107.9700462 569.024000
   9290   9289   9296     1   110.1900474 564.840000
   9291   9290   9309     1   111.0400475 552.288000
   9295   9291   9304     1   109.3800466 607.516800
   9297   9286   9304     1   107.9700462 569.024000
   9310   9311   9313     1   111.5100476 526.347200
   9310   9311   9331     1   110.1900474 564.840000
   9310   9321   9326     1   110.1900474 564.840000
   9310   9328   9315     1   112.4800480 524.673600
   9311   9313   9314     1   111.5100476 526.347200
   9311   9313   9320     1   110.1900474 564.840000
   9311   9310   9321     1   111.5100476 526.347200
   9311   9310   9328     1   107.9700462 569.024000
   9313   9314   9315     1   111.5100476 526.347200
   9313   9314   9333     1   111.0400475 552.288000
   9313   9311   9331     1   110.1900474 564.840000
   9314   9315   9319     1   110.1900474 564.840000
   9314   9315   9328     1   107.9700462 569.024000
   9314   9313   9320     1   110.1900474 564.840000
   9315   9314   9333     1   111.0400475 552.288000
   9319   9315   9328     1   109.3800466 607.516800
   9321   9310   9328     1   107.9700462 569.024000
   9335   9337   9339     1   111.6100477 551.451200
   9337   9339   9343     1   114.2100488 537.225600
   9339   9343   9344     1   109.6600471 523.836800
   9339   9343   9345     1   109.6600471 523.836800
   9343   9344   9355     1   114.2100488 537.225600
   9343   9345   9347     1   114.2100488 537.225600
   9344   9343   9345     1   109.6600471 523.836800
   9344   9355   9358     1   111.0400475 529.694400
   9345   9347   9351     1   111.0400475 529.694400
   9347   9351   9352     1   123.2000528 564.003200
   9347   9351   9383     1   112.2600482 538.062400
   9351   9383   9364     1   118.5150508 540.957728
   9352   9351   9383     1   118.8300510 581.576000
   9355   9358   9359     1   123.2000528 564.003200
   9355   9358   9407     1   112.2600482 538.062400
   9358   9407   9388     1   118.5150508 540.957728
   9359   9358   9407     1   118.8300510 581.576000
   9360   9361   9363     1   111.5100476 526.347200
   9360   9361   9381     1   110.1900474 564.840000
   9360   9371   9376     1   110.1900474 564.840000
   9360   9378   9365     1   112.4800480 524.673600
   9361   9360   9371     1   111.5100476 526.347200
   9361   9360   9378     1   107.9700462 569.024000
   9361   9363   9364     1   111.5100476 526.347200
   9361   9363   9370     1   110.1900474 564.840000
   9363   9361   9381     1   110.1900474 564.840000
   9363   9364   9365     1   111.5100476 526.347200
   9363   9364   9383     1   111.0400475 552.288000
   9364   9363   9370     1   110.1900474 564.840000
   9364   9365   9369     1   110.1900474 564.840000
   9364   9365   9378     1   107.9700462 569.024000
   9365   9364   9383     1   111.0400475 552.288000
   9369   9365   9378     1   109.3800466 607.516800
   9371   9360   9378     1   107.9700462 569.024000
   9384   9385   9387     1   111.5100476 526.347200
   9384   9385   9405     1   110.1900474 564.840000
   9384   9395   9400     1   110.1900474 564.840000
   9384   9402   9389     1   112.4800480 524.673600
   9385   9384   9395     1   111.5100476 526.347200
   9385   9384   9402     1   107.9700462 569.024000
   9385   9387   9388     1   111.5100476 526.347200
   9385   9387   9394     1   110.1900474 564.840000
   9387   9385   9405     1   110.1900474 564.840000
   9387   9388   9389     1   111.5100476 526.347200
   9387   9388   9407     1   111.0400475 552.288000
   9388   9387   9394     1   110.1900474 564.840000
   9388   9389   9393     1   110.1900474 564.840000
   9388   9389   9402     1   107.9700462 569.024000
   9389   9388   9407     1   111.0400475 552.288000
   9393   9389   9402     1   109.3800466 607.516800
   9395   9384   9402     1   107.9700462 569.024000
   9409   9411   9413     1   111.6100477 551.451200
   9411   9413   9417     1   114.2100488 537.225600
   9413   9417   9418     1   109.6600471 523.836800
   9413   9417   9419     1   109.6600471 523.836800
   9417   9418   9429     1   114.2100488 537.225600
   9417   9419   9421     1   114.2100488 537.225600
   9418   9429   9432     1   111.0400475 529.694400
   9418   9417   9419     1   109.6600471 523.836800
   9419   9421   9425     1   111.0400475 529.694400
   9421   9425   9426     1   123.2000528 564.003200
   9421   9425   9457     1   112.2600482 538.062400
   9425   9457   9438     1   118.5150508 540.957728
   9426   9425   9457     1   118.8300510 581.576000
   9429   9432   9433     1   123.2000528 564.003200
   9429   9432   9481     1   112.2600482 538.062400
   9432   9481   9462     1   118.5150508 540.957728
   9433   9432   9481     1   118.8300510 581.576000
   9434   9435   9437     1   111.5100476 526.347200
   9434   9435   9455     1   110.1900474 564.840000
   9434   9445   9450     1   110.1900474 564.840000
   9434   9452   9439     1   112.4800480 524.673600
   9435   9437   9438     1   111.5100476 526.347200
   9435   9437   9444     1   110.1900474 564.840000
   9435   9434   9445     1   111.5100476 526.347200
   9435   9434   9452     1   107.9700462 569.024000
   9437   9438   9439     1   111.5100476 526.347200
   9437   9438   9457     1   111.0400475 552.288000
   9437   9435   9455     1   110.1900474 564.840000
   9438   9439   9443     1   110.1900474 564.840000
   9438   9439   9452     1   107.9700462 569.024000
   9438   9437   9444     1   110.1900474 564.840000
   9439   9438   9457     1   111.0400475 552.288000
   9443   9439   9452     1   109.3800466 607.516800
   9445   9434   9452     1   107.9700462 569.024000
   9458   9459   9461     1   111.5100476 526.347200
   9458   9459   9479     1   110.1900474 564.840000
   9458   9469   9474     1   110.1900474 564.840000
   9458   9476   9463     1   112.4800480 524.673600
   9459   9461   9462     1   111.5100476 526.347200
   9459   9461   9468     1   110.1900474 564.840000
   9459   9458   9469     1   111.5100476 526.347200
   9459   9458   9476     1   107.9700462 569.024000
   9461   9462   9463     1   111.5100476 526.347200
   9461   9462   9481     1   111.0400475 552.288000
   9461   9459   9479     1   110.1900474 564.840000
   9462   9463   9467     1   110.1900474 564.840000
   9462   9463   9476     1   107.9700462 569.024000
   9462   9461   9468     1   110.1900474 564.840000
   9463   9462   9481     1   111.0400475 552.288000
   9467   9463   9476     1   109.3800466 607.516800
   9469   9458   9476     1   107.9700462 569.024000
   9483   9485   9487     1   111.6100477 551.451200
   9485   9487   9491     1   114.2100488 537.225600
   9487   9491   9492     1   109.6600471 523.836800
   9487   9491   9493     1   109.6600471 523.836800
   9491   9492   9503     1   114.2100488 537.225600
   9491   9493   9495     1   114.2100488 537.225600
   9492   9491   9493     1   109.6600471 523.836800
   9492   9503   9506     1   111.0400475 529.694400
   9493   9495   9499     1   111.0400475 529.694400
   9495   9499   9500     1   123.2000528 564.003200
   9495   9499   9531     1   112.2600482 538.062400
   9499   9531   9512     1   118.5150508 540.957728
   9500   9499   9531     1   118.8300510 581.576000
   9503   9506   9507     1   123.2000528 564.003200
   9503   9506   9555     1   112.2600482 538.062400
   9506   9555   9536     1   118.5150508 540.957728
   9507   9506   9555     1   118.8300510 581.576000
   9508   9509   9511     1   111.5100476 526.347200
   9508   9509   9529     1   110.1900474 564.840000
   9508   9519   9524     1   110.1900474 564.840000
   9508   9526   9513     1   112.4800480 524.673600
   9509   9508   9519     1   111.5100476 526.347200
   9509   9508   9526     1   107.9700462 569.024000
   9509   9511   9512     1   111.5100476 526.347200
   9509   9511   9518     1   110.1900474 564.840000
   9511   9509   9529     1   110.1900474 564.840000
   9511   9512   9513     1   111.5100476 526.347200
   9511   9512   9531     1   111.0400475 552.288000
   9512   9511   9518     1   110.1900474 564.840000
   9512   9513   9517     1   110.1900474 564.840000
   9512   9513   9526     1   107.9700462 569.024000
   9513   9512   9531     1   111.0400475 552.288000
   9517   9513   9526     1   109.3800466 607.516800
   9519   9508   9526     1   107.9700462 569.024000
   9532   9533   9535     1   111.5100476 526.347200
   9532   9533   9553     1   110.1900474 564.840000
   9532   9543   9548     1   110.1900474 564.840000
   9532   9550   9537     1   112.4800480 524.673600
   9533   9532   9543     1   111.5100476 526.347200
   9533   9532   9550     1   107.9700462 569.024000
   9533   9535   9536     1   111.5100476 526.347200
   9533   9535   9542     1   110.1900474 564.840000
   9535   9533   9553     1   110.1900474 564.840000
   9535   9536   9537     1   111.5100476 526.347200
   9535   9536   9555     1   111.0400475 552.288000
   9536   9535   9542     1   110.1900474 564.840000
   9536   9537   9541     1   110.1900474 564.840000
   9536   9537   9550     1   107.9700462 569.024000
   9537   9536   9555     1   111.0400475 552.288000
   9541   9537   9550     1   109.3800466 607.516800
   9543   9532   9550     1   107.9700462 569.024000
   9557   9559   9561     1   111.6100477 551.451200
   9559   9561   9565     1   114.2100488 537.225600
   9561   9565   9566     1   109.6600471 523.836800
   9561   9565   9567     1   109.6600471 523.836800
   9565   9566   9577     1   114.2100488 537.225600
   9565   9567   9569     1   114.2100488 537.225600
   9566   9577   9580     1   111.0400475 529.694400
   9566   9565   9567     1   109.6600471 523.836800
   9567   9569   9573     1   111.0400475 529.694400
   9569   9573   9574     1   123.2000528 564.003200
   9569   9573   9605     1   112.2600482 538.062400
   9573   9605   9586     1   118.5150508 540.957728
   9574   9573   9605     1   118.8300510 581.576000
   9577   9580   9581     1   123.2000528 564.003200
   9577   9580   9629     1   112.2600482 538.062400
   9580   9629   9610     1   118.5150508 540.957728
   9581   9580   9629     1   118.8300510 581.576000
   9582   9583   9585     1   111.5100476 526.347200
   9582   9583   9603     1   110.1900474 564.840000
   9582   9593   9598     1   110.1900474 564.840000
   9582   9600   9587     1   112.4800480 524.673600
   9583   9585   9586     1   111.5100476 526.347200
   9583   9585   9592     1   110.1900474 564.840000
   9583   9582   9593     1   111.5100476 526.347200
   9583   9582   9600     1   107.9700462 569.024000
   9585   9586   9587     1   111.5100476 526.347200
   9585   9586   9605     1   111.0400475 552.288000
   9585   9583   9603     1   110.1900474 564.840000
   9586   9587   9591     1   110.1900474 564.840000
   9586   9587   9600     1   107.9700462 569.024000
   9586   9585   9592     1   110.1900474 564.840000
   9587   9586   9605     1   111.0400475 552.288000
   9591   9587   9600     1   109.3800466 607.516800
   9593   9582   9600     1   107.9700462 569.024000
   9606   9607   9609     1   111.5100476 526.347200
   9606   9607   9627     1   110.1900474 564.840000
   9606   9617   9622     1   110.1900474 564.840000
   9606   9624   9611     1   112.4800480 524.673600
   9607   9609   9610     1   111.5100476 526.347200
   9607   9609   9616     1   110.1900474 564.840000
   9607   9606   9617     1   111.5100476 526.347200
   9607   9606   9624     1   107.9700462 569.024000
   9609   9610   9611     1   111.5100476 526.347200
   9609   9610   9629     1   111.0400475 552.288000
   9609   9607   9627     1   110.1900474 564.840000
   9610   9611   9615     1   110.1900474 564.840000
   9610   9611   9624     1   107.9700462 569.024000
   9610   9609   9616     1   110.1900474 564.840000
   9611   9610   9629     1   111.0400475 552.288000
   9615   9611   9624     1   109.3800466 607.516800
   9617   9606   9624     1   107.9700462 569.024000
   9631   9633   9635     1   111.6100477 551.451200
   9633   9635   9639     1   114.2100488 537.225600
   9635   9639   9640     1   109.6600471 523.836800
   9635   9639   9641     1   109.6600471 523.836800
   9639   9640   9651     1   114.2100488 537.225600
   9639   9641   9643     1   114.2100488 537.225600
   9640   9639   9641     1   109.6600471 523.836800
   9640   9651   9654     1   111.0400475 529.694400
   9641   9643   9647     1   111.0400475 529.694400
   9643   9647   9648     1   123.2000528 564.003200
   9643   9647   9679     1   112.2600482 538.062400
   9647   9679   9660     1   118.5150508 540.957728
   9648   9647   9679     1   118.8300510 581.576000
   9651   9654   9655     1   123.2000528 564.003200
   9651   9654   9703     1   112.2600482 538.062400
   9654   9703   9684     1   118.5150508 540.957728
   9655   9654   9703     1   118.8300510 581.576000
   9656   9657   9659     1   111.5100476 526.347200
   9656   9657   9677     1   110.1900474 564.840000
   9656   9667   9672     1   110.1900474 564.840000
   9656   9674   9661     1   112.4800480 524.673600
   9657   9656   9667     1   111.5100476 526.347200
   9657   9656   9674     1   107.9700462 569.024000
   9657   9659   9660     1   111.5100476 526.347200
   9657   9659   9666     1   110.1900474 564.840000
   9659   9657   9677     1   110.1900474 564.840000
   9659   9660   9661     1   111.5100476 526.347200
   9659   9660   9679     1   111.0400475 552.288000
   9660   9659   9666     1   110.1900474 564.840000
   9660   9661   9665     1   110.1900474 564.840000
   9660   9661   9674     1   107.9700462 569.024000
   9661   9660   9679     1   111.0400475 552.288000
   9665   9661   9674     1   109.3800466 607.516800
   9667   9656   9674     1   107.9700462 569.024000
   9680   9681   9683     1   111.5100476 526.347200
   9680   9681   9701     1   110.1900474 564.840000
   9680   9691   9696     1   110.1900474 564.840000
   9680   9698   9685     1   112.4800480 524.673600
   9681   9680   9691     1   111.5100476 526.347200
   9681   9680   9698     1   107.9700462 569.024000
   9681   9683   9684     1   111.5100476 526.347200
   9681   9683   9690     1   110.1900474 564.840000
   9683   9681   9701     1   110.1900474 564.840000
   9683   9684   9685     1   111.5100476 526.347200
   9683   9684   9703     1   111.0400475 552.288000
   9684   9683   9690     1   110.1900474 564.840000
   9684   9685   9689     1   110.1900474 564.840000
   9684   9685   9698     1   107.9700462 569.024000
   9685   9684   9703     1   111.0400475 552.288000
   9689   9685   9698     1   109.3800466 607.516800
   9691   9680   9698     1   107.9700462 569.024000
   9705   9707   9709     1   111.6100477 551.451200
   9707   9709   9713     1   114.2100488 537.225600
   9709   9713   9714     1   109.6600471 523.836800
   9709   9713   9715     1   109.6600471 523.836800
   9713   9714   9725     1   114.2100488 537.225600
   9713   9715   9717     1   114.2100488 537.225600
   9714   9725   9728     1   111.0400475 529.694400
   9714   9713   9715     1   109.6600471 523.836800
   9715   9717   9721     1   111.0400475 529.694400
   9717   9721   9722     1   123.2000528 564.003200
   9717   9721   9753     1   112.2600482 538.062400
   9721   9753   9734     1   118.5150508 540.957728
   9722   9721   9753     1   118.8300510 581.576000
   9725   9728   9729     1   123.2000528 564.003200
   9725   9728   9777     1   112.2600482 538.062400
   9728   9777   9758     1   118.5150508 540.957728
   9729   9728   9777     1   118.8300510 581.576000
   9730   9731   9733     1   111.5100476 526.347200
   9730   9731   9751     1   110.1900474 564.840000
   9730   9741   9746     1   110.1900474 564.840000
   9730   9748   9735     1   112.4800480 524.673600
   9731   9733   9734     1   111.5100476 526.347200
   9731   9733   9740     1   110.1900474 564.840000
   9731   9730   9741     1   111.5100476 526.347200
   9731   9730   9748     1   107.9700462 569.024000
   9733   9734   9735     1   111.5100476 526.347200
   9733   9734   9753     1   111.0400475 552.288000
   9733   9731   9751     1   110.1900474 564.840000
   9734   9735   9739     1   110.1900474 564.840000
   9734   9735   9748     1   107.9700462 569.024000
   9734   9733   9740     1   110.1900474 564.840000
   9735   9734   9753     1   111.0400475 552.288000
   9739   9735   9748     1   109.3800466 607.516800
   9741   9730   9748     1   107.9700462 569.024000
   9754   9755   9757     1   111.5100476 526.347200
   9754   9755   9775     1   110.1900474 564.840000
   9754   9765   9770     1   110.1900474 564.840000
   9754   9772   9759     1   112.4800480 524.673600
   9755   9757   9758     1   111.5100476 526.347200
   9755   9757   9764     1   110.1900474 564.840000
   9755   9754   9765     1   111.5100476 526.347200
   9755   9754   9772     1   107.9700462 569.024000
   9757   9758   9759     1   111.5100476 526.347200
   9757   9758   9777     1   111.0400475 552.288000
   9757   9755   9775     1   110.1900474 564.840000
   9758   9759   9763     1   110.1900474 564.840000
   9758   9759   9772     1   107.9700462 569.024000
   9758   9757   9764     1   110.1900474 564.840000
   9759   9758   9777     1   111.0400475 552.288000
   9763   9759   9772     1   109.3800466 607.516800
   9765   9754   9772     1   107.9700462 569.024000
   9779   9781   9783     1   111.6100477 551.451200
   9781   9783   9787     1   114.2100488 537.225600
   9783   9787   9788     1   109.6600471 523.836800
   9783   9787   9789     1   109.6600471 523.836800
   9787   9788   9799     1   114.2100488 537.225600
   9787   9789   9791     1   114.2100488 537.225600
   9788   9787   9789     1   109.6600471 523.836800
   9788   9799   9802     1   111.0400475 529.694400
   9789   9791   9795     1   111.0400475 529.694400
   9791   9795   9796     1   123.2000528 564.003200
   9791   9795   9827     1   112.2600482 538.062400
   9795   9827   9808     1   118.5150508 540.957728
   9796   9795   9827     1   118.8300510 581.576000
   9799   9802   9803     1   123.2000528 564.003200
   9799   9802   9851     1   112.2600482 538.062400
   9802   9851   9832     1   118.5150508 540.957728
   9803   9802   9851     1   118.8300510 581.576000
   9804   9805   9807     1   111.5100476 526.347200
   9804   9805   9825     1   110.1900474 564.840000
   9804   9815   9820     1   110.1900474 564.840000
   9804   9822   9809     1   112.4800480 524.673600
   9805   9804   9815     1   111.5100476 526.347200
   9805   9804   9822     1   107.9700462 569.024000
   9805   9807   9808     1   111.5100476 526.347200
   9805   9807   9814     1   110.1900474 564.840000
   9807   9805   9825     1   110.1900474 564.840000
   9807   9808   9809     1   111.5100476 526.347200
   9807   9808   9827     1   111.0400475 552.288000
   9808   9807   9814     1   110.1900474 564.840000
   9808   9809   9813     1   110.1900474 564.840000
   9808   9809   9822     1   107.9700462 569.024000
   9809   9808   9827     1   111.0400475 552.288000
   9813   9809   9822     1   109.3800466 607.516800
   9815   9804   9822     1   107.9700462 569.024000
   9828   9829   9831     1   111.5100476 526.347200
   9828   9829   9849     1   110.1900474 564.840000
   9828   9839   9844     1   110.1900474 564.840000
   9828   9846   9833     1   112.4800480 524.673600
   9829   9828   9839     1   111.5100476 526.347200
   9829   9828   9846     1   107.9700462 569.024000
   9829   9831   9832     1   111.5100476 526.347200
   9829   9831   9838     1   110.1900474 564.840000
   9831   9829   9849     1   110.1900474 564.840000
   9831   9832   9833     1   111.5100476 526.347200
   9831   9832   9851     1   111.0400475 552.288000
   9832   9831   9838     1   110.1900474 564.840000
   9832   9833   9837     1   110.1900474 564.840000
   9832   9833   9846     1   107.9700462 569.024000
   9833   9832   9851     1   111.0400475 552.288000
   9837   9833   9846     1   109.3800466 607.516800
   9839   9828   9846     1   107.9700462 569.024000
   9853   9855   9857     1   111.6100477 551.451200
   9855   9857   9861     1   114.2100488 537.225600
   9857   9861   9862     1   109.6600471 523.836800
   9857   9861   9863     1   109.6600471 523.836800
   9861   9862   9873     1   114.2100488 537.225600
   9861   9863   9865     1   114.2100488 537.225600
   9862   9873   9876     1   111.0400475 529.694400
   9862   9861   9863     1   109.6600471 523.836800
   9863   9865   9869     1   111.0400475 529.694400
   9865   9869   9870     1   123.2000528 564.003200
   9865   9869   9901     1   112.2600482 538.062400
   9869   9901   9882     1   118.5150508 540.957728
   9870   9869   9901     1   118.8300510 581.576000
   9873   9876   9877     1   123.2000528 564.003200
   9873   9876   9925     1   112.2600482 538.062400
   9876   9925   9906     1   118.5150508 540.957728
   9877   9876   9925     1   118.8300510 581.576000
   9878   9879   9881     1   111.5100476 526.347200
   9878   9879   9899     1   110.1900474 564.840000
   9878   9889   9894     1   110.1900474 564.840000
   9878   9896   9883     1   112.4800480 524.673600
   9879   9881   9882     1   111.5100476 526.347200
   9879   9881   9888     1   110.1900474 564.840000
   9879   9878   9889     1   111.5100476 526.347200
   9879   9878   9896     1   107.9700462 569.024000
   9881   9882   9883     1   111.5100476 526.347200
   9881   9882   9901     1   111.0400475 552.288000
   9881   9879   9899     1   110.1900474 564.840000
   9882   9883   9887     1   110.1900474 564.840000
   9882   9883   9896     1   107.9700462 569.024000
   9882   9881   9888     1   110.1900474 564.840000
   9883   9882   9901     1   111.0400475 552.288000
   9887   9883   9896     1   109.3800466 607.516800
   9889   9878   9896     1   107.9700462 569.024000
   9902   9903   9905     1   111.5100476 526.347200
   9902   9903   9923     1   110.1900474 564.840000
   9902   9913   9918     1   110.1900474 564.840000
   9902   9920   9907     1   112.4800480 524.673600
   9903   9905   9906     1   111.5100476 526.347200
   9903   9905   9912     1   110.1900474 564.840000
   9903   9902   9913     1   111.5100476 526.347200
   9903   9902   9920     1   107.9700462 569.024000
   9905   9906   9907     1   111.5100476 526.347200
   9905   9906   9925     1   111.0400475 552.288000
   9905   9903   9923     1   110.1900474 564.840000
   9906   9907   9911     1   110.1900474 564.840000
   9906   9907   9920     1   107.9700462 569.024000
   9906   9905   9912     1   110.1900474 564.840000
   9907   9906   9925     1   111.0400475 552.288000
   9911   9907   9920     1   109.3800466 607.516800
   9913   9902   9920     1   107.9700462 569.024000
   9927   9929   9931     1   111.6100477 551.451200
   9929   9931   9935     1   114.2100488 537.225600
   9931   9935   9936     1   109.6600471 523.836800
   9931   9935   9937     1   109.6600471 523.836800
   9935   9936   9947     1   114.2100488 537.225600
   9935   9937   9939     1   114.2100488 537.225600
   9936   9935   9937     1   109.6600471 523.836800
   9936   9947   9950     1   111.0400475 529.694400
   9937   9939   9943     1   111.0400475 529.694400
   9939   9943   9944     1   123.2000528 564.003200
   9939   9943   9975     1   112.2600482 538.062400
   9943   9975   9956     1   118.5150508 540.957728
   9944   9943   9975     1   118.8300510 581.576000
   9947   9950   9951     1   123.2000528 564.003200
   9947   9950   9999     1   112.2600482 538.062400
   9950   9999   9980     1   118.5150508 540.957728
   9951   9950   9999     1   118.8300510 581.576000
   9952   9953   9955     1   111.5100476 526.347200
   9952   9953   9973     1   110.1900474 564.840000
   9952   9963   9968     1   110.1900474 564.840000
   9952   9970   9957     1   112.4800480 524.673600
   9953   9952   9963     1   111.5100476 526.347200
   9953   9952   9970     1   107.9700462 569.024000
   9953   9955   9956     1   111.5100476 526.347200
   9953   9955   9962     1   110.1900474 564.840000
   9955   9953   9973     1   110.1900474 564.840000
   9955   9956   9957     1   111.5100476 526.347200
   9955   9956   9975     1   111.0400475 552.288000
   9956   9955   9962     1   110.1900474 564.840000
   9956   9957   9961     1   110.1900474 564.840000
   9956   9957   9970     1   107.9700462 569.024000
   9957   9956   9975     1   111.0400475 552.288000
   9961   9957   9970     1   109.3800466 607.516800
   9963   9952   9970     1   107.9700462 569.024000
   9976   9977   9979     1   111.5100476 526.347200
   9976   9977   9997     1   110.1900474 564.840000
   9976   9987   9992     1   110.1900474 564.840000
   9976   9994   9981     1   112.4800480 524.673600
   9977   9976   9987     1   111.5100476 526.347200
   9977   9976   9994     1   107.9700462 569.024000
   9977   9979   9980     1   111.5100476 526.347200
   9977   9979   9986     1   110.1900474 564.840000
   9979   9977   9997     1   110.1900474 564.840000
   9979   9980   9981     1   111.5100476 526.347200
   9979   9980   9999     1   111.0400475 552.288000
   9980   9979   9986     1   110.1900474 564.840000
   9980   9981   9985     1   110.1900474 564.840000
   9980   9981   9994     1   107.9700462 569.024000
   9981   9980   9999     1   111.0400475 552.288000
   9985   9981   9994     1   109.3800466 607.516800
   9987   9976   9994     1   107.9700462 569.024000
  10001  10003  10005     1   111.6100477 551.451200
  10003  10005  10009     1   114.2100488 537.225600
  10005  10009  10010     1   109.6600471 523.836800
  10005  10009  10011     1   109.6600471 523.836800
  10009  10010  10021     1   114.2100488 537.225600
  10009  10011  10013     1   114.2100488 537.225600
  10010  10021  10024     1   111.0400475 529.694400
  10010  10009  10011     1   109.6600471 523.836800
  10011  10013  10017     1   111.0400475 529.694400
  10013  10017  10018     1   123.2000528 564.003200
  10013  10017  10049     1   112.2600482 538.062400
  10017  10049  10030     1   118.5150508 540.957728
  10018  10017  10049     1   118.8300510 581.576000
  10021  10024  10025     1   123.2000528 564.003200
  10021  10024  10073     1   112.2600482 538.062400
  10024  10073  10054     1   118.5150508 540.957728
  10025  10024  10073     1   118.8300510 581.576000
  10026  10027  10029     1   111.5100476 526.347200
  10026  10027  10047     1   110.1900474 564.840000
  10026  10037  10042     1   110.1900474 564.840000
  10026  10044  10031     1   112.4800480 524.673600
  10027  10029  10030     1   111.5100476 526.347200
  10027  10029  10036     1   110.1900474 564.840000
  10027  10026  10037     1   111.5100476 526.347200
  10027  10026  10044     1   107.9700462 569.024000
  10029  10030  10031     1   111.5100476 526.347200
  10029  10030  10049     1   111.0400475 552.288000
  10029  10027  10047     1   110.1900474 564.840000
  10030  10031  10035     1   110.1900474 564.840000
  10030  10031  10044     1   107.9700462 569.024000
  10030  10029  10036     1   110.1900474 564.840000
  10031  10030  10049     1   111.0400475 552.288000
  10035  10031  10044     1   109.3800466 607.516800
  10037  10026  10044     1   107.9700462 569.024000
  10050  10051  10053     1   111.5100476 526.347200
  10050  10051  10071     1   110.1900474 564.840000
  10050  10061  10066     1   110.1900474 564.840000
  10050  10068  10055     1   112.4800480 524.673600
  10051  10053  10054     1   111.5100476 526.347200
  10051  10053  10060     1   110.1900474 564.840000
  10051  10050  10061     1   111.5100476 526.347200
  10051  10050  10068     1   107.9700462 569.024000
  10053  10054  10055     1   111.5100476 526.347200
  10053  10054  10073     1   111.0400475 552.288000
  10053  10051  10071     1   110.1900474 564.840000
  10054  10055  10059     1   110.1900474 564.840000
  10054  10055  10068     1   107.9700462 569.024000
  10054  10053  10060     1   110.1900474 564.840000
  10055  10054  10073     1   111.0400475 552.288000
  10059  10055  10068     1   109.3800466 607.516800
  10061  10050  10068     1   107.9700462 569.024000
  10075  10077  10079     1   111.6100477 551.451200
  10077  10079  10083     1   114.2100488 537.225600
  10079  10083  10084     1   109.6600471 523.836800
  10079  10083  10085     1   109.6600471 523.836800
  10083  10084  10095     1   114.2100488 537.225600
  10083  10085  10087     1   114.2100488 537.225600
  10084  10083  10085     1   109.6600471 523.836800
  10084  10095  10098     1   111.0400475 529.694400
  10085  10087  10091     1   111.0400475 529.694400
  10087  10091  10092     1   123.2000528 564.003200
  10087  10091  10123     1   112.2600482 538.062400
  10091  10123  10104     1   118.5150508 540.957728
  10092  10091  10123     1   118.8300510 581.576000
  10095  10098  10099     1   123.2000528 564.003200
  10095  10098  10147     1   112.2600482 538.062400
  10098  10147  10128     1   118.5150508 540.957728
  10099  10098  10147     1   118.8300510 581.576000
  10100  10101  10103     1   111.5100476 526.347200
  10100  10101  10121     1   110.1900474 564.840000
  10100  10111  10116     1   110.1900474 564.840000
  10100  10118  10105     1   112.4800480 524.673600
  10101  10100  10111     1   111.5100476 526.347200
  10101  10100  10118     1   107.9700462 569.024000
  10101  10103  10104     1   111.5100476 526.347200
  10101  10103  10110     1   110.1900474 564.840000
  10103  10101  10121     1   110.1900474 564.840000
  10103  10104  10105     1   111.5100476 526.347200
  10103  10104  10123     1   111.0400475 552.288000
  10104  10103  10110     1   110.1900474 564.840000
  10104  10105  10109     1   110.1900474 564.840000
  10104  10105  10118     1   107.9700462 569.024000
  10105  10104  10123     1   111.0400475 552.288000
  10109  10105  10118     1   109.3800466 607.516800
  10111  10100  10118     1   107.9700462 569.024000
  10124  10125  10127     1   111.5100476 526.347200
  10124  10125  10145     1   110.1900474 564.840000
  10124  10135  10140     1   110.1900474 564.840000
  10124  10142  10129     1   112.4800480 524.673600
  10125  10124  10135     1   111.5100476 526.347200
  10125  10124  10142     1   107.9700462 569.024000
  10125  10127  10128     1   111.5100476 526.347200
  10125  10127  10134     1   110.1900474 564.840000
  10127  10125  10145     1   110.1900474 564.840000
  10127  10128  10129     1   111.5100476 526.347200
  10127  10128  10147     1   111.0400475 552.288000
  10128  10127  10134     1   110.1900474 564.840000
  10128  10129  10133     1   110.1900474 564.840000
  10128  10129  10142     1   107.9700462 569.024000
  10129  10128  10147     1   111.0400475 552.288000
  10133  10129  10142     1   109.3800466 607.516800
  10135  10124  10142     1   107.9700462 569.024000
  10149  10151  10153     1   111.6100477 551.451200
  10151  10153  10157     1   114.2100488 537.225600
  10153  10157  10158     1   109.6600471 523.836800
  10153  10157  10159     1   109.6600471 523.836800
  10157  10158  10169     1   114.2100488 537.225600
  10157  10159  10161     1   114.2100488 537.225600
  10158  10169  10172     1   111.0400475 529.694400
  10158  10157  10159     1   109.6600471 523.836800
  10159  10161  10165     1   111.0400475 529.694400
  10161  10165  10166     1   123.2000528 564.003200
  10161  10165  10197     1   112.2600482 538.062400
  10165  10197  10178     1   118.5150508 540.957728
  10166  10165  10197     1   118.8300510 581.576000
  10169  10172  10173     1   123.2000528 564.003200
  10169  10172  10221     1   112.2600482 538.062400
  10172  10221  10202     1   118.5150508 540.957728
  10173  10172  10221     1   118.8300510 581.576000
  10174  10175  10177     1   111.5100476 526.347200
  10174  10175  10195     1   110.1900474 564.840000
  10174  10185  10190     1   110.1900474 564.840000
  10174  10192  10179     1   112.4800480 524.673600
  10175  10177  10178     1   111.5100476 526.347200
  10175  10177  10184     1   110.1900474 564.840000
  10175  10174  10185     1   111.5100476 526.347200
  10175  10174  10192     1   107.9700462 569.024000
  10177  10178  10179     1   111.5100476 526.347200
  10177  10178  10197     1   111.0400475 552.288000
  10177  10175  10195     1   110.1900474 564.840000
  10178  10179  10183     1   110.1900474 564.840000
  10178  10179  10192     1   107.9700462 569.024000
  10178  10177  10184     1   110.1900474 564.840000
  10179  10178  10197     1   111.0400475 552.288000
  10183  10179  10192     1   109.3800466 607.516800
  10185  10174  10192     1   107.9700462 569.024000
  10198  10199  10201     1   111.5100476 526.347200
  10198  10199  10219     1   110.1900474 564.840000
  10198  10209  10214     1   110.1900474 564.840000
  10198  10216  10203     1   112.4800480 524.673600
  10199  10201  10202     1   111.5100476 526.347200
  10199  10201  10208     1   110.1900474 564.840000
  10199  10198  10209     1   111.5100476 526.347200
  10199  10198  10216     1   107.9700462 569.024000
  10201  10202  10203     1   111.5100476 526.347200
  10201  10202  10221     1   111.0400475 552.288000
  10201  10199  10219     1   110.1900474 564.840000
  10202  10203  10207     1   110.1900474 564.840000
  10202  10203  10216     1   107.9700462 569.024000
  10202  10201  10208     1   110.1900474 564.840000
  10203  10202  10221     1   111.0400475 552.288000
  10207  10203  10216     1   109.3800466 607.516800
  10209  10198  10216     1   107.9700462 569.024000
  10223  10225  10227     1   111.6100477 551.451200
  10225  10227  10231     1   114.2100488 537.225600
  10227  10231  10232     1   109.6600471 523.836800
  10227  10231  10233     1   109.6600471 523.836800
  10231  10232  10243     1   114.2100488 537.225600
  10231  10233  10235     1   114.2100488 537.225600
  10232  10231  10233     1   109.6600471 523.836800
  10232  10243  10246     1   111.0400475 529.694400
  10233  10235  10239     1   111.0400475 529.694400
  10235  10239  10240     1   123.2000528 564.003200
  10235  10239  10271     1   112.2600482 538.062400
  10239  10271  10252     1   118.5150508 540.957728
  10240  10239  10271     1   118.8300510 581.576000
  10243  10246  10247     1   123.2000528 564.003200
  10243  10246  10295     1   112.2600482 538.062400
  10246  10295  10276     1   118.5150508 540.957728
  10247  10246  10295     1   118.8300510 581.576000
  10248  10249  10251     1   111.5100476 526.347200
  10248  10249  10269     1   110.1900474 564.840000
  10248  10259  10264     1   110.1900474 564.840000
  10248  10266  10253     1   112.4800480 524.673600
  10249  10248  10259     1   111.5100476 526.347200
  10249  10248  10266     1   107.9700462 569.024000
  10249  10251  10252     1   111.5100476 526.347200
  10249  10251  10258     1   110.1900474 564.840000
  10251  10249  10269     1   110.1900474 564.840000
  10251  10252  10253     1   111.5100476 526.347200
  10251  10252  10271     1   111.0400475 552.288000
  10252  10251  10258     1   110.1900474 564.840000
  10252  10253  10257     1   110.1900474 564.840000
  10252  10253  10266     1   107.9700462 569.024000
  10253  10252  10271     1   111.0400475 552.288000
  10257  10253  10266     1   109.3800466 607.516800
  10259  10248  10266     1   107.9700462 569.024000
  10272  10273  10275     1   111.5100476 526.347200
  10272  10273  10293     1   110.1900474 564.840000
  10272  10283  10288     1   110.1900474 564.840000
  10272  10290  10277     1   112.4800480 524.673600
  10273  10272  10283     1   111.5100476 526.347200
  10273  10272  10290     1   107.9700462 569.024000
  10273  10275  10276     1   111.5100476 526.347200
  10273  10275  10282     1   110.1900474 564.840000
  10275  10273  10293     1   110.1900474 564.840000
  10275  10276  10277     1   111.5100476 526.347200
  10275  10276  10295     1   111.0400475 552.288000
  10276  10275  10282     1   110.1900474 564.840000
  10276  10277  10281     1   110.1900474 564.840000
  10276  10277  10290     1   107.9700462 569.024000
  10277  10276  10295     1   111.0400475 552.288000
  10281  10277  10290     1   109.3800466 607.516800
  10283  10272  10290     1   107.9700462 569.024000
  10297  10299  10301     1   111.6100477 551.451200
  10299  10301  10305     1   114.2100488 537.225600
  10301  10305  10306     1   109.6600471 523.836800
  10301  10305  10307     1   109.6600471 523.836800
  10305  10306  10317     1   114.2100488 537.225600
  10305  10307  10309     1   114.2100488 537.225600
  10306  10317  10320     1   111.0400475 529.694400
  10306  10305  10307     1   109.6600471 523.836800
  10307  10309  10313     1   111.0400475 529.694400
  10309  10313  10314     1   123.2000528 564.003200
  10309  10313  10345     1   112.2600482 538.062400
  10313  10345  10326     1   118.5150508 540.957728
  10314  10313  10345     1   118.8300510 581.576000
  10317  10320  10321     1   123.2000528 564.003200
  10317  10320  10369     1   112.2600482 538.062400
  10320  10369  10350     1   118.5150508 540.957728
  10321  10320  10369     1   118.8300510 581.576000
  10322  10323  10325     1   111.5100476 526.347200
  10322  10323  10343     1   110.1900474 564.840000
  10322  10333  10338     1   110.1900474 564.840000
  10322  10340  10327     1   112.4800480 524.673600
  10323  10325  10326     1   111.5100476 526.347200
  10323  10325  10332     1   110.1900474 564.840000
  10323  10322  10333     1   111.5100476 526.347200
  10323  10322  10340     1   107.9700462 569.024000
  10325  10326  10327     1   111.5100476 526.347200
  10325  10326  10345     1   111.0400475 552.288000
  10325  10323  10343     1   110.1900474 564.840000
  10326  10327  10331     1   110.1900474 564.840000
  10326  10327  10340     1   107.9700462 569.024000
  10326  10325  10332     1   110.1900474 564.840000
  10327  10326  10345     1   111.0400475 552.288000
  10331  10327  10340     1   109.3800466 607.516800
  10333  10322  10340     1   107.9700462 569.024000
  10346  10347  10349     1   111.5100476 526.347200
  10346  10347  10367     1   110.1900474 564.840000
  10346  10357  10362     1   110.1900474 564.840000
  10346  10364  10351     1   112.4800480 524.673600
  10347  10349  10350     1   111.5100476 526.347200
  10347  10349  10356     1   110.1900474 564.840000
  10347  10346  10357     1   111.5100476 526.347200
  10347  10346  10364     1   107.9700462 569.024000
  10349  10350  10351     1   111.5100476 526.347200
  10349  10350  10369     1   111.0400475 552.288000
  10349  10347  10367     1   110.1900474 564.840000
  10350  10351  10355     1   110.1900474 564.840000
  10350  10351  10364     1   107.9700462 569.024000
  10350  10349  10356     1   110.1900474 564.840000
  10351  10350  10369     1   111.0400475 552.288000
  10355  10351  10364     1   109.3800466 607.516800
  10357  10346  10364     1   107.9700462 569.024000
  10371  10373  10375     1   111.6100477 551.451200
  10373  10375  10379     1   114.2100488 537.225600
  10375  10379  10380     1   109.6600471 523.836800
  10375  10379  10381     1   109.6600471 523.836800
  10379  10380  10391     1   114.2100488 537.225600
  10379  10381  10383     1   114.2100488 537.225600
  10380  10379  10381     1   109.6600471 523.836800
  10380  10391  10394     1   111.0400475 529.694400
  10381  10383  10387     1   111.0400475 529.694400
  10383  10387  10388     1   123.2000528 564.003200
  10383  10387  10419     1   112.2600482 538.062400
  10387  10419  10400     1   118.5150508 540.957728
  10388  10387  10419     1   118.8300510 581.576000
  10391  10394  10395     1   123.2000528 564.003200
  10391  10394  10443     1   112.2600482 538.062400
  10394  10443  10424     1   118.5150508 540.957728
  10395  10394  10443     1   118.8300510 581.576000
  10396  10397  10399     1   111.5100476 526.347200
  10396  10397  10417     1   110.1900474 564.840000
  10396  10407  10412     1   110.1900474 564.840000
  10396  10414  10401     1   112.4800480 524.673600
  10397  10396  10407     1   111.5100476 526.347200
  10397  10396  10414     1   107.9700462 569.024000
  10397  10399  10400     1   111.5100476 526.347200
  10397  10399  10406     1   110.1900474 564.840000
  10399  10397  10417     1   110.1900474 564.840000
  10399  10400  10401     1   111.5100476 526.347200
  10399  10400  10419     1   111.0400475 552.288000
  10400  10399  10406     1   110.1900474 564.840000
  10400  10401  10405     1   110.1900474 564.840000
  10400  10401  10414     1   107.9700462 569.024000
  10401  10400  10419     1   111.0400475 552.288000
  10405  10401  10414     1   109.3800466 607.516800
  10407  10396  10414     1   107.9700462 569.024000
  10420  10421  10423     1   111.5100476 526.347200
  10420  10421  10441     1   110.1900474 564.840000
  10420  10431  10436     1   110.1900474 564.840000
  10420  10438  10425     1   112.4800480 524.673600
  10421  10420  10431     1   111.5100476 526.347200
  10421  10420  10438     1   107.9700462 569.024000
  10421  10423  10424     1   111.5100476 526.347200
  10421  10423  10430     1   110.1900474 564.840000
  10423  10421  10441     1   110.1900474 564.840000
  10423  10424  10425     1   111.5100476 526.347200
  10423  10424  10443     1   111.0400475 552.288000
  10424  10423  10430     1   110.1900474 564.840000
  10424  10425  10429     1   110.1900474 564.840000
  10424  10425  10438     1   107.9700462 569.024000
  10425  10424  10443     1   111.0400475 552.288000
  10429  10425  10438     1   109.3800466 607.516800
  10431  10420  10438     1   107.9700462 569.024000
  10445  10447  10449     1   111.6100477 551.451200
  10447  10449  10453     1   114.2100488 537.225600
  10449  10453  10454     1   109.6600471 523.836800
  10449  10453  10455     1   109.6600471 523.836800
  10453  10454  10465     1   114.2100488 537.225600
  10453  10455  10457     1   114.2100488 537.225600
  10454  10465  10468     1   111.0400475 529.694400
  10454  10453  10455     1   109.6600471 523.836800
  10455  10457  10461     1   111.0400475 529.694400
  10457  10461  10462     1   123.2000528 564.003200
  10457  10461  10493     1   112.2600482 538.062400
  10461  10493  10474     1   118.5150508 540.957728
  10462  10461  10493     1   118.8300510 581.576000
  10465  10468  10469     1   123.2000528 564.003200
  10465  10468  10517     1   112.2600482 538.062400
  10468  10517  10498     1   118.5150508 540.957728
  10469  10468  10517     1   118.8300510 581.576000
  10470  10471  10473     1   111.5100476 526.347200
  10470  10471  10491     1   110.1900474 564.840000
  10470  10481  10486     1   110.1900474 564.840000
  10470  10488  10475     1   112.4800480 524.673600
  10471  10473  10474     1   111.5100476 526.347200
  10471  10473  10480     1   110.1900474 564.840000
  10471  10470  10481     1   111.5100476 526.347200
  10471  10470  10488     1   107.9700462 569.024000
  10473  10474  10475     1   111.5100476 526.347200
  10473  10474  10493     1   111.0400475 552.288000
  10473  10471  10491     1   110.1900474 564.840000
  10474  10475  10479     1   110.1900474 564.840000
  10474  10475  10488     1   107.9700462 569.024000
  10474  10473  10480     1   110.1900474 564.840000
  10475  10474  10493     1   111.0400475 552.288000
  10479  10475  10488     1   109.3800466 607.516800
  10481  10470  10488     1   107.9700462 569.024000
  10494  10495  10497     1   111.5100476 526.347200
  10494  10495  10515     1   110.1900474 564.840000
  10494  10505  10510     1   110.1900474 564.840000
  10494  10512  10499     1   112.4800480 524.673600
  10495  10497  10498     1   111.5100476 526.347200
  10495  10497  10504     1   110.1900474 564.840000
  10495  10494  10505     1   111.5100476 526.347200
  10495  10494  10512     1   107.9700462 569.024000
  10497  10498  10499     1   111.5100476 526.347200
  10497  10498  10517     1   111.0400475 552.288000
  10497  10495  10515     1   110.1900474 564.840000
  10498  10499  10503     1   110.1900474 564.840000
  10498  10499  10512     1   107.9700462 569.024000
  10498  10497  10504     1   110.1900474 564.840000
  10499  10498  10517     1   111.0400475 552.288000
  10503  10499  10512     1   109.3800466 607.516800
  10505  10494  10512     1   107.9700462 569.024000
  10519  10521  10523     1   111.6100477 551.451200
  10521  10523  10527     1   114.2100488 537.225600
  10523  10527  10528     1   109.6600471 523.836800
  10523  10527  10529     1   109.6600471 523.836800
  10527  10528  10539     1   114.2100488 537.225600
  10527  10529  10531     1   114.2100488 537.225600
  10528  10527  10529     1   109.6600471 523.836800
  10528  10539  10542     1   111.0400475 529.694400
  10529  10531  10535     1   111.0400475 529.694400
  10531  10535  10536     1   123.2000528 564.003200
  10531  10535  10567     1   112.2600482 538.062400
  10535  10567  10548     1   118.5150508 540.957728
  10536  10535  10567     1   118.8300510 581.576000
  10539  10542  10543     1   123.2000528 564.003200
  10539  10542  10591     1   112.2600482 538.062400
  10542  10591  10572     1   118.5150508 540.957728
  10543  10542  10591     1   118.8300510 581.576000
  10544  10545  10547     1   111.5100476 526.347200
  10544  10545  10565     1   110.1900474 564.840000
  10544  10555  10560     1   110.1900474 564.840000
  10544  10562  10549     1   112.4800480 524.673600
  10545  10544  10555     1   111.5100476 526.347200
  10545  10544  10562     1   107.9700462 569.024000
  10545  10547  10548     1   111.5100476 526.347200
  10545  10547  10554     1   110.1900474 564.840000
  10547  10545  10565     1   110.1900474 564.840000
  10547  10548  10549     1   111.5100476 526.347200
  10547  10548  10567     1   111.0400475 552.288000
  10548  10547  10554     1   110.1900474 564.840000
  10548  10549  10553     1   110.1900474 564.840000
  10548  10549  10562     1   107.9700462 569.024000
  10549  10548  10567     1   111.0400475 552.288000
  10553  10549  10562     1   109.3800466 607.516800
  10555  10544  10562     1   107.9700462 569.024000
  10568  10569  10571     1   111.5100476 526.347200
  10568  10569  10589     1   110.1900474 564.840000
  10568  10579  10584     1   110.1900474 564.840000
  10568  10586  10573     1   112.4800480 524.673600
  10569  10568  10579     1   111.5100476 526.347200
  10569  10568  10586     1   107.9700462 569.024000
  10569  10571  10572     1   111.5100476 526.347200
  10569  10571  10578     1   110.1900474 564.840000
  10571  10569  10589     1   110.1900474 564.840000
  10571  10572  10573     1   111.5100476 526.347200
  10571  10572  10591     1   111.0400475 552.288000
  10572  10571  10578     1   110.1900474 564.840000
  10572  10573  10577     1   110.1900474 564.840000
  10572  10573  10586     1   107.9700462 569.024000
  10573  10572  10591     1   111.0400475 552.288000
  10577  10573  10586     1   109.3800466 607.516800
  10579  10568  10586     1   107.9700462 569.024000
  10593  10595  10597     1   111.6100477 551.451200
  10595  10597  10601     1   114.2100488 537.225600
  10597  10601  10602     1   109.6600471 523.836800
  10597  10601  10603     1   109.6600471 523.836800
  10601  10602  10613     1   114.2100488 537.225600
  10601  10603  10605     1   114.2100488 537.225600
  10602  10613  10616     1   111.0400475 529.694400
  10602  10601  10603     1   109.6600471 523.836800
  10603  10605  10609     1   111.0400475 529.694400
  10605  10609  10610     1   123.2000528 564.003200
  10605  10609  10641     1   112.2600482 538.062400
  10609  10641  10622     1   118.5150508 540.957728
  10610  10609  10641     1   118.8300510 581.576000
  10613  10616  10617     1   123.2000528 564.003200
  10613  10616  10665     1   112.2600482 538.062400
  10616  10665  10646     1   118.5150508 540.957728
  10617  10616  10665     1   118.8300510 581.576000
  10618  10619  10621     1   111.5100476 526.347200
  10618  10619  10639     1   110.1900474 564.840000
  10618  10629  10634     1   110.1900474 564.840000
  10618  10636  10623     1   112.4800480 524.673600
  10619  10621  10622     1   111.5100476 526.347200
  10619  10621  10628     1   110.1900474 564.840000
  10619  10618  10629     1   111.5100476 526.347200
  10619  10618  10636     1   107.9700462 569.024000
  10621  10622  10623     1   111.5100476 526.347200
  10621  10622  10641     1   111.0400475 552.288000
  10621  10619  10639     1   110.1900474 564.840000
  10622  10623  10627     1   110.1900474 564.840000
  10622  10623  10636     1   107.9700462 569.024000
  10622  10621  10628     1   110.1900474 564.840000
  10623  10622  10641     1   111.0400475 552.288000
  10627  10623  10636     1   109.3800466 607.516800
  10629  10618  10636     1   107.9700462 569.024000
  10642  10643  10645     1   111.5100476 526.347200
  10642  10643  10663     1   110.1900474 564.840000
  10642  10653  10658     1   110.1900474 564.840000
  10642  10660  10647     1   112.4800480 524.673600
  10643  10645  10646     1   111.5100476 526.347200
  10643  10645  10652     1   110.1900474 564.840000
  10643  10642  10653     1   111.5100476 526.347200
  10643  10642  10660     1   107.9700462 569.024000
  10645  10646  10647     1   111.5100476 526.347200
  10645  10646  10665     1   111.0400475 552.288000
  10645  10643  10663     1   110.1900474 564.840000
  10646  10647  10651     1   110.1900474 564.840000
  10646  10647  10660     1   107.9700462 569.024000
  10646  10645  10652     1   110.1900474 564.840000
  10647  10646  10665     1   111.0400475 552.288000
  10651  10647  10660     1   109.3800466 607.516800
  10653  10642  10660     1   107.9700462 569.024000
  10667  10669  10671     1   111.6100477 551.451200
  10669  10671  10675     1   114.2100488 537.225600
  10671  10675  10676     1   109.6600471 523.836800
  10671  10675  10677     1   109.6600471 523.836800
  10675  10676  10687     1   114.2100488 537.225600
  10675  10677  10679     1   114.2100488 537.225600
  10676  10675  10677     1   109.6600471 523.836800
  10676  10687  10690     1   111.0400475 529.694400
  10677  10679  10683     1   111.0400475 529.694400
  10679  10683  10684     1   123.2000528 564.003200
  10679  10683  10715     1   112.2600482 538.062400
  10683  10715  10696     1   118.5150508 540.957728
  10684  10683  10715     1   118.8300510 581.576000
  10687  10690  10691     1   123.2000528 564.003200
  10687  10690  10739     1   112.2600482 538.062400
  10690  10739  10720     1   118.5150508 540.957728
  10691  10690  10739     1   118.8300510 581.576000
  10692  10693  10695     1   111.5100476 526.347200
  10692  10693  10713     1   110.1900474 564.840000
  10692  10703  10708     1   110.1900474 564.840000
  10692  10710  10697     1   112.4800480 524.673600
  10693  10692  10703     1   111.5100476 526.347200
  10693  10692  10710     1   107.9700462 569.024000
  10693  10695  10696     1   111.5100476 526.347200
  10693  10695  10702     1   110.1900474 564.840000
  10695  10693  10713     1   110.1900474 564.840000
  10695  10696  10697     1   111.5100476 526.347200
  10695  10696  10715     1   111.0400475 552.288000
  10696  10695  10702     1   110.1900474 564.840000
  10696  10697  10701     1   110.1900474 564.840000
  10696  10697  10710     1   107.9700462 569.024000
  10697  10696  10715     1   111.0400475 552.288000
  10701  10697  10710     1   109.3800466 607.516800
  10703  10692  10710     1   107.9700462 569.024000
  10716  10717  10719     1   111.5100476 526.347200
  10716  10717  10737     1   110.1900474 564.840000
  10716  10727  10732     1   110.1900474 564.840000
  10716  10734  10721     1   112.4800480 524.673600
  10717  10716  10727     1   111.5100476 526.347200
  10717  10716  10734     1   107.9700462 569.024000
  10717  10719  10720     1   111.5100476 526.347200
  10717  10719  10726     1   110.1900474 564.840000
  10719  10717  10737     1   110.1900474 564.840000
  10719  10720  10721     1   111.5100476 526.347200
  10719  10720  10739     1   111.0400475 552.288000
  10720  10719  10726     1   110.1900474 564.840000
  10720  10721  10725     1   110.1900474 564.840000
  10720  10721  10734     1   107.9700462 569.024000
  10721  10720  10739     1   111.0400475 552.288000
  10725  10721  10734     1   109.3800466 607.516800
  10727  10716  10734     1   107.9700462 569.024000
  10741  10743  10745     1   111.6100477 551.451200
  10743  10745  10749     1   114.2100488 537.225600
  10745  10749  10750     1   109.6600471 523.836800
  10745  10749  10751     1   109.6600471 523.836800
  10749  10750  10761     1   114.2100488 537.225600
  10749  10751  10753     1   114.2100488 537.225600
  10750  10761  10764     1   111.0400475 529.694400
  10750  10749  10751     1   109.6600471 523.836800
  10751  10753  10757     1   111.0400475 529.694400
  10753  10757  10758     1   123.2000528 564.003200
  10753  10757  10789     1   112.2600482 538.062400
  10757  10789  10770     1   118.5150508 540.957728
  10758  10757  10789     1   118.8300510 581.576000
  10761  10764  10765     1   123.2000528 564.003200
  10761  10764  10813     1   112.2600482 538.062400
  10764  10813  10794     1   118.5150508 540.957728
  10765  10764  10813     1   118.8300510 581.576000
  10766  10767  10769     1   111.5100476 526.347200
  10766  10767  10787     1   110.1900474 564.840000
  10766  10777  10782     1   110.1900474 564.840000
  10766  10784  10771     1   112.4800480 524.673600
  10767  10769  10770     1   111.5100476 526.347200
  10767  10769  10776     1   110.1900474 564.840000
  10767  10766  10777     1   111.5100476 526.347200
  10767  10766  10784     1   107.9700462 569.024000
  10769  10770  10771     1   111.5100476 526.347200
  10769  10770  10789     1   111.0400475 552.288000
  10769  10767  10787     1   110.1900474 564.840000
  10770  10771  10775     1   110.1900474 564.840000
  10770  10771  10784     1   107.9700462 569.024000
  10770  10769  10776     1   110.1900474 564.840000
  10771  10770  10789     1   111.0400475 552.288000
  10775  10771  10784     1   109.3800466 607.516800
  10777  10766  10784     1   107.9700462 569.024000
  10790  10791  10793     1   111.5100476 526.347200
  10790  10791  10811     1   110.1900474 564.840000
  10790  10801  10806     1   110.1900474 564.840000
  10790  10808  10795     1   112.4800480 524.673600
  10791  10793  10794     1   111.5100476 526.347200
  10791  10793  10800     1   110.1900474 564.840000
  10791  10790  10801     1   111.5100476 526.347200
  10791  10790  10808     1   107.9700462 569.024000
  10793  10794  10795     1   111.5100476 526.347200
  10793  10794  10813     1   111.0400475 552.288000
  10793  10791  10811     1   110.1900474 564.840000
  10794  10795  10799     1   110.1900474 564.840000
  10794  10795  10808     1   107.9700462 569.024000
  10794  10793  10800     1   110.1900474 564.840000
  10795  10794  10813     1   111.0400475 552.288000
  10799  10795  10808     1   109.3800466 607.516800
  10801  10790  10808     1   107.9700462 569.024000
  10815  10817  10819     1   111.6100477 551.451200
  10817  10819  10823     1   114.2100488 537.225600
  10819  10823  10824     1   109.6600471 523.836800
  10819  10823  10825     1   109.6600471 523.836800
  10823  10824  10835     1   114.2100488 537.225600
  10823  10825  10827     1   114.2100488 537.225600
  10824  10823  10825     1   109.6600471 523.836800
  10824  10835  10838     1   111.0400475 529.694400
  10825  10827  10831     1   111.0400475 529.694400
  10827  10831  10832     1   123.2000528 564.003200
  10827  10831  10863     1   112.2600482 538.062400
  10831  10863  10844     1   118.5150508 540.957728
  10832  10831  10863     1   118.8300510 581.576000
  10835  10838  10839     1   123.2000528 564.003200
  10835  10838  10887     1   112.2600482 538.062400
  10838  10887  10868     1   118.5150508 540.957728
  10839  10838  10887     1   118.8300510 581.576000
  10840  10841  10843     1   111.5100476 526.347200
  10840  10841  10861     1   110.1900474 564.840000
  10840  10851  10856     1   110.1900474 564.840000
  10840  10858  10845     1   112.4800480 524.673600
  10841  10840  10851     1   111.5100476 526.347200
  10841  10840  10858     1   107.9700462 569.024000
  10841  10843  10844     1   111.5100476 526.347200
  10841  10843  10850     1   110.1900474 564.840000
  10843  10841  10861     1   110.1900474 564.840000
  10843  10844  10845     1   111.5100476 526.347200
  10843  10844  10863     1   111.0400475 552.288000
  10844  10843  10850     1   110.1900474 564.840000
  10844  10845  10849     1   110.1900474 564.840000
  10844  10845  10858     1   107.9700462 569.024000
  10845  10844  10863     1   111.0400475 552.288000
  10849  10845  10858     1   109.3800466 607.516800
  10851  10840  10858     1   107.9700462 569.024000
  10864  10865  10867     1   111.5100476 526.347200
  10864  10865  10885     1   110.1900474 564.840000
  10864  10875  10880     1   110.1900474 564.840000
  10864  10882  10869     1   112.4800480 524.673600
  10865  10864  10875     1   111.5100476 526.347200
  10865  10864  10882     1   107.9700462 569.024000
  10865  10867  10868     1   111.5100476 526.347200
  10865  10867  10874     1   110.1900474 564.840000
  10867  10865  10885     1   110.1900474 564.840000
  10867  10868  10869     1   111.5100476 526.347200
  10867  10868  10887     1   111.0400475 552.288000
  10868  10867  10874     1   110.1900474 564.840000
  10868  10869  10873     1   110.1900474 564.840000
  10868  10869  10882     1   107.9700462 569.024000
  10869  10868  10887     1   111.0400475 552.288000
  10873  10869  10882     1   109.3800466 607.516800
  10875  10864  10882     1   107.9700462 569.024000
  10889  10891  10893     1   111.6100477 551.451200
  10891  10893  10897     1   114.2100488 537.225600
  10893  10897  10898     1   109.6600471 523.836800
  10893  10897  10899     1   109.6600471 523.836800
  10897  10898  10909     1   114.2100488 537.225600
  10897  10899  10901     1   114.2100488 537.225600
  10898  10909  10912     1   111.0400475 529.694400
  10898  10897  10899     1   109.6600471 523.836800
  10899  10901  10905     1   111.0400475 529.694400
  10901  10905  10906     1   123.2000528 564.003200
  10901  10905  10937     1   112.2600482 538.062400
  10905  10937  10918     1   118.5150508 540.957728
  10906  10905  10937     1   118.8300510 581.576000
  10909  10912  10913     1   123.2000528 564.003200
  10909  10912  10961     1   112.2600482 538.062400
  10912  10961  10942     1   118.5150508 540.957728
  10913  10912  10961     1   118.8300510 581.576000
  10914  10915  10917     1   111.5100476 526.347200
  10914  10915  10935     1   110.1900474 564.840000
  10914  10925  10930     1   110.1900474 564.840000
  10914  10932  10919     1   112.4800480 524.673600
  10915  10917  10918     1   111.5100476 526.347200
  10915  10917  10924     1   110.1900474 564.840000
  10915  10914  10925     1   111.5100476 526.347200
  10915  10914  10932     1   107.9700462 569.024000
  10917  10918  10919     1   111.5100476 526.347200
  10917  10918  10937     1   111.0400475 552.288000
  10917  10915  10935     1   110.1900474 564.840000
  10918  10919  10923     1   110.1900474 564.840000
  10918  10919  10932     1   107.9700462 569.024000
  10918  10917  10924     1   110.1900474 564.840000
  10919  10918  10937     1   111.0400475 552.288000
  10923  10919  10932     1   109.3800466 607.516800
  10925  10914  10932     1   107.9700462 569.024000
  10938  10939  10941     1   111.5100476 526.347200
  10938  10939  10959     1   110.1900474 564.840000
  10938  10949  10954     1   110.1900474 564.840000
  10938  10956  10943     1   112.4800480 524.673600
  10939  10941  10942     1   111.5100476 526.347200
  10939  10941  10948     1   110.1900474 564.840000
  10939  10938  10949     1   111.5100476 526.347200
  10939  10938  10956     1   107.9700462 569.024000
  10941  10942  10943     1   111.5100476 526.347200
  10941  10942  10961     1   111.0400475 552.288000
  10941  10939  10959     1   110.1900474 564.840000
  10942  10943  10947     1   110.1900474 564.840000
  10942  10943  10956     1   107.9700462 569.024000
  10942  10941  10948     1   110.1900474 564.840000
  10943  10942  10961     1   111.0400475 552.288000
  10947  10943  10956     1   109.3800466 607.516800
  10949  10938  10956     1   107.9700462 569.024000
  10963  10965  10967     1   111.6100477 551.451200
  10965  10967  10971     1   114.2100488 537.225600
  10967  10971  10972     1   109.6600471 523.836800
  10967  10971  10973     1   109.6600471 523.836800
  10971  10972  10983     1   114.2100488 537.225600
  10971  10973  10975     1   114.2100488 537.225600
  10972  10971  10973     1   109.6600471 523.836800
  10972  10983  10986     1   111.0400475 529.694400
  10973  10975  10979     1   111.0400475 529.694400
  10975  10979  10980     1   123.2000528 564.003200
  10975  10979  11011     1   112.2600482 538.062400
  10979  11011  10992     1   118.5150508 540.957728
  10980  10979  11011     1   118.8300510 581.576000
  10983  10986  10987     1   123.2000528 564.003200
  10983  10986  11035     1   112.2600482 538.062400
  10986  11035  11016     1   118.5150508 540.957728
  10987  10986  11035     1   118.8300510 581.576000
  10988  10989  10991     1   111.5100476 526.347200
  10988  10989  11009     1   110.1900474 564.840000
  10988  10999  11004     1   110.1900474 564.840000
  10988  11006  10993     1   112.4800480 524.673600
  10989  10988  10999     1   111.5100476 526.347200
  10989  10988  11006     1   107.9700462 569.024000
  10989  10991  10992     1   111.5100476 526.347200
  10989  10991  10998     1   110.1900474 564.840000
  10991  10989  11009     1   110.1900474 564.840000
  10991  10992  10993     1   111.5100476 526.347200
  10991  10992  11011     1   111.0400475 552.288000
  10992  10991  10998     1   110.1900474 564.840000
  10992  10993  10997     1   110.1900474 564.840000
  10992  10993  11006     1   107.9700462 569.024000
  10993  10992  11011     1   111.0400475 552.288000
  10997  10993  11006     1   109.3800466 607.516800
  10999  10988  11006     1   107.9700462 569.024000
  11012  11013  11015     1   111.5100476 526.347200
  11012  11013  11033     1   110.1900474 564.840000
  11012  11023  11028     1   110.1900474 564.840000
  11012  11030  11017     1   112.4800480 524.673600
  11013  11012  11023     1   111.5100476 526.347200
  11013  11012  11030     1   107.9700462 569.024000
  11013  11015  11016     1   111.5100476 526.347200
  11013  11015  11022     1   110.1900474 564.840000
  11015  11013  11033     1   110.1900474 564.840000
  11015  11016  11017     1   111.5100476 526.347200
  11015  11016  11035     1   111.0400475 552.288000
  11016  11015  11022     1   110.1900474 564.840000
  11016  11017  11021     1   110.1900474 564.840000
  11016  11017  11030     1   107.9700462 569.024000
  11017  11016  11035     1   111.0400475 552.288000
  11021  11017  11030     1   109.3800466 607.516800
  11023  11012  11030     1   107.9700462 569.024000
  11037  11039  11041     1   111.6100477 551.451200
  11039  11041  11045     1   114.2100488 537.225600
  11041  11045  11046     1   109.6600471 523.836800
  11041  11045  11047     1   109.6600471 523.836800
  11045  11046  11057     1   114.2100488 537.225600
  11045  11047  11049     1   114.2100488 537.225600
  11046  11057  11060     1   111.0400475 529.694400
  11046  11045  11047     1   109.6600471 523.836800
  11047  11049  11053     1   111.0400475 529.694400
  11049  11053  11054     1   123.2000528 564.003200
  11049  11053  11085     1   112.2600482 538.062400
  11053  11085  11066     1   118.5150508 540.957728
  11054  11053  11085     1   118.8300510 581.576000
  11057  11060  11061     1   123.2000528 564.003200
  11057  11060  11109     1   112.2600482 538.062400
  11060  11109  11090     1   118.5150508 540.957728
  11061  11060  11109     1   118.8300510 581.576000
  11062  11063  11065     1   111.5100476 526.347200
  11062  11063  11083     1   110.1900474 564.840000
  11062  11073  11078     1   110.1900474 564.840000
  11062  11080  11067     1   112.4800480 524.673600
  11063  11065  11066     1   111.5100476 526.347200
  11063  11065  11072     1   110.1900474 564.840000
  11063  11062  11073     1   111.5100476 526.347200
  11063  11062  11080     1   107.9700462 569.024000
  11065  11066  11067     1   111.5100476 526.347200
  11065  11066  11085     1   111.0400475 552.288000
  11065  11063  11083     1   110.1900474 564.840000
  11066  11067  11071     1   110.1900474 564.840000
  11066  11067  11080     1   107.9700462 569.024000
  11066  11065  11072     1   110.1900474 564.840000
  11067  11066  11085     1   111.0400475 552.288000
  11071  11067  11080     1   109.3800466 607.516800
  11073  11062  11080     1   107.9700462 569.024000
  11086  11087  11089     1   111.5100476 526.347200
  11086  11087  11107     1   110.1900474 564.840000
  11086  11097  11102     1   110.1900474 564.840000
  11086  11104  11091     1   112.4800480 524.673600
  11087  11089  11090     1   111.5100476 526.347200
  11087  11089  11096     1   110.1900474 564.840000
  11087  11086  11097     1   111.5100476 526.347200
  11087  11086  11104     1   107.9700462 569.024000
  11089  11090  11091     1   111.5100476 526.347200
  11089  11090  11109     1   111.0400475 552.288000
  11089  11087  11107     1   110.1900474 564.840000
  11090  11091  11095     1   110.1900474 564.840000
  11090  11091  11104     1   107.9700462 569.024000
  11090  11089  11096     1   110.1900474 564.840000
  11091  11090  11109     1   111.0400475 552.288000
  11095  11091  11104     1   109.3800466 607.516800
  11097  11086  11104     1   107.9700462 569.024000
  11111  11113  11115     1   111.6100477 551.451200
  11113  11115  11119     1   114.2100488 537.225600
  11115  11119  11120     1   109.6600471 523.836800
  11115  11119  11121     1   109.6600471 523.836800
  11119  11120  11131     1   114.2100488 537.225600
  11119  11121  11123     1   114.2100488 537.225600
  11120  11119  11121     1   109.6600471 523.836800
  11120  11131  11134     1   111.0400475 529.694400
  11121  11123  11127     1   111.0400475 529.694400
  11123  11127  11128     1   123.2000528 564.003200
  11123  11127  11159     1   112.2600482 538.062400
  11127  11159  11140     1   118.5150508 540.957728
  11128  11127  11159     1   118.8300510 581.576000
  11131  11134  11135     1   123.2000528 564.003200
  11131  11134  11183     1   112.2600482 538.062400
  11134  11183  11164     1   118.5150508 540.957728
  11135  11134  11183     1   118.8300510 581.576000
  11136  11137  11139     1   111.5100476 526.347200
  11136  11137  11157     1   110.1900474 564.840000
  11136  11147  11152     1   110.1900474 564.840000
  11136  11154  11141     1   112.4800480 524.673600
  11137  11136  11147     1   111.5100476 526.347200
  11137  11136  11154     1   107.9700462 569.024000
  11137  11139  11140     1   111.5100476 526.347200
  11137  11139  11146     1   110.1900474 564.840000
  11139  11137  11157     1   110.1900474 564.840000
  11139  11140  11141     1   111.5100476 526.347200
  11139  11140  11159     1   111.0400475 552.288000
  11140  11139  11146     1   110.1900474 564.840000
  11140  11141  11145     1   110.1900474 564.840000
  11140  11141  11154     1   107.9700462 569.024000
  11141  11140  11159     1   111.0400475 552.288000
  11145  11141  11154     1   109.3800466 607.516800
  11147  11136  11154     1   107.9700462 569.024000
  11160  11161  11163     1   111.5100476 526.347200
  11160  11161  11181     1   110.1900474 564.840000
  11160  11171  11176     1   110.1900474 564.840000
  11160  11178  11165     1   112.4800480 524.673600
  11161  11160  11171     1   111.5100476 526.347200
  11161  11160  11178     1   107.9700462 569.024000
  11161  11163  11164     1   111.5100476 526.347200
  11161  11163  11170     1   110.1900474 564.840000
  11163  11161  11181     1   110.1900474 564.840000
  11163  11164  11165     1   111.5100476 526.347200
  11163  11164  11183     1   111.0400475 552.288000
  11164  11163  11170     1   110.1900474 564.840000
  11164  11165  11169     1   110.1900474 564.840000
  11164  11165  11178     1   107.9700462 569.024000
  11165  11164  11183     1   111.0400475 552.288000
  11169  11165  11178     1   109.3800466 607.516800
  11171  11160  11178     1   107.9700462 569.024000
  11185  11187  11189     1   111.6100477 551.451200
  11187  11189  11193     1   114.2100488 537.225600
  11189  11193  11194     1   109.6600471 523.836800
  11189  11193  11195     1   109.6600471 523.836800
  11193  11194  11205     1   114.2100488 537.225600
  11193  11195  11197     1   114.2100488 537.225600
  11194  11205  11208     1   111.0400475 529.694400
  11194  11193  11195     1   109.6600471 523.836800
  11195  11197  11201     1   111.0400475 529.694400
  11197  11201  11202     1   123.2000528 564.003200
  11197  11201  11233     1   112.2600482 538.062400
  11201  11233  11214     1   118.5150508 540.957728
  11202  11201  11233     1   118.8300510 581.576000
  11205  11208  11209     1   123.2000528 564.003200
  11205  11208  11257     1   112.2600482 538.062400
  11208  11257  11238     1   118.5150508 540.957728
  11209  11208  11257     1   118.8300510 581.576000
  11210  11211  11213     1   111.5100476 526.347200
  11210  11211  11231     1   110.1900474 564.840000
  11210  11221  11226     1   110.1900474 564.840000
  11210  11228  11215     1   112.4800480 524.673600
  11211  11213  11214     1   111.5100476 526.347200
  11211  11213  11220     1   110.1900474 564.840000
  11211  11210  11221     1   111.5100476 526.347200
  11211  11210  11228     1   107.9700462 569.024000
  11213  11214  11215     1   111.5100476 526.347200
  11213  11214  11233     1   111.0400475 552.288000
  11213  11211  11231     1   110.1900474 564.840000
  11214  11215  11219     1   110.1900474 564.840000
  11214  11215  11228     1   107.9700462 569.024000
  11214  11213  11220     1   110.1900474 564.840000
  11215  11214  11233     1   111.0400475 552.288000
  11219  11215  11228     1   109.3800466 607.516800
  11221  11210  11228     1   107.9700462 569.024000
  11234  11235  11237     1   111.5100476 526.347200
  11234  11235  11255     1   110.1900474 564.840000
  11234  11245  11250     1   110.1900474 564.840000
  11234  11252  11239     1   112.4800480 524.673600
  11235  11237  11238     1   111.5100476 526.347200
  11235  11237  11244     1   110.1900474 564.840000
  11235  11234  11245     1   111.5100476 526.347200
  11235  11234  11252     1   107.9700462 569.024000
  11237  11238  11239     1   111.5100476 526.347200
  11237  11238  11257     1   111.0400475 552.288000
  11237  11235  11255     1   110.1900474 564.840000
  11238  11239  11243     1   110.1900474 564.840000
  11238  11239  11252     1   107.9700462 569.024000
  11238  11237  11244     1   110.1900474 564.840000
  11239  11238  11257     1   111.0400475 552.288000
  11243  11239  11252     1   109.3800466 607.516800
  11245  11234  11252     1   107.9700462 569.024000
  11259  11261  11263     1   111.6100477 551.451200
  11261  11263  11267     1   114.2100488 537.225600
  11263  11267  11268     1   109.6600471 523.836800
  11263  11267  11269     1   109.6600471 523.836800
  11267  11268  11279     1   114.2100488 537.225600
  11267  11269  11271     1   114.2100488 537.225600
  11268  11267  11269     1   109.6600471 523.836800
  11268  11279  11282     1   111.0400475 529.694400
  11269  11271  11275     1   111.0400475 529.694400
  11271  11275  11276     1   123.2000528 564.003200
  11271  11275  11307     1   112.2600482 538.062400
  11275  11307  11288     1   118.5150508 540.957728
  11276  11275  11307     1   118.8300510 581.576000
  11279  11282  11283     1   123.2000528 564.003200
  11279  11282  11331     1   112.2600482 538.062400
  11282  11331  11312     1   118.5150508 540.957728
  11283  11282  11331     1   118.8300510 581.576000
  11284  11285  11287     1   111.5100476 526.347200
  11284  11285  11305     1   110.1900474 564.840000
  11284  11295  11300     1   110.1900474 564.840000
  11284  11302  11289     1   112.4800480 524.673600
  11285  11284  11295     1   111.5100476 526.347200
  11285  11284  11302     1   107.9700462 569.024000
  11285  11287  11288     1   111.5100476 526.347200
  11285  11287  11294     1   110.1900474 564.840000
  11287  11285  11305     1   110.1900474 564.840000
  11287  11288  11289     1   111.5100476 526.347200
  11287  11288  11307     1   111.0400475 552.288000
  11288  11287  11294     1   110.1900474 564.840000
  11288  11289  11293     1   110.1900474 564.840000
  11288  11289  11302     1   107.9700462 569.024000
  11289  11288  11307     1   111.0400475 552.288000
  11293  11289  11302     1   109.3800466 607.516800
  11295  11284  11302     1   107.9700462 569.024000
  11308  11309  11311     1   111.5100476 526.347200
  11308  11309  11329     1   110.1900474 564.840000
  11308  11319  11324     1   110.1900474 564.840000
  11308  11326  11313     1   112.4800480 524.673600
  11309  11308  11319     1   111.5100476 526.347200
  11309  11308  11326     1   107.9700462 569.024000
  11309  11311  11312     1   111.5100476 526.347200
  11309  11311  11318     1   110.1900474 564.840000
  11311  11309  11329     1   110.1900474 564.840000
  11311  11312  11313     1   111.5100476 526.347200
  11311  11312  11331     1   111.0400475 552.288000
  11312  11311  11318     1   110.1900474 564.840000
  11312  11313  11317     1   110.1900474 564.840000
  11312  11313  11326     1   107.9700462 569.024000
  11313  11312  11331     1   111.0400475 552.288000
  11317  11313  11326     1   109.3800466 607.516800
  11319  11308  11326     1   107.9700462 569.024000
  11333  11335  11337     1   111.6100477 551.451200
  11335  11337  11341     1   114.2100488 537.225600
  11337  11341  11342     1   109.6600471 523.836800
  11337  11341  11343     1   109.6600471 523.836800
  11341  11342  11353     1   114.2100488 537.225600
  11341  11343  11345     1   114.2100488 537.225600
  11342  11353  11356     1   111.0400475 529.694400
  11342  11341  11343     1   109.6600471 523.836800
  11343  11345  11349     1   111.0400475 529.694400
  11345  11349  11350     1   123.2000528 564.003200
  11345  11349  11381     1   112.2600482 538.062400
  11349  11381  11362     1   118.5150508 540.957728
  11350  11349  11381     1   118.8300510 581.576000
  11353  11356  11357     1   123.2000528 564.003200
  11353  11356  11405     1   112.2600482 538.062400
  11356  11405  11386     1   118.5150508 540.957728
  11357  11356  11405     1   118.8300510 581.576000
  11358  11359  11361     1   111.5100476 526.347200
  11358  11359  11379     1   110.1900474 564.840000
  11358  11369  11374     1   110.1900474 564.840000
  11358  11376  11363     1   112.4800480 524.673600
  11359  11361  11362     1   111.5100476 526.347200
  11359  11361  11368     1   110.1900474 564.840000
  11359  11358  11369     1   111.5100476 526.347200
  11359  11358  11376     1   107.9700462 569.024000
  11361  11362  11363     1   111.5100476 526.347200
  11361  11362  11381     1   111.0400475 552.288000
  11361  11359  11379     1   110.1900474 564.840000
  11362  11363  11367     1   110.1900474 564.840000
  11362  11363  11376     1   107.9700462 569.024000
  11362  11361  11368     1   110.1900474 564.840000
  11363  11362  11381     1   111.0400475 552.288000
  11367  11363  11376     1   109.3800466 607.516800
  11369  11358  11376     1   107.9700462 569.024000
  11382  11383  11385     1   111.5100476 526.347200
  11382  11383  11403     1   110.1900474 564.840000
  11382  11393  11398     1   110.1900474 564.840000
  11382  11400  11387     1   112.4800480 524.673600
  11383  11385  11386     1   111.5100476 526.347200
  11383  11385  11392     1   110.1900474 564.840000
  11383  11382  11393     1   111.5100476 526.347200
  11383  11382  11400     1   107.9700462 569.024000
  11385  11386  11387     1   111.5100476 526.347200
  11385  11386  11405     1   111.0400475 552.288000
  11385  11383  11403     1   110.1900474 564.840000
  11386  11387  11391     1   110.1900474 564.840000
  11386  11387  11400     1   107.9700462 569.024000
  11386  11385  11392     1   110.1900474 564.840000
  11387  11386  11405     1   111.0400475 552.288000
  11391  11387  11400     1   109.3800466 607.516800
  11393  11382  11400     1   107.9700462 569.024000
  11407  11409  11411     1   111.6100477 551.451200
  11409  11411  11415     1   114.2100488 537.225600
  11411  11415  11416     1   109.6600471 523.836800
  11411  11415  11417     1   109.6600471 523.836800
  11415  11416  11427     1   114.2100488 537.225600
  11415  11417  11419     1   114.2100488 537.225600
  11416  11415  11417     1   109.6600471 523.836800
  11416  11427  11430     1   111.0400475 529.694400
  11417  11419  11423     1   111.0400475 529.694400
  11419  11423  11424     1   123.2000528 564.003200
  11419  11423  11455     1   112.2600482 538.062400
  11423  11455  11436     1   118.5150508 540.957728
  11424  11423  11455     1   118.8300510 581.576000
  11427  11430  11431     1   123.2000528 564.003200
  11427  11430  11479     1   112.2600482 538.062400
  11430  11479  11460     1   118.5150508 540.957728
  11431  11430  11479     1   118.8300510 581.576000
  11432  11433  11435     1   111.5100476 526.347200
  11432  11433  11453     1   110.1900474 564.840000
  11432  11443  11448     1   110.1900474 564.840000
  11432  11450  11437     1   112.4800480 524.673600
  11433  11432  11443     1   111.5100476 526.347200
  11433  11432  11450     1   107.9700462 569.024000
  11433  11435  11436     1   111.5100476 526.347200
  11433  11435  11442     1   110.1900474 564.840000
  11435  11433  11453     1   110.1900474 564.840000
  11435  11436  11437     1   111.5100476 526.347200
  11435  11436  11455     1   111.0400475 552.288000
  11436  11435  11442     1   110.1900474 564.840000
  11436  11437  11441     1   110.1900474 564.840000
  11436  11437  11450     1   107.9700462 569.024000
  11437  11436  11455     1   111.0400475 552.288000
  11441  11437  11450     1   109.3800466 607.516800
  11443  11432  11450     1   107.9700462 569.024000
  11456  11457  11459     1   111.5100476 526.347200
  11456  11457  11477     1   110.1900474 564.840000
  11456  11467  11472     1   110.1900474 564.840000
  11456  11474  11461     1   112.4800480 524.673600
  11457  11456  11467     1   111.5100476 526.347200
  11457  11456  11474     1   107.9700462 569.024000
  11457  11459  11460     1   111.5100476 526.347200
  11457  11459  11466     1   110.1900474 564.840000
  11459  11457  11477     1   110.1900474 564.840000
  11459  11460  11461     1   111.5100476 526.347200
  11459  11460  11479     1   111.0400475 552.288000
  11460  11459  11466     1   110.1900474 564.840000
  11460  11461  11465     1   110.1900474 564.840000
  11460  11461  11474     1   107.9700462 569.024000
  11461  11460  11479     1   111.0400475 552.288000
  11465  11461  11474     1   109.3800466 607.516800
  11467  11456  11474     1   107.9700462 569.024000
  11481  11483  11485     1   111.6100477 551.451200
  11483  11485  11489     1   114.2100488 537.225600
  11485  11489  11490     1   109.6600471 523.836800
  11485  11489  11491     1   109.6600471 523.836800
  11489  11490  11501     1   114.2100488 537.225600
  11489  11491  11493     1   114.2100488 537.225600
  11490  11501  11504     1   111.0400475 529.694400
  11490  11489  11491     1   109.6600471 523.836800
  11491  11493  11497     1   111.0400475 529.694400
  11493  11497  11498     1   123.2000528 564.003200
  11493  11497  11529     1   112.2600482 538.062400
  11497  11529  11510     1   118.5150508 540.957728
  11498  11497  11529     1   118.8300510 581.576000
  11501  11504  11505     1   123.2000528 564.003200
  11501  11504  11553     1   112.2600482 538.062400
  11504  11553  11534     1   118.5150508 540.957728
  11505  11504  11553     1   118.8300510 581.576000
  11506  11507  11509     1   111.5100476 526.347200
  11506  11507  11527     1   110.1900474 564.840000
  11506  11517  11522     1   110.1900474 564.840000
  11506  11524  11511     1   112.4800480 524.673600
  11507  11509  11510     1   111.5100476 526.347200
  11507  11509  11516     1   110.1900474 564.840000
  11507  11506  11517     1   111.5100476 526.347200
  11507  11506  11524     1   107.9700462 569.024000
  11509  11510  11511     1   111.5100476 526.347200
  11509  11510  11529     1   111.0400475 552.288000
  11509  11507  11527     1   110.1900474 564.840000
  11510  11511  11515     1   110.1900474 564.840000
  11510  11511  11524     1   107.9700462 569.024000
  11510  11509  11516     1   110.1900474 564.840000
  11511  11510  11529     1   111.0400475 552.288000
  11515  11511  11524     1   109.3800466 607.516800
  11517  11506  11524     1   107.9700462 569.024000
  11530  11531  11533     1   111.5100476 526.347200
  11530  11531  11551     1   110.1900474 564.840000
  11530  11541  11546     1   110.1900474 564.840000
  11530  11548  11535     1   112.4800480 524.673600
  11531  11533  11534     1   111.5100476 526.347200
  11531  11533  11540     1   110.1900474 564.840000
  11531  11530  11541     1   111.5100476 526.347200
  11531  11530  11548     1   107.9700462 569.024000
  11533  11534  11535     1   111.5100476 526.347200
  11533  11534  11553     1   111.0400475 552.288000
  11533  11531  11551     1   110.1900474 564.840000
  11534  11535  11539     1   110.1900474 564.840000
  11534  11535  11548     1   107.9700462 569.024000
  11534  11533  11540     1   110.1900474 564.840000
  11535  11534  11553     1   111.0400475 552.288000
  11539  11535  11548     1   109.3800466 607.516800
  11541  11530  11548     1   107.9700462 569.024000
  11555  11557  11559     1   111.6100477 551.451200
  11557  11559  11563     1   114.2100488 537.225600
  11559  11563  11564     1   109.6600471 523.836800
  11559  11563  11565     1   109.6600471 523.836800
  11563  11564  11575     1   114.2100488 537.225600
  11563  11565  11567     1   114.2100488 537.225600
  11564  11563  11565     1   109.6600471 523.836800
  11564  11575  11578     1   111.0400475 529.694400
  11565  11567  11571     1   111.0400475 529.694400
  11567  11571  11572     1   123.2000528 564.003200
  11567  11571  11603     1   112.2600482 538.062400
  11571  11603  11584     1   118.5150508 540.957728
  11572  11571  11603     1   118.8300510 581.576000
  11575  11578  11579     1   123.2000528 564.003200
  11575  11578  11627     1   112.2600482 538.062400
  11578  11627  11608     1   118.5150508 540.957728
  11579  11578  11627     1   118.8300510 581.576000
  11580  11581  11583     1   111.5100476 526.347200
  11580  11581  11601     1   110.1900474 564.840000
  11580  11591  11596     1   110.1900474 564.840000
  11580  11598  11585     1   112.4800480 524.673600
  11581  11580  11591     1   111.5100476 526.347200
  11581  11580  11598     1   107.9700462 569.024000
  11581  11583  11584     1   111.5100476 526.347200
  11581  11583  11590     1   110.1900474 564.840000
  11583  11581  11601     1   110.1900474 564.840000
  11583  11584  11585     1   111.5100476 526.347200
  11583  11584  11603     1   111.0400475 552.288000
  11584  11583  11590     1   110.1900474 564.840000
  11584  11585  11589     1   110.1900474 564.840000
  11584  11585  11598     1   107.9700462 569.024000
  11585  11584  11603     1   111.0400475 552.288000
  11589  11585  11598     1   109.3800466 607.516800
  11591  11580  11598     1   107.9700462 569.024000
  11604  11605  11607     1   111.5100476 526.347200
  11604  11605  11625     1   110.1900474 564.840000
  11604  11615  11620     1   110.1900474 564.840000
  11604  11622  11609     1   112.4800480 524.673600
  11605  11604  11615     1   111.5100476 526.347200
  11605  11604  11622     1   107.9700462 569.024000
  11605  11607  11608     1   111.5100476 526.347200
  11605  11607  11614     1   110.1900474 564.840000
  11607  11605  11625     1   110.1900474 564.840000
  11607  11608  11609     1   111.5100476 526.347200
  11607  11608  11627     1   111.0400475 552.288000
  11608  11607  11614     1   110.1900474 564.840000
  11608  11609  11613     1   110.1900474 564.840000
  11608  11609  11622     1   107.9700462 569.024000
  11609  11608  11627     1   111.0400475 552.288000
  11613  11609  11622     1   109.3800466 607.516800
  11615  11604  11622     1   107.9700462 569.024000
  11629  11631  11633     1   111.6100477 551.451200
  11631  11633  11637     1   114.2100488 537.225600
  11633  11637  11638     1   109.6600471 523.836800
  11633  11637  11639     1   109.6600471 523.836800
  11637  11638  11649     1   114.2100488 537.225600
  11637  11639  11641     1   114.2100488 537.225600
  11638  11649  11652     1   111.0400475 529.694400
  11638  11637  11639     1   109.6600471 523.836800
  11639  11641  11645     1   111.0400475 529.694400
  11641  11645  11646     1   123.2000528 564.003200
  11641  11645  11677     1   112.2600482 538.062400
  11645  11677  11658     1   118.5150508 540.957728
  11646  11645  11677     1   118.8300510 581.576000
  11649  11652  11653     1   123.2000528 564.003200
  11649  11652  11701     1   112.2600482 538.062400
  11652  11701  11682     1   118.5150508 540.957728
  11653  11652  11701     1   118.8300510 581.576000
  11654  11655  11657     1   111.5100476 526.347200
  11654  11655  11675     1   110.1900474 564.840000
  11654  11665  11670     1   110.1900474 564.840000
  11654  11672  11659     1   112.4800480 524.673600
  11655  11657  11658     1   111.5100476 526.347200
  11655  11657  11664     1   110.1900474 564.840000
  11655  11654  11665     1   111.5100476 526.347200
  11655  11654  11672     1   107.9700462 569.024000
  11657  11658  11659     1   111.5100476 526.347200
  11657  11658  11677     1   111.0400475 552.288000
  11657  11655  11675     1   110.1900474 564.840000
  11658  11659  11663     1   110.1900474 564.840000
  11658  11659  11672     1   107.9700462 569.024000
  11658  11657  11664     1   110.1900474 564.840000
  11659  11658  11677     1   111.0400475 552.288000
  11663  11659  11672     1   109.3800466 607.516800
  11665  11654  11672     1   107.9700462 569.024000
  11678  11679  11681     1   111.5100476 526.347200
  11678  11679  11699     1   110.1900474 564.840000
  11678  11689  11694     1   110.1900474 564.840000
  11678  11696  11683     1   112.4800480 524.673600
  11679  11681  11682     1   111.5100476 526.347200
  11679  11681  11688     1   110.1900474 564.840000
  11679  11678  11689     1   111.5100476 526.347200
  11679  11678  11696     1   107.9700462 569.024000
  11681  11682  11683     1   111.5100476 526.347200
  11681  11682  11701     1   111.0400475 552.288000
  11681  11679  11699     1   110.1900474 564.840000
  11682  11683  11687     1   110.1900474 564.840000
  11682  11683  11696     1   107.9700462 569.024000
  11682  11681  11688     1   110.1900474 564.840000
  11683  11682  11701     1   111.0400475 552.288000
  11687  11683  11696     1   109.3800466 607.516800
  11689  11678  11696     1   107.9700462 569.024000
  11703  11705  11707     1   111.6100477 551.451200
  11705  11707  11711     1   114.2100488 537.225600
  11707  11711  11712     1   109.6600471 523.836800
  11707  11711  11713     1   109.6600471 523.836800
  11711  11712  11723     1   114.2100488 537.225600
  11711  11713  11715     1   114.2100488 537.225600
  11712  11711  11713     1   109.6600471 523.836800
  11712  11723  11726     1   111.0400475 529.694400
  11713  11715  11719     1   111.0400475 529.694400
  11715  11719  11720     1   123.2000528 564.003200
  11715  11719  11751     1   112.2600482 538.062400
  11719  11751  11732     1   118.5150508 540.957728
  11720  11719  11751     1   118.8300510 581.576000
  11723  11726  11727     1   123.2000528 564.003200
  11723  11726  11775     1   112.2600482 538.062400
  11726  11775  11756     1   118.5150508 540.957728
  11727  11726  11775     1   118.8300510 581.576000
  11728  11729  11731     1   111.5100476 526.347200
  11728  11729  11749     1   110.1900474 564.840000
  11728  11739  11744     1   110.1900474 564.840000
  11728  11746  11733     1   112.4800480 524.673600
  11729  11728  11739     1   111.5100476 526.347200
  11729  11728  11746     1   107.9700462 569.024000
  11729  11731  11732     1   111.5100476 526.347200
  11729  11731  11738     1   110.1900474 564.840000
  11731  11729  11749     1   110.1900474 564.840000
  11731  11732  11733     1   111.5100476 526.347200
  11731  11732  11751     1   111.0400475 552.288000
  11732  11731  11738     1   110.1900474 564.840000
  11732  11733  11737     1   110.1900474 564.840000
  11732  11733  11746     1   107.9700462 569.024000
  11733  11732  11751     1   111.0400475 552.288000
  11737  11733  11746     1   109.3800466 607.516800
  11739  11728  11746     1   107.9700462 569.024000
  11752  11753  11755     1   111.5100476 526.347200
  11752  11753  11773     1   110.1900474 564.840000
  11752  11763  11768     1   110.1900474 564.840000
  11752  11770  11757     1   112.4800480 524.673600
  11753  11752  11763     1   111.5100476 526.347200
  11753  11752  11770     1   107.9700462 569.024000
  11753  11755  11756     1   111.5100476 526.347200
  11753  11755  11762     1   110.1900474 564.840000
  11755  11753  11773     1   110.1900474 564.840000
  11755  11756  11757     1   111.5100476 526.347200
  11755  11756  11775     1   111.0400475 552.288000
  11756  11755  11762     1   110.1900474 564.840000
  11756  11757  11761     1   110.1900474 564.840000
  11756  11757  11770     1   107.9700462 569.024000
  11757  11756  11775     1   111.0400475 552.288000
  11761  11757  11770     1   109.3800466 607.516800
  11763  11752  11770     1   107.9700462 569.024000
  11777  11779  11781     1   111.6100477 551.451200
  11779  11781  11785     1   114.2100488 537.225600
  11781  11785  11786     1   109.6600471 523.836800
  11781  11785  11787     1   109.6600471 523.836800
  11785  11786  11797     1   114.2100488 537.225600
  11785  11787  11789     1   114.2100488 537.225600
  11786  11797  11800     1   111.0400475 529.694400
  11786  11785  11787     1   109.6600471 523.836800
  11787  11789  11793     1   111.0400475 529.694400
  11789  11793  11794     1   123.2000528 564.003200
  11789  11793  11825     1   112.2600482 538.062400
  11793  11825  11806     1   118.5150508 540.957728
  11794  11793  11825     1   118.8300510 581.576000
  11797  11800  11801     1   123.2000528 564.003200
  11797  11800  11849     1   112.2600482 538.062400
  11800  11849  11830     1   118.5150508 540.957728
  11801  11800  11849     1   118.8300510 581.576000
  11802  11803  11805     1   111.5100476 526.347200
  11802  11803  11823     1   110.1900474 564.840000
  11802  11813  11818     1   110.1900474 564.840000
  11802  11820  11807     1   112.4800480 524.673600
  11803  11805  11806     1   111.5100476 526.347200
  11803  11805  11812     1   110.1900474 564.840000
  11803  11802  11813     1   111.5100476 526.347200
  11803  11802  11820     1   107.9700462 569.024000
  11805  11806  11807     1   111.5100476 526.347200
  11805  11806  11825     1   111.0400475 552.288000
  11805  11803  11823     1   110.1900474 564.840000
  11806  11807  11811     1   110.1900474 564.840000
  11806  11807  11820     1   107.9700462 569.024000
  11806  11805  11812     1   110.1900474 564.840000
  11807  11806  11825     1   111.0400475 552.288000
  11811  11807  11820     1   109.3800466 607.516800
  11813  11802  11820     1   107.9700462 569.024000
  11826  11827  11829     1   111.5100476 526.347200
  11826  11827  11847     1   110.1900474 564.840000
  11826  11837  11842     1   110.1900474 564.840000
  11826  11844  11831     1   112.4800480 524.673600
  11827  11829  11830     1   111.5100476 526.347200
  11827  11829  11836     1   110.1900474 564.840000
  11827  11826  11837     1   111.5100476 526.347200
  11827  11826  11844     1   107.9700462 569.024000
  11829  11830  11831     1   111.5100476 526.347200
  11829  11830  11849     1   111.0400475 552.288000
  11829  11827  11847     1   110.1900474 564.840000
  11830  11831  11835     1   110.1900474 564.840000
  11830  11831  11844     1   107.9700462 569.024000
  11830  11829  11836     1   110.1900474 564.840000
  11831  11830  11849     1   111.0400475 552.288000
  11835  11831  11844     1   109.3800466 607.516800
  11837  11826  11844     1   107.9700462 569.024000
  11851  11853  11855     1   111.6100477 551.451200
  11853  11855  11859     1   114.2100488 537.225600
  11855  11859  11860     1   109.6600471 523.836800
  11855  11859  11861     1   109.6600471 523.836800
  11859  11860  11871     1   114.2100488 537.225600
  11859  11861  11863     1   114.2100488 537.225600
  11860  11859  11861     1   109.6600471 523.836800
  11860  11871  11874     1   111.0400475 529.694400
  11861  11863  11867     1   111.0400475 529.694400
  11863  11867  11868     1   123.2000528 564.003200
  11863  11867  11899     1   112.2600482 538.062400
  11867  11899  11880     1   118.5150508 540.957728
  11868  11867  11899     1   118.8300510 581.576000
  11871  11874  11875     1   123.2000528 564.003200
  11871  11874  11923     1   112.2600482 538.062400
  11874  11923  11904     1   118.5150508 540.957728
  11875  11874  11923     1   118.8300510 581.576000
  11876  11877  11879     1   111.5100476 526.347200
  11876  11877  11897     1   110.1900474 564.840000
  11876  11887  11892     1   110.1900474 564.840000
  11876  11894  11881     1   112.4800480 524.673600
  11877  11876  11887     1   111.5100476 526.347200
  11877  11876  11894     1   107.9700462 569.024000
  11877  11879  11880     1   111.5100476 526.347200
  11877  11879  11886     1   110.1900474 564.840000
  11879  11877  11897     1   110.1900474 564.840000
  11879  11880  11881     1   111.5100476 526.347200
  11879  11880  11899     1   111.0400475 552.288000
  11880  11879  11886     1   110.1900474 564.840000
  11880  11881  11885     1   110.1900474 564.840000
  11880  11881  11894     1   107.9700462 569.024000
  11881  11880  11899     1   111.0400475 552.288000
  11885  11881  11894     1   109.3800466 607.516800
  11887  11876  11894     1   107.9700462 569.024000
  11900  11901  11903     1   111.5100476 526.347200
  11900  11901  11921     1   110.1900474 564.840000
  11900  11911  11916     1   110.1900474 564.840000
  11900  11918  11905     1   112.4800480 524.673600
  11901  11900  11911     1   111.5100476 526.347200
  11901  11900  11918     1   107.9700462 569.024000
  11901  11903  11904     1   111.5100476 526.347200
  11901  11903  11910     1   110.1900474 564.840000
  11903  11901  11921     1   110.1900474 564.840000
  11903  11904  11905     1   111.5100476 526.347200
  11903  11904  11923     1   111.0400475 552.288000
  11904  11903  11910     1   110.1900474 564.840000
  11904  11905  11909     1   110.1900474 564.840000
  11904  11905  11918     1   107.9700462 569.024000
  11905  11904  11923     1   111.0400475 552.288000
  11909  11905  11918     1   109.3800466 607.516800
  11911  11900  11918     1   107.9700462 569.024000
  11925  11927  11929     1   111.6100477 551.451200
  11927  11929  11933     1   114.2100488 537.225600
  11929  11933  11934     1   109.6600471 523.836800
  11929  11933  11935     1   109.6600471 523.836800
  11933  11934  11945     1   114.2100488 537.225600
  11933  11935  11937     1   114.2100488 537.225600
  11934  11945  11948     1   111.0400475 529.694400
  11934  11933  11935     1   109.6600471 523.836800
  11935  11937  11941     1   111.0400475 529.694400
  11937  11941  11942     1   123.2000528 564.003200
  11937  11941  11973     1   112.2600482 538.062400
  11941  11973  11954     1   118.5150508 540.957728
  11942  11941  11973     1   118.8300510 581.576000
  11945  11948  11949     1   123.2000528 564.003200
  11945  11948  11997     1   112.2600482 538.062400
  11948  11997  11978     1   118.5150508 540.957728
  11949  11948  11997     1   118.8300510 581.576000
  11950  11951  11953     1   111.5100476 526.347200
  11950  11951  11971     1   110.1900474 564.840000
  11950  11961  11966     1   110.1900474 564.840000
  11950  11968  11955     1   112.4800480 524.673600
  11951  11953  11954     1   111.5100476 526.347200
  11951  11953  11960     1   110.1900474 564.840000
  11951  11950  11961     1   111.5100476 526.347200
  11951  11950  11968     1   107.9700462 569.024000
  11953  11954  11955     1   111.5100476 526.347200
  11953  11954  11973     1   111.0400475 552.288000
  11953  11951  11971     1   110.1900474 564.840000
  11954  11955  11959     1   110.1900474 564.840000
  11954  11955  11968     1   107.9700462 569.024000
  11954  11953  11960     1   110.1900474 564.840000
  11955  11954  11973     1   111.0400475 552.288000
  11959  11955  11968     1   109.3800466 607.516800
  11961  11950  11968     1   107.9700462 569.024000
  11974  11975  11977     1   111.5100476 526.347200
  11974  11975  11995     1   110.1900474 564.840000
  11974  11985  11990     1   110.1900474 564.840000
  11974  11992  11979     1   112.4800480 524.673600
  11975  11977  11978     1   111.5100476 526.347200
  11975  11977  11984     1   110.1900474 564.840000
  11975  11974  11985     1   111.5100476 526.347200
  11975  11974  11992     1   107.9700462 569.024000
  11977  11978  11979     1   111.5100476 526.347200
  11977  11978  11997     1   111.0400475 552.288000
  11977  11975  11995     1   110.1900474 564.840000
  11978  11979  11983     1   110.1900474 564.840000
  11978  11979  11992     1   107.9700462 569.024000
  11978  11977  11984     1   110.1900474 564.840000
  11979  11978  11997     1   111.0400475 552.288000
  11983  11979  11992     1   109.3800466 607.516800
  11985  11974  11992     1   107.9700462 569.024000
  11999  12001  12003     1   111.6100477 551.451200
  12001  12003  12007     1   114.2100488 537.225600
  12003  12007  12008     1   109.6600471 523.836800
  12003  12007  12009     1   109.6600471 523.836800
  12007  12008  12019     1   114.2100488 537.225600
  12007  12009  12011     1   114.2100488 537.225600
  12008  12007  12009     1   109.6600471 523.836800
  12008  12019  12022     1   111.0400475 529.694400
  12009  12011  12015     1   111.0400475 529.694400
  12011  12015  12016     1   123.2000528 564.003200
  12011  12015  12047     1   112.2600482 538.062400
  12015  12047  12028     1   118.5150508 540.957728
  12016  12015  12047     1   118.8300510 581.576000
  12019  12022  12023     1   123.2000528 564.003200
  12019  12022  12071     1   112.2600482 538.062400
  12022  12071  12052     1   118.5150508 540.957728
  12023  12022  12071     1   118.8300510 581.576000
  12024  12025  12027     1   111.5100476 526.347200
  12024  12025  12045     1   110.1900474 564.840000
  12024  12035  12040     1   110.1900474 564.840000
  12024  12042  12029     1   112.4800480 524.673600
  12025  12024  12035     1   111.5100476 526.347200
  12025  12024  12042     1   107.9700462 569.024000
  12025  12027  12028     1   111.5100476 526.347200
  12025  12027  12034     1   110.1900474 564.840000
  12027  12025  12045     1   110.1900474 564.840000
  12027  12028  12029     1   111.5100476 526.347200
  12027  12028  12047     1   111.0400475 552.288000
  12028  12027  12034     1   110.1900474 564.840000
  12028  12029  12033     1   110.1900474 564.840000
  12028  12029  12042     1   107.9700462 569.024000
  12029  12028  12047     1   111.0400475 552.288000
  12033  12029  12042     1   109.3800466 607.516800
  12035  12024  12042     1   107.9700462 569.024000
  12048  12049  12051     1   111.5100476 526.347200
  12048  12049  12069     1   110.1900474 564.840000
  12048  12059  12064     1   110.1900474 564.840000
  12048  12066  12053     1   112.4800480 524.673600
  12049  12048  12059     1   111.5100476 526.347200
  12049  12048  12066     1   107.9700462 569.024000
  12049  12051  12052     1   111.5100476 526.347200
  12049  12051  12058     1   110.1900474 564.840000
  12051  12049  12069     1   110.1900474 564.840000
  12051  12052  12053     1   111.5100476 526.347200
  12051  12052  12071     1   111.0400475 552.288000
  12052  12051  12058     1   110.1900474 564.840000
  12052  12053  12057     1   110.1900474 564.840000
  12052  12053  12066     1   107.9700462 569.024000
  12053  12052  12071     1   111.0400475 552.288000
  12057  12053  12066     1   109.3800466 607.516800
  12059  12048  12066     1   107.9700462 569.024000
  12073  12075  12077     1   111.6100477 551.451200
  12075  12077  12081     1   114.2100488 537.225600
  12077  12081  12082     1   109.6600471 523.836800
  12077  12081  12083     1   109.6600471 523.836800
  12081  12082  12093     1   114.2100488 537.225600
  12081  12083  12085     1   114.2100488 537.225600
  12082  12093  12096     1   111.0400475 529.694400
  12082  12081  12083     1   109.6600471 523.836800
  12083  12085  12089     1   111.0400475 529.694400
  12085  12089  12090     1   123.2000528 564.003200
  12085  12089  12121     1   112.2600482 538.062400
  12089  12121  12102     1   118.5150508 540.957728
  12090  12089  12121     1   118.8300510 581.576000
  12093  12096  12097     1   123.2000528 564.003200
  12093  12096  12145     1   112.2600482 538.062400
  12096  12145  12126     1   118.5150508 540.957728
  12097  12096  12145     1   118.8300510 581.576000
  12098  12099  12101     1   111.5100476 526.347200
  12098  12099  12119     1   110.1900474 564.840000
  12098  12109  12114     1   110.1900474 564.840000
  12098  12116  12103     1   112.4800480 524.673600
  12099  12101  12102     1   111.5100476 526.347200
  12099  12101  12108     1   110.1900474 564.840000
  12099  12098  12109     1   111.5100476 526.347200
  12099  12098  12116     1   107.9700462 569.024000
  12101  12102  12103     1   111.5100476 526.347200
  12101  12102  12121     1   111.0400475 552.288000
  12101  12099  12119     1   110.1900474 564.840000
  12102  12103  12107     1   110.1900474 564.840000
  12102  12103  12116     1   107.9700462 569.024000
  12102  12101  12108     1   110.1900474 564.840000
  12103  12102  12121     1   111.0400475 552.288000
  12107  12103  12116     1   109.3800466 607.516800
  12109  12098  12116     1   107.9700462 569.024000
  12122  12123  12125     1   111.5100476 526.347200
  12122  12123  12143     1   110.1900474 564.840000
  12122  12133  12138     1   110.1900474 564.840000
  12122  12140  12127     1   112.4800480 524.673600
  12123  12125  12126     1   111.5100476 526.347200
  12123  12125  12132     1   110.1900474 564.840000
  12123  12122  12133     1   111.5100476 526.347200
  12123  12122  12140     1   107.9700462 569.024000
  12125  12126  12127     1   111.5100476 526.347200
  12125  12126  12145     1   111.0400475 552.288000
  12125  12123  12143     1   110.1900474 564.840000
  12126  12127  12131     1   110.1900474 564.840000
  12126  12127  12140     1   107.9700462 569.024000
  12126  12125  12132     1   110.1900474 564.840000
  12127  12126  12145     1   111.0400475 552.288000
  12131  12127  12140     1   109.3800466 607.516800
  12133  12122  12140     1   107.9700462 569.024000
  12147  12149  12151     1   111.6100477 551.451200
  12149  12151  12155     1   114.2100488 537.225600
  12151  12155  12156     1   109.6600471 523.836800
  12151  12155  12157     1   109.6600471 523.836800
  12155  12156  12167     1   114.2100488 537.225600
  12155  12157  12159     1   114.2100488 537.225600
  12156  12155  12157     1   109.6600471 523.836800
  12156  12167  12170     1   111.0400475 529.694400
  12157  12159  12163     1   111.0400475 529.694400
  12159  12163  12164     1   123.2000528 564.003200
  12159  12163  12195     1   112.2600482 538.062400
  12163  12195  12176     1   118.5150508 540.957728
  12164  12163  12195     1   118.8300510 581.576000
  12167  12170  12171     1   123.2000528 564.003200
  12167  12170  12219     1   112.2600482 538.062400
  12170  12219  12200     1   118.5150508 540.957728
  12171  12170  12219     1   118.8300510 581.576000
  12172  12173  12175     1   111.5100476 526.347200
  12172  12173  12193     1   110.1900474 564.840000
  12172  12183  12188     1   110.1900474 564.840000
  12172  12190  12177     1   112.4800480 524.673600
  12173  12172  12183     1   111.5100476 526.347200
  12173  12172  12190     1   107.9700462 569.024000
  12173  12175  12176     1   111.5100476 526.347200
  12173  12175  12182     1   110.1900474 564.840000
  12175  12173  12193     1   110.1900474 564.840000
  12175  12176  12177     1   111.5100476 526.347200
  12175  12176  12195     1   111.0400475 552.288000
  12176  12175  12182     1   110.1900474 564.840000
  12176  12177  12181     1   110.1900474 564.840000
  12176  12177  12190     1   107.9700462 569.024000
  12177  12176  12195     1   111.0400475 552.288000
  12181  12177  12190     1   109.3800466 607.516800
  12183  12172  12190     1   107.9700462 569.024000
  12196  12197  12199     1   111.5100476 526.347200
  12196  12197  12217     1   110.1900474 564.840000
  12196  12207  12212     1   110.1900474 564.840000
  12196  12214  12201     1   112.4800480 524.673600
  12197  12196  12207     1   111.5100476 526.347200
  12197  12196  12214     1   107.9700462 569.024000
  12197  12199  12200     1   111.5100476 526.347200
  12197  12199  12206     1   110.1900474 564.840000
  12199  12197  12217     1   110.1900474 564.840000
  12199  12200  12201     1   111.5100476 526.347200
  12199  12200  12219     1   111.0400475 552.288000
  12200  12199  12206     1   110.1900474 564.840000
  12200  12201  12205     1   110.1900474 564.840000
  12200  12201  12214     1   107.9700462 569.024000
  12201  12200  12219     1   111.0400475 552.288000
  12205  12201  12214     1   109.3800466 607.516800
  12207  12196  12214     1   107.9700462 569.024000
  12221  12223  12225     1   111.6100477 551.451200
  12223  12225  12229     1   114.2100488 537.225600
  12225  12229  12230     1   109.6600471 523.836800
  12225  12229  12231     1   109.6600471 523.836800
  12229  12230  12241     1   114.2100488 537.225600
  12229  12231  12233     1   114.2100488 537.225600
  12230  12241  12244     1   111.0400475 529.694400
  12230  12229  12231     1   109.6600471 523.836800
  12231  12233  12237     1   111.0400475 529.694400
  12233  12237  12238     1   123.2000528 564.003200
  12233  12237  12269     1   112.2600482 538.062400
  12237  12269  12250     1   118.5150508 540.957728
  12238  12237  12269     1   118.8300510 581.576000
  12241  12244  12245     1   123.2000528 564.003200
  12241  12244  12293     1   112.2600482 538.062400
  12244  12293  12274     1   118.5150508 540.957728
  12245  12244  12293     1   118.8300510 581.576000
  12246  12247  12249     1   111.5100476 526.347200
  12246  12247  12267     1   110.1900474 564.840000
  12246  12257  12262     1   110.1900474 564.840000
  12246  12264  12251     1   112.4800480 524.673600
  12247  12249  12250     1   111.5100476 526.347200
  12247  12249  12256     1   110.1900474 564.840000
  12247  12246  12257     1   111.5100476 526.347200
  12247  12246  12264     1   107.9700462 569.024000
  12249  12250  12251     1   111.5100476 526.347200
  12249  12250  12269     1   111.0400475 552.288000
  12249  12247  12267     1   110.1900474 564.840000
  12250  12251  12255     1   110.1900474 564.840000
  12250  12251  12264     1   107.9700462 569.024000
  12250  12249  12256     1   110.1900474 564.840000
  12251  12250  12269     1   111.0400475 552.288000
  12255  12251  12264     1   109.3800466 607.516800
  12257  12246  12264     1   107.9700462 569.024000
  12270  12271  12273     1   111.5100476 526.347200
  12270  12271  12291     1   110.1900474 564.840000
  12270  12281  12286     1   110.1900474 564.840000
  12270  12288  12275     1   112.4800480 524.673600
  12271  12273  12274     1   111.5100476 526.347200
  12271  12273  12280     1   110.1900474 564.840000
  12271  12270  12281     1   111.5100476 526.347200
  12271  12270  12288     1   107.9700462 569.024000
  12273  12274  12275     1   111.5100476 526.347200
  12273  12274  12293     1   111.0400475 552.288000
  12273  12271  12291     1   110.1900474 564.840000
  12274  12275  12279     1   110.1900474 564.840000
  12274  12275  12288     1   107.9700462 569.024000
  12274  12273  12280     1   110.1900474 564.840000
  12275  12274  12293     1   111.0400475 552.288000
  12279  12275  12288     1   109.3800466 607.516800
  12281  12270  12288     1   107.9700462 569.024000
  12295  12297  12299     1   111.6100477 551.451200
  12297  12299  12303     1   114.2100488 537.225600
  12299  12303  12304     1   109.6600471 523.836800
  12299  12303  12305     1   109.6600471 523.836800
  12303  12304  12315     1   114.2100488 537.225600
  12303  12305  12307     1   114.2100488 537.225600
  12304  12303  12305     1   109.6600471 523.836800
  12304  12315  12318     1   111.0400475 529.694400
  12305  12307  12311     1   111.0400475 529.694400
  12307  12311  12312     1   123.2000528 564.003200
  12307  12311  12343     1   112.2600482 538.062400
  12311  12343  12324     1   118.5150508 540.957728
  12312  12311  12343     1   118.8300510 581.576000
  12315  12318  12319     1   123.2000528 564.003200
  12315  12318  12367     1   112.2600482 538.062400
  12318  12367  12348     1   118.5150508 540.957728
  12319  12318  12367     1   118.8300510 581.576000
  12320  12321  12323     1   111.5100476 526.347200
  12320  12321  12341     1   110.1900474 564.840000
  12320  12331  12336     1   110.1900474 564.840000
  12320  12338  12325     1   112.4800480 524.673600
  12321  12320  12331     1   111.5100476 526.347200
  12321  12320  12338     1   107.9700462 569.024000
  12321  12323  12324     1   111.5100476 526.347200
  12321  12323  12330     1   110.1900474 564.840000
  12323  12321  12341     1   110.1900474 564.840000
  12323  12324  12325     1   111.5100476 526.347200
  12323  12324  12343     1   111.0400475 552.288000
  12324  12323  12330     1   110.1900474 564.840000
  12324  12325  12329     1   110.1900474 564.840000
  12324  12325  12338     1   107.9700462 569.024000
  12325  12324  12343     1   111.0400475 552.288000
  12329  12325  12338     1   109.3800466 607.516800
  12331  12320  12338     1   107.9700462 569.024000
  12344  12345  12347     1   111.5100476 526.347200
  12344  12345  12365     1   110.1900474 564.840000
  12344  12355  12360     1   110.1900474 564.840000
  12344  12362  12349     1   112.4800480 524.673600
  12345  12344  12355     1   111.5100476 526.347200
  12345  12344  12362     1   107.9700462 569.024000
  12345  12347  12348     1   111.5100476 526.347200
  12345  12347  12354     1   110.1900474 564.840000
  12347  12345  12365     1   110.1900474 564.840000
  12347  12348  12349     1   111.5100476 526.347200
  12347  12348  12367     1   111.0400475 552.288000
  12348  12347  12354     1   110.1900474 564.840000
  12348  12349  12353     1   110.1900474 564.840000
  12348  12349  12362     1   107.9700462 569.024000
  12349  12348  12367     1   111.0400475 552.288000
  12353  12349  12362     1   109.3800466 607.516800
  12355  12344  12362     1   107.9700462 569.024000
  12369  12371  12373     1   111.6100477 551.451200
  12371  12373  12377     1   114.2100488 537.225600
  12373  12377  12378     1   109.6600471 523.836800
  12373  12377  12379     1   109.6600471 523.836800
  12377  12378  12389     1   114.2100488 537.225600
  12377  12379  12381     1   114.2100488 537.225600
  12378  12389  12392     1   111.0400475 529.694400
  12378  12377  12379     1   109.6600471 523.836800
  12379  12381  12385     1   111.0400475 529.694400
  12381  12385  12386     1   123.2000528 564.003200
  12381  12385  12417     1   112.2600482 538.062400
  12385  12417  12398     1   118.5150508 540.957728
  12386  12385  12417     1   118.8300510 581.576000
  12389  12392  12393     1   123.2000528 564.003200
  12389  12392  12441     1   112.2600482 538.062400
  12392  12441  12422     1   118.5150508 540.957728
  12393  12392  12441     1   118.8300510 581.576000
  12394  12395  12397     1   111.5100476 526.347200
  12394  12395  12415     1   110.1900474 564.840000
  12394  12405  12410     1   110.1900474 564.840000
  12394  12412  12399     1   112.4800480 524.673600
  12395  12397  12398     1   111.5100476 526.347200
  12395  12397  12404     1   110.1900474 564.840000
  12395  12394  12405     1   111.5100476 526.347200
  12395  12394  12412     1   107.9700462 569.024000
  12397  12398  12399     1   111.5100476 526.347200
  12397  12398  12417     1   111.0400475 552.288000
  12397  12395  12415     1   110.1900474 564.840000
  12398  12399  12403     1   110.1900474 564.840000
  12398  12399  12412     1   107.9700462 569.024000
  12398  12397  12404     1   110.1900474 564.840000
  12399  12398  12417     1   111.0400475 552.288000
  12403  12399  12412     1   109.3800466 607.516800
  12405  12394  12412     1   107.9700462 569.024000
  12418  12419  12421     1   111.5100476 526.347200
  12418  12419  12439     1   110.1900474 564.840000
  12418  12429  12434     1   110.1900474 564.840000
  12418  12436  12423     1   112.4800480 524.673600
  12419  12421  12422     1   111.5100476 526.347200
  12419  12421  12428     1   110.1900474 564.840000
  12419  12418  12429     1   111.5100476 526.347200
  12419  12418  12436     1   107.9700462 569.024000
  12421  12422  12423     1   111.5100476 526.347200
  12421  12422  12441     1   111.0400475 552.288000
  12421  12419  12439     1   110.1900474 564.840000
  12422  12423  12427     1   110.1900474 564.840000
  12422  12423  12436     1   107.9700462 569.024000
  12422  12421  12428     1   110.1900474 564.840000
  12423  12422  12441     1   111.0400475 552.288000
  12427  12423  12436     1   109.3800466 607.516800
  12429  12418  12436     1   107.9700462 569.024000
  12443  12445  12447     1   111.6100477 551.451200
  12445  12447  12451     1   114.2100488 537.225600
  12447  12451  12452     1   109.6600471 523.836800
  12447  12451  12453     1   109.6600471 523.836800
  12451  12452  12463     1   114.2100488 537.225600
  12451  12453  12455     1   114.2100488 537.225600
  12452  12451  12453     1   109.6600471 523.836800
  12452  12463  12466     1   111.0400475 529.694400
  12453  12455  12459     1   111.0400475 529.694400
  12455  12459  12460     1   123.2000528 564.003200
  12455  12459  12491     1   112.2600482 538.062400
  12459  12491  12472     1   118.5150508 540.957728
  12460  12459  12491     1   118.8300510 581.576000
  12463  12466  12467     1   123.2000528 564.003200
  12463  12466  12515     1   112.2600482 538.062400
  12466  12515  12496     1   118.5150508 540.957728
  12467  12466  12515     1   118.8300510 581.576000
  12468  12469  12471     1   111.5100476 526.347200
  12468  12469  12489     1   110.1900474 564.840000
  12468  12479  12484     1   110.1900474 564.840000
  12468  12486  12473     1   112.4800480 524.673600
  12469  12468  12479     1   111.5100476 526.347200
  12469  12468  12486     1   107.9700462 569.024000
  12469  12471  12472     1   111.5100476 526.347200
  12469  12471  12478     1   110.1900474 564.840000
  12471  12469  12489     1   110.1900474 564.840000
  12471  12472  12473     1   111.5100476 526.347200
  12471  12472  12491     1   111.0400475 552.288000
  12472  12471  12478     1   110.1900474 564.840000
  12472  12473  12477     1   110.1900474 564.840000
  12472  12473  12486     1   107.9700462 569.024000
  12473  12472  12491     1   111.0400475 552.288000
  12477  12473  12486     1   109.3800466 607.516800
  12479  12468  12486     1   107.9700462 569.024000
  12492  12493  12495     1   111.5100476 526.347200
  12492  12493  12513     1   110.1900474 564.840000
  12492  12503  12508     1   110.1900474 564.840000
  12492  12510  12497     1   112.4800480 524.673600
  12493  12492  12503     1   111.5100476 526.347200
  12493  12492  12510     1   107.9700462 569.024000
  12493  12495  12496     1   111.5100476 526.347200
  12493  12495  12502     1   110.1900474 564.840000
  12495  12493  12513     1   110.1900474 564.840000
  12495  12496  12497     1   111.5100476 526.347200
  12495  12496  12515     1   111.0400475 552.288000
  12496  12495  12502     1   110.1900474 564.840000
  12496  12497  12501     1   110.1900474 564.840000
  12496  12497  12510     1   107.9700462 569.024000
  12497  12496  12515     1   111.0400475 552.288000
  12501  12497  12510     1   109.3800466 607.516800
  12503  12492  12510     1   107.9700462 569.024000
  12517  12519  12521     1   111.6100477 551.451200
  12519  12521  12525     1   114.2100488 537.225600
  12521  12525  12526     1   109.6600471 523.836800
  12521  12525  12527     1   109.6600471 523.836800
  12525  12526  12537     1   114.2100488 537.225600
  12525  12527  12529     1   114.2100488 537.225600
  12526  12537  12540     1   111.0400475 529.694400
  12526  12525  12527     1   109.6600471 523.836800
  12527  12529  12533     1   111.0400475 529.694400
  12529  12533  12534     1   123.2000528 564.003200
  12529  12533  12565     1   112.2600482 538.062400
  12533  12565  12546     1   118.5150508 540.957728
  12534  12533  12565     1   118.8300510 581.576000
  12537  12540  12541     1   123.2000528 564.003200
  12537  12540  12589     1   112.2600482 538.062400
  12540  12589  12570     1   118.5150508 540.957728
  12541  12540  12589     1   118.8300510 581.576000
  12542  12543  12545     1   111.5100476 526.347200
  12542  12543  12563     1   110.1900474 564.840000
  12542  12553  12558     1   110.1900474 564.840000
  12542  12560  12547     1   112.4800480 524.673600
  12543  12545  12546     1   111.5100476 526.347200
  12543  12545  12552     1   110.1900474 564.840000
  12543  12542  12553     1   111.5100476 526.347200
  12543  12542  12560     1   107.9700462 569.024000
  12545  12546  12547     1   111.5100476 526.347200
  12545  12546  12565     1   111.0400475 552.288000
  12545  12543  12563     1   110.1900474 564.840000
  12546  12547  12551     1   110.1900474 564.840000
  12546  12547  12560     1   107.9700462 569.024000
  12546  12545  12552     1   110.1900474 564.840000
  12547  12546  12565     1   111.0400475 552.288000
  12551  12547  12560     1   109.3800466 607.516800
  12553  12542  12560     1   107.9700462 569.024000
  12566  12567  12569     1   111.5100476 526.347200
  12566  12567  12587     1   110.1900474 564.840000
  12566  12577  12582     1   110.1900474 564.840000
  12566  12584  12571     1   112.4800480 524.673600
  12567  12569  12570     1   111.5100476 526.347200
  12567  12569  12576     1   110.1900474 564.840000
  12567  12566  12577     1   111.5100476 526.347200
  12567  12566  12584     1   107.9700462 569.024000
  12569  12570  12571     1   111.5100476 526.347200
  12569  12570  12589     1   111.0400475 552.288000
  12569  12567  12587     1   110.1900474 564.840000
  12570  12571  12575     1   110.1900474 564.840000
  12570  12571  12584     1   107.9700462 569.024000
  12570  12569  12576     1   110.1900474 564.840000
  12571  12570  12589     1   111.0400475 552.288000
  12575  12571  12584     1   109.3800466 607.516800
  12577  12566  12584     1   107.9700462 569.024000
  12591  12593  12595     1   111.6100477 551.451200
  12593  12595  12599     1   114.2100488 537.225600
  12595  12599  12600     1   109.6600471 523.836800
  12595  12599  12601     1   109.6600471 523.836800
  12599  12600  12611     1   114.2100488 537.225600
  12599  12601  12603     1   114.2100488 537.225600
  12600  12599  12601     1   109.6600471 523.836800
  12600  12611  12614     1   111.0400475 529.694400
  12601  12603  12607     1   111.0400475 529.694400
  12603  12607  12608     1   123.2000528 564.003200
  12603  12607  12639     1   112.2600482 538.062400
  12607  12639  12620     1   118.5150508 540.957728
  12608  12607  12639     1   118.8300510 581.576000
  12611  12614  12615     1   123.2000528 564.003200
  12611  12614  12663     1   112.2600482 538.062400
  12614  12663  12644     1   118.5150508 540.957728
  12615  12614  12663     1   118.8300510 581.576000
  12616  12617  12619     1   111.5100476 526.347200
  12616  12617  12637     1   110.1900474 564.840000
  12616  12627  12632     1   110.1900474 564.840000
  12616  12634  12621     1   112.4800480 524.673600
  12617  12616  12627     1   111.5100476 526.347200
  12617  12616  12634     1   107.9700462 569.024000
  12617  12619  12620     1   111.5100476 526.347200
  12617  12619  12626     1   110.1900474 564.840000
  12619  12617  12637     1   110.1900474 564.840000
  12619  12620  12621     1   111.5100476 526.347200
  12619  12620  12639     1   111.0400475 552.288000
  12620  12619  12626     1   110.1900474 564.840000
  12620  12621  12625     1   110.1900474 564.840000
  12620  12621  12634     1   107.9700462 569.024000
  12621  12620  12639     1   111.0400475 552.288000
  12625  12621  12634     1   109.3800466 607.516800
  12627  12616  12634     1   107.9700462 569.024000
  12640  12641  12643     1   111.5100476 526.347200
  12640  12641  12661     1   110.1900474 564.840000
  12640  12651  12656     1   110.1900474 564.840000
  12640  12658  12645     1   112.4800480 524.673600
  12641  12640  12651     1   111.5100476 526.347200
  12641  12640  12658     1   107.9700462 569.024000
  12641  12643  12644     1   111.5100476 526.347200
  12641  12643  12650     1   110.1900474 564.840000
  12643  12641  12661     1   110.1900474 564.840000
  12643  12644  12645     1   111.5100476 526.347200
  12643  12644  12663     1   111.0400475 552.288000
  12644  12643  12650     1   110.1900474 564.840000
  12644  12645  12649     1   110.1900474 564.840000
  12644  12645  12658     1   107.9700462 569.024000
  12645  12644  12663     1   111.0400475 552.288000
  12649  12645  12658     1   109.3800466 607.516800
  12651  12640  12658     1   107.9700462 569.024000
  12665  12667  12669     1   111.6100477 551.451200
  12667  12669  12673     1   114.2100488 537.225600
  12669  12673  12674     1   109.6600471 523.836800
  12669  12673  12675     1   109.6600471 523.836800
  12673  12674  12685     1   114.2100488 537.225600
  12673  12675  12677     1   114.2100488 537.225600
  12674  12685  12688     1   111.0400475 529.694400
  12674  12673  12675     1   109.6600471 523.836800
  12675  12677  12681     1   111.0400475 529.694400
  12677  12681  12682     1   123.2000528 564.003200
  12677  12681  12713     1   112.2600482 538.062400
  12681  12713  12694     1   118.5150508 540.957728
  12682  12681  12713     1   118.8300510 581.576000
  12685  12688  12689     1   123.2000528 564.003200
  12685  12688  12737     1   112.2600482 538.062400
  12688  12737  12718     1   118.5150508 540.957728
  12689  12688  12737     1   118.8300510 581.576000
  12690  12691  12693     1   111.5100476 526.347200
  12690  12691  12711     1   110.1900474 564.840000
  12690  12701  12706     1   110.1900474 564.840000
  12690  12708  12695     1   112.4800480 524.673600
  12691  12693  12694     1   111.5100476 526.347200
  12691  12693  12700     1   110.1900474 564.840000
  12691  12690  12701     1   111.5100476 526.347200
  12691  12690  12708     1   107.9700462 569.024000
  12693  12694  12695     1   111.5100476 526.347200
  12693  12694  12713     1   111.0400475 552.288000
  12693  12691  12711     1   110.1900474 564.840000
  12694  12695  12699     1   110.1900474 564.840000
  12694  12695  12708     1   107.9700462 569.024000
  12694  12693  12700     1   110.1900474 564.840000
  12695  12694  12713     1   111.0400475 552.288000
  12699  12695  12708     1   109.3800466 607.516800
  12701  12690  12708     1   107.9700462 569.024000
  12714  12715  12717     1   111.5100476 526.347200
  12714  12715  12735     1   110.1900474 564.840000
  12714  12725  12730     1   110.1900474 564.840000
  12714  12732  12719     1   112.4800480 524.673600
  12715  12717  12718     1   111.5100476 526.347200
  12715  12717  12724     1   110.1900474 564.840000
  12715  12714  12725     1   111.5100476 526.347200
  12715  12714  12732     1   107.9700462 569.024000
  12717  12718  12719     1   111.5100476 526.347200
  12717  12718  12737     1   111.0400475 552.288000
  12717  12715  12735     1   110.1900474 564.840000
  12718  12719  12723     1   110.1900474 564.840000
  12718  12719  12732     1   107.9700462 569.024000
  12718  12717  12724     1   110.1900474 564.840000
  12719  12718  12737     1   111.0400475 552.288000
  12723  12719  12732     1   109.3800466 607.516800
  12725  12714  12732     1   107.9700462 569.024000
      1      2     21     1   108.0100461 406.684800
      1      2     22     1   108.0100461 406.684800
      1      7     29     1   108.0100461 406.684800
      1      7     30     1   108.0100461 406.684800
      1      8     31     1   108.0100461 406.684800
      1      8     32     1   108.0100461 406.684800
      2      1     41     1   110.1100470 384.091200
      2      3     23     1   110.5600475 386.601600
      2      3     24     1   110.5600475 386.601600
      3      2     21     1   110.5600475 386.601600
      3      2     22     1   110.5600475 386.601600
      3      4     42     1   110.1100470 384.091200
      4      3     23     1   108.0100461 406.684800
      4      3     24     1   108.0100461 406.684800
      4      5     25     1   108.0100461 406.684800
      4      5     26     1   108.0100461 406.684800
      4      6     27     1   108.0100461 406.684800
      4      6     28     1   108.0100461 406.684800
      5      4     42     1   110.1100470 384.091200
      5     11     35     1   109.8000471 387.438400
      5     11     36     1   109.8000471 387.438400
      6      4     42     1   110.1100470 384.091200
      6      9     33     1   109.8000471 387.438400
      6      9     34     1   109.8000471 387.438400
      7      1     41     1   110.1100470 384.091200
      7     13     37     1   109.8000471 387.438400
      7     13     38     1   109.8000471 387.438400
      8      1     41     1   110.1100470 384.091200
      8     15     39     1   109.8000471 387.438400
      8     15     40     1   109.8000471 387.438400
      9      6     27     1   110.5600475 386.601600
      9      6     28     1   110.5600475 386.601600
     10      9     33     1   108.7700466 392.459200
     10      9     34     1   108.7700466 392.459200
     10     52     67     1   117.5500507 404.174400
     11      5     25     1   110.5600475 386.601600
     11      5     26     1   110.5600475 386.601600
     12     11     35     1   108.7700466 392.459200
     12     11     36     1   108.7700466 392.459200
     12     78     93     1   117.5500507 404.174400
     13      7     29     1   110.5600475 386.601600
     13      7     30     1   110.5600475 386.601600
     14     13     37     1   108.7700466 392.459200
     14     13     38     1   108.7700466 392.459200
     14    104    119     1   117.5500507 404.174400
     15      8     31     1   110.5600475 386.601600
     15      8     32     1   110.5600475 386.601600
     16     15     39     1   108.7700466 392.459200
     16     15     40     1   108.7700466 392.459200
     16    130    145     1   117.5500507 404.174400
     21      2     22     1   109.7500473 328.025600
     23      3     24     1   109.7500473 328.025600
     25      5     26     1   109.7500473 328.025600
     27      6     28     1   109.7500473 328.025600
     29      7     30     1   109.7500473 328.025600
     31      8     32     1   109.7500473 328.025600
     33      9     34     1   107.5800459 329.699200
     35     11     36     1   107.5800459 329.699200
     37     13     38     1   107.5800459 329.699200
     39     15     40     1   107.5800459 329.699200
     43     44     55     1   108.0100461 406.684800
     43     44     56     1   108.0100461 406.684800
     43     45     57     1   108.0100461 406.684800
     43     45     58     1   108.0100461 406.684800
     43     50     63     1   108.0100461 406.684800
     43     50     64     1   108.0100461 406.684800
     44     43     68     1   110.1100470 384.091200
     44     46     59     1   109.8000471 387.438400
     44     46     60     1   109.8000471 387.438400
     45     43     68     1   110.1100470 384.091200
     45     48     61     1   109.8000471 387.438400
     45     48     62     1   109.8000471 387.438400
     46     44     55     1   110.5600475 386.601600
     46     44     56     1   110.5600475 386.601600
     47     46     59     1   108.7700466 392.459200
     47     46     60     1   108.7700466 392.459200
     47    156    171     1   117.5500507 404.174400
     48     45     57     1   110.5600475 386.601600
     48     45     58     1   110.5600475 386.601600
     49     48     61     1   108.7700466 392.459200
     49     48     62     1   108.7700466 392.459200
     49    182    197     1   117.5500507 404.174400
     50     43     68     1   110.1100470 384.091200
     50     51     65     1   109.5600471 388.275200
     50     51     66     1   109.5600471 388.275200
     51     50     63     1   110.5600475 386.601600
     51     50     64     1   110.5600475 386.601600
     51     52     67     1   117.6800502 383.254400
     52     51     65     1   108.8800464 416.726400
     52     51     66     1   108.8800464 416.726400
     55     44     56     1   109.7500473 328.025600
     57     45     58     1   109.7500473 328.025600
     59     46     60     1   107.5800459 329.699200
     61     48     62     1   107.5800459 329.699200
     63     50     64     1   109.7500473 328.025600
     65     51     66     1   108.4600466 328.025600
     69     70     81     1   108.0100461 406.684800
     69     70     82     1   108.0100461 406.684800
     69     71     83     1   108.0100461 406.684800
     69     71     84     1   108.0100461 406.684800
     69     76     89     1   108.0100461 406.684800
     69     76     90     1   108.0100461 406.684800
     70     69     94     1   110.1100470 384.091200
     70     72     85     1   109.8000471 387.438400
     70     72     86     1   109.8000471 387.438400
     71     69     94     1   110.1100470 384.091200
     71     74     87     1   109.8000471 387.438400
     71     74     88     1   109.8000471 387.438400
     72     70     81     1   110.5600475 386.601600
     72     70     82     1   110.5600475 386.601600
     73     72     85     1   108.7700466 392.459200
     73     72     86     1   108.7700466 392.459200
     73    208    223     1   117.5500507 404.174400
     74     71     83     1   110.5600475 386.601600
     74     71     84     1   110.5600475 386.601600
     75     74     87     1   108.7700466 392.459200
     75     74     88     1   108.7700466 392.459200
     75    234    249     1   117.5500507 404.174400
     76     69     94     1   110.1100470 384.091200
     76     77     91     1   109.5600471 388.275200
     76     77     92     1   109.5600471 388.275200
     77     76     89     1   110.5600475 386.601600
     77     76     90     1   110.5600475 386.601600
     77     78     93     1   117.6800502 383.254400
     78     77     91     1   108.8800464 416.726400
     78     77     92     1   108.8800464 416.726400
     81     70     82     1   109.7500473 328.025600
     83     71     84     1   109.7500473 328.025600
     85     72     86     1   107.5800459 329.699200
     87     74     88     1   107.5800459 329.699200
     89     76     90     1   109.7500473 328.025600
     91     77     92     1   108.4600466 328.025600
     95     96    107     1   108.0100461 406.684800
     95     96    108     1   108.0100461 406.684800
     95     97    109     1   108.0100461 406.684800
     95     97    110     1   108.0100461 406.684800
     95    102    115     1   108.0100461 406.684800
     95    102    116     1   108.0100461 406.684800
     96     95    120     1   110.1100470 384.091200
     96     98    111     1   109.8000471 387.438400
     96     98    112     1   109.8000471 387.438400
     97     95    120     1   110.1100470 384.091200
     97    100    113     1   109.8000471 387.438400
     97    100    114     1   109.8000471 387.438400
     98     96    107     1   110.5600475 386.601600
     98     96    108     1   110.5600475 386.601600
     99     98    111     1   108.7700466 392.459200
     99     98    112     1   108.7700466 392.459200
     99    260    275     1   117.5500507 404.174400
    100     97    109     1   110.5600475 386.601600
    100     97    110     1   110.5600475 386.601600
    101    100    113     1   108.7700466 392.459200
    101    100    114     1   108.7700466 392.459200
    101    286    301     1   117.5500507 404.174400
    102     95    120     1   110.1100470 384.091200
    102    103    117     1   109.5600471 388.275200
    102    103    118     1   109.5600471 388.275200
    103    102    115     1   110.5600475 386.601600
    103    102    116     1   110.5600475 386.601600
    103    104    119     1   117.6800502 383.254400
    104    103    117     1   108.8800464 416.726400
    104    103    118     1   108.8800464 416.726400
    107     96    108     1   109.7500473 328.025600
    109     97    110     1   109.7500473 328.025600
    111     98    112     1   107.5800459 329.699200
    113    100    114     1   107.5800459 329.699200
    115    102    116     1   109.7500473 328.025600
    117    103    118     1   108.4600466 328.025600
    121    122    133     1   108.0100461 406.684800
    121    122    134     1   108.0100461 406.684800
    121    123    135     1   108.0100461 406.684800
    121    123    136     1   108.0100461 406.684800
    121    128    141     1   108.0100461 406.684800
    121    128    142     1   108.0100461 406.684800
    122    121    146     1   110.1100470 384.091200
    122    124    137     1   109.8000471 387.438400
    122    124    138     1   109.8000471 387.438400
    123    121    146     1   110.1100470 384.091200
    123    126    139     1   109.8000471 387.438400
    123    126    140     1   109.8000471 387.438400
    124    122    133     1   110.5600475 386.601600
    124    122    134     1   110.5600475 386.601600
    125    124    137     1   108.7700466 392.459200
    125    124    138     1   108.7700466 392.459200
    125    312    327     1   117.5500507 404.174400
    126    123    135     1   110.5600475 386.601600
    126    123    136     1   110.5600475 386.601600
    127    126    139     1   108.7700466 392.459200
    127    126    140     1   108.7700466 392.459200
    127    338    353     1   117.5500507 404.174400
    128    121    146     1   110.1100470 384.091200
    128    129    143     1   109.5600471 388.275200
    128    129    144     1   109.5600471 388.275200
    129    128    141     1   110.5600475 386.601600
    129    128    142     1   110.5600475 386.601600
    129    130    145     1   117.6800502 383.254400
    130    129    143     1   108.8800464 416.726400
    130    129    144     1   108.8800464 416.726400
    133    122    134     1   109.7500473 328.025600
    135    123    136     1   109.7500473 328.025600
    137    124    138     1   107.5800459 329.699200
    139    126    140     1   107.5800459 329.699200
    141    128    142     1   109.7500473 328.025600
    143    129    144     1   108.4600466 328.025600
    147    148    159     1   108.0100461 406.684800
    147    148    160     1   108.0100461 406.684800
    147    149    161     1   108.0100461 406.684800
    147    149    162     1   108.0100461 406.684800
    147    154    167     1   108.0100461 406.684800
    147    154    168     1   108.0100461 406.684800
    148    147    172     1   110.1100470 384.091200
    148    150    163     1   109.8000471 387.438400
    148    150    164     1   109.8000471 387.438400
    149    147    172     1   110.1100470 384.091200
    149    152    165     1   109.8000471 387.438400
    149    152    166     1   109.8000471 387.438400
    150    148    159     1   110.5600475 386.601600
    150    148    160     1   110.5600475 386.601600
    151    150    163     1   108.7700466 392.459200
    151    150    164     1   108.7700466 392.459200
    151    364    379     1   117.5500507 404.174400
    152    149    161     1   110.5600475 386.601600
    152    149    162     1   110.5600475 386.601600
    153    152    165     1   108.7700466 392.459200
    153    152    166     1   108.7700466 392.459200
    153    390    405     1   117.5500507 404.174400
    154    147    172     1   110.1100470 384.091200
    154    155    169     1   109.5600471 388.275200
    154    155    170     1   109.5600471 388.275200
    155    154    167     1   110.5600475 386.601600
    155    154    168     1   110.5600475 386.601600
    155    156    171     1   117.6800502 383.254400
    156    155    169     1   108.8800464 416.726400
    156    155    170     1   108.8800464 416.726400
    159    148    160     1   109.7500473 328.025600
    161    149    162     1   109.7500473 328.025600
    163    150    164     1   107.5800459 329.699200
    165    152    166     1   107.5800459 329.699200
    167    154    168     1   109.7500473 328.025600
    169    155    170     1   108.4600466 328.025600
    173    174    185     1   108.0100461 406.684800
    173    174    186     1   108.0100461 406.684800
    173    175    187     1   108.0100461 406.684800
    173    175    188     1   108.0100461 406.684800
    173    180    193     1   108.0100461 406.684800
    173    180    194     1   108.0100461 406.684800
    174    173    198     1   110.1100470 384.091200
    174    176    189     1   109.8000471 387.438400
    174    176    190     1   109.8000471 387.438400
    175    173    198     1   110.1100470 384.091200
    175    178    191     1   109.8000471 387.438400
    175    178    192     1   109.8000471 387.438400
    176    174    185     1   110.5600475 386.601600
    176    174    186     1   110.5600475 386.601600
    177    176    189     1   108.7700466 392.459200
    177    176    190     1   108.7700466 392.459200
    177    416    431     1   117.5500507 404.174400
    178    175    187     1   110.5600475 386.601600
    178    175    188     1   110.5600475 386.601600
    179    178    191     1   108.7700466 392.459200
    179    178    192     1   108.7700466 392.459200
    179    442    457     1   117.5500507 404.174400
    180    173    198     1   110.1100470 384.091200
    180    181    195     1   109.5600471 388.275200
    180    181    196     1   109.5600471 388.275200
    181    180    193     1   110.5600475 386.601600
    181    180    194     1   110.5600475 386.601600
    181    182    197     1   117.6800502 383.254400
    182    181    195     1   108.8800464 416.726400
    182    181    196     1   108.8800464 416.726400
    185    174    186     1   109.7500473 328.025600
    187    175    188     1   109.7500473 328.025600
    189    176    190     1   107.5800459 329.699200
    191    178    192     1   107.5800459 329.699200
    193    180    194     1   109.7500473 328.025600
    195    181    196     1   108.4600466 328.025600
    199    200    211     1   108.0100461 406.684800
    199    200    212     1   108.0100461 406.684800
    199    201    213     1   108.0100461 406.684800
    199    201    214     1   108.0100461 406.684800
    199    206    219     1   108.0100461 406.684800
    199    206    220     1   108.0100461 406.684800
    200    199    224     1   110.1100470 384.091200
    200    202    215     1   109.8000471 387.438400
    200    202    216     1   109.8000471 387.438400
    201    199    224     1   110.1100470 384.091200
    201    204    217     1   109.8000471 387.438400
    201    204    218     1   109.8000471 387.438400
    202    200    211     1   110.5600475 386.601600
    202    200    212     1   110.5600475 386.601600
    203    202    215     1   108.7700466 392.459200
    203    202    216     1   108.7700466 392.459200
    203    468    483     1   117.5500507 404.174400
    204    201    213     1   110.5600475 386.601600
    204    201    214     1   110.5600475 386.601600
    205    204    217     1   108.7700466 392.459200
    205    204    218     1   108.7700466 392.459200
    205    494    509     1   117.5500507 404.174400
    206    199    224     1   110.1100470 384.091200
    206    207    221     1   109.5600471 388.275200
    206    207    222     1   109.5600471 388.275200
    207    206    219     1   110.5600475 386.601600
    207    206    220     1   110.5600475 386.601600
    207    208    223     1   117.6800502 383.254400
    208    207    221     1   108.8800464 416.726400
    208    207    222     1   108.8800464 416.726400
    211    200    212     1   109.7500473 328.025600
    213    201    214     1   109.7500473 328.025600
    215    202    216     1   107.5800459 329.699200
    217    204    218     1   107.5800459 329.699200
    219    206    220     1   109.7500473 328.025600
    221    207    222     1   108.4600466 328.025600
    225    226    237     1   108.0100461 406.684800
    225    226    238     1   108.0100461 406.684800
    225    227    239     1   108.0100461 406.684800
    225    227    240     1   108.0100461 406.684800
    225    232    245     1   108.0100461 406.684800
    225    232    246     1   108.0100461 406.684800
    226    225    250     1   110.1100470 384.091200
    226    228    241     1   109.8000471 387.438400
    226    228    242     1   109.8000471 387.438400
    227    225    250     1   110.1100470 384.091200
    227    230    243     1   109.8000471 387.438400
    227    230    244     1   109.8000471 387.438400
    228    226    237     1   110.5600475 386.601600
    228    226    238     1   110.5600475 386.601600
    229    228    241     1   108.7700466 392.459200
    229    228    242     1   108.7700466 392.459200
    229    520    535     1   117.5500507 404.174400
    230    227    239     1   110.5600475 386.601600
    230    227    240     1   110.5600475 386.601600
    231    230    243     1   108.7700466 392.459200
    231    230    244     1   108.7700466 392.459200
    231    546    561     1   117.5500507 404.174400
    232    225    250     1   110.1100470 384.091200
    232    233    247     1   109.5600471 388.275200
    232    233    248     1   109.5600471 388.275200
    233    232    245     1   110.5600475 386.601600
    233    232    246     1   110.5600475 386.601600
    233    234    249     1   117.6800502 383.254400
    234    233    247     1   108.8800464 416.726400
    234    233    248     1   108.8800464 416.726400
    237    226    238     1   109.7500473 328.025600
    239    227    240     1   109.7500473 328.025600
    241    228    242     1   107.5800459 329.699200
    243    230    244     1   107.5800459 329.699200
    245    232    246     1   109.7500473 328.025600
    247    233    248     1   108.4600466 328.025600
    251    252    263     1   108.0100461 406.684800
    251    252    264     1   108.0100461 406.684800
    251    253    265     1   108.0100461 406.684800
    251    253    266     1   108.0100461 406.684800
    251    258    271     1   108.0100461 406.684800
    251    258    272     1   108.0100461 406.684800
    252    251    276     1   110.1100470 384.091200
    252    254    267     1   109.8000471 387.438400
    252    254    268     1   109.8000471 387.438400
    253    251    276     1   110.1100470 384.091200
    253    256    269     1   109.8000471 387.438400
    253    256    270     1   109.8000471 387.438400
    254    252    263     1   110.5600475 386.601600
    254    252    264     1   110.5600475 386.601600
    255    254    267     1   108.7700466 392.459200
    255    254    268     1   108.7700466 392.459200
    255    572    587     1   117.5500507 404.174400
    256    253    265     1   110.5600475 386.601600
    256    253    266     1   110.5600475 386.601600
    257    256    269     1   108.7700466 392.459200
    257    256    270     1   108.7700466 392.459200
    257    598    613     1   117.5500507 404.174400
    258    251    276     1   110.1100470 384.091200
    258    259    273     1   109.5600471 388.275200
    258    259    274     1   109.5600471 388.275200
    259    258    271     1   110.5600475 386.601600
    259    258    272     1   110.5600475 386.601600
    259    260    275     1   117.6800502 383.254400
    260    259    273     1   108.8800464 416.726400
    260    259    274     1   108.8800464 416.726400
    263    252    264     1   109.7500473 328.025600
    265    253    266     1   109.7500473 328.025600
    267    254    268     1   107.5800459 329.699200
    269    256    270     1   107.5800459 329.699200
    271    258    272     1   109.7500473 328.025600
    273    259    274     1   108.4600466 328.025600
    277    278    289     1   108.0100461 406.684800
    277    278    290     1   108.0100461 406.684800
    277    279    291     1   108.0100461 406.684800
    277    279    292     1   108.0100461 406.684800
    277    284    297     1   108.0100461 406.684800
    277    284    298     1   108.0100461 406.684800
    278    277    302     1   110.1100470 384.091200
    278    280    293     1   109.8000471 387.438400
    278    280    294     1   109.8000471 387.438400
    279    277    302     1   110.1100470 384.091200
    279    282    295     1   109.8000471 387.438400
    279    282    296     1   109.8000471 387.438400
    280    278    289     1   110.5600475 386.601600
    280    278    290     1   110.5600475 386.601600
    281    280    293     1   108.7700466 392.459200
    281    280    294     1   108.7700466 392.459200
    281    624    639     1   117.5500507 404.174400
    282    279    291     1   110.5600475 386.601600
    282    279    292     1   110.5600475 386.601600
    283    282    295     1   108.7700466 392.459200
    283    282    296     1   108.7700466 392.459200
    283    650    665     1   117.5500507 404.174400
    284    277    302     1   110.1100470 384.091200
    284    285    299     1   109.5600471 388.275200
    284    285    300     1   109.5600471 388.275200
    285    284    297     1   110.5600475 386.601600
    285    284    298     1   110.5600475 386.601600
    285    286    301     1   117.6800502 383.254400
    286    285    299     1   108.8800464 416.726400
    286    285    300     1   108.8800464 416.726400
    289    278    290     1   109.7500473 328.025600
    291    279    292     1   109.7500473 328.025600
    293    280    294     1   107.5800459 329.699200
    295    282    296     1   107.5800459 329.699200
    297    284    298     1   109.7500473 328.025600
    299    285    300     1   108.4600466 328.025600
    303    304    315     1   108.0100461 406.684800
    303    304    316     1   108.0100461 406.684800
    303    305    317     1   108.0100461 406.684800
    303    305    318     1   108.0100461 406.684800
    303    310    323     1   108.0100461 406.684800
    303    310    324     1   108.0100461 406.684800
    304    303    328     1   110.1100470 384.091200
    304    306    319     1   109.8000471 387.438400
    304    306    320     1   109.8000471 387.438400
    305    303    328     1   110.1100470 384.091200
    305    308    321     1   109.8000471 387.438400
    305    308    322     1   109.8000471 387.438400
    306    304    315     1   110.5600475 386.601600
    306    304    316     1   110.5600475 386.601600
    307    306    319     1   108.7700466 392.459200
    307    306    320     1   108.7700466 392.459200
    307    676    691     1   117.5500507 404.174400
    308    305    317     1   110.5600475 386.601600
    308    305    318     1   110.5600475 386.601600
    309    308    321     1   108.7700466 392.459200
    309    308    322     1   108.7700466 392.459200
    309    702    717     1   117.5500507 404.174400
    310    303    328     1   110.1100470 384.091200
    310    311    325     1   109.5600471 388.275200
    310    311    326     1   109.5600471 388.275200
    311    310    323     1   110.5600475 386.601600
    311    310    324     1   110.5600475 386.601600
    311    312    327     1   117.6800502 383.254400
    312    311    325     1   108.8800464 416.726400
    312    311    326     1   108.8800464 416.726400
    315    304    316     1   109.7500473 328.025600
    317    305    318     1   109.7500473 328.025600
    319    306    320     1   107.5800459 329.699200
    321    308    322     1   107.5800459 329.699200
    323    310    324     1   109.7500473 328.025600
    325    311    326     1   108.4600466 328.025600
    329    330    341     1   108.0100461 406.684800
    329    330    342     1   108.0100461 406.684800
    329    331    343     1   108.0100461 406.684800
    329    331    344     1   108.0100461 406.684800
    329    336    349     1   108.0100461 406.684800
    329    336    350     1   108.0100461 406.684800
    330    329    354     1   110.1100470 384.091200
    330    332    345     1   109.8000471 387.438400
    330    332    346     1   109.8000471 387.438400
    331    329    354     1   110.1100470 384.091200
    331    334    347     1   109.8000471 387.438400
    331    334    348     1   109.8000471 387.438400
    332    330    341     1   110.5600475 386.601600
    332    330    342     1   110.5600475 386.601600
    333    332    345     1   108.7700466 392.459200
    333    332    346     1   108.7700466 392.459200
    333    728    743     1   117.5500507 404.174400
    334    331    343     1   110.5600475 386.601600
    334    331    344     1   110.5600475 386.601600
    335    334    347     1   108.7700466 392.459200
    335    334    348     1   108.7700466 392.459200
    335    754    769     1   117.5500507 404.174400
    336    329    354     1   110.1100470 384.091200
    336    337    351     1   109.5600471 388.275200
    336    337    352     1   109.5600471 388.275200
    337    336    349     1   110.5600475 386.601600
    337    336    350     1   110.5600475 386.601600
    337    338    353     1   117.6800502 383.254400
    338    337    351     1   108.8800464 416.726400
    338    337    352     1   108.8800464 416.726400
    341    330    342     1   109.7500473 328.025600
    343    331    344     1   109.7500473 328.025600
    345    332    346     1   107.5800459 329.699200
    347    334    348     1   107.5800459 329.699200
    349    336    350     1   109.7500473 328.025600
    351    337    352     1   108.4600466 328.025600
    355    356    367     1   108.0100461 406.684800
    355    356    368     1   108.0100461 406.684800
    355    357    369     1   108.0100461 406.684800
    355    357    370     1   108.0100461 406.684800
    355    362    375     1   108.0100461 406.684800
    355    362    376     1   108.0100461 406.684800
    356    355    380     1   110.1100470 384.091200
    356    358    371     1   109.8000471 387.438400
    356    358    372     1   109.8000471 387.438400
    357    355    380     1   110.1100470 384.091200
    357    360    373     1   109.8000471 387.438400
    357    360    374     1   109.8000471 387.438400
    358    356    367     1   110.5600475 386.601600
    358    356    368     1   110.5600475 386.601600
    359    358    371     1   108.7700466 392.459200
    359    358    372     1   108.7700466 392.459200
    359    780    795     1   117.5500507 404.174400
    360    357    369     1   110.5600475 386.601600
    360    357    370     1   110.5600475 386.601600
    361    360    373     1   108.7700466 392.459200
    361    360    374     1   108.7700466 392.459200
    361    806    821     1   117.5500507 404.174400
    362    355    380     1   110.1100470 384.091200
    362    363    377     1   109.5600471 388.275200
    362    363    378     1   109.5600471 388.275200
    363    362    375     1   110.5600475 386.601600
    363    362    376     1   110.5600475 386.601600
    363    364    379     1   117.6800502 383.254400
    364    363    377     1   108.8800464 416.726400
    364    363    378     1   108.8800464 416.726400
    367    356    368     1   109.7500473 328.025600
    369    357    370     1   109.7500473 328.025600
    371    358    372     1   107.5800459 329.699200
    373    360    374     1   107.5800459 329.699200
    375    362    376     1   109.7500473 328.025600
    377    363    378     1   108.4600466 328.025600
    381    382    393     1   108.0100461 406.684800
    381    382    394     1   108.0100461 406.684800
    381    383    395     1   108.0100461 406.684800
    381    383    396     1   108.0100461 406.684800
    381    388    401     1   108.0100461 406.684800
    381    388    402     1   108.0100461 406.684800
    382    381    406     1   110.1100470 384.091200
    382    384    397     1   109.8000471 387.438400
    382    384    398     1   109.8000471 387.438400
    383    381    406     1   110.1100470 384.091200
    383    386    399     1   109.8000471 387.438400
    383    386    400     1   109.8000471 387.438400
    384    382    393     1   110.5600475 386.601600
    384    382    394     1   110.5600475 386.601600
    385    384    397     1   108.7700466 392.459200
    385    384    398     1   108.7700466 392.459200
    385    832    847     1   117.5500507 404.174400
    386    383    395     1   110.5600475 386.601600
    386    383    396     1   110.5600475 386.601600
    387    386    399     1   108.7700466 392.459200
    387    386    400     1   108.7700466 392.459200
    387    858    873     1   117.5500507 404.174400
    388    381    406     1   110.1100470 384.091200
    388    389    403     1   109.5600471 388.275200
    388    389    404     1   109.5600471 388.275200
    389    388    401     1   110.5600475 386.601600
    389    388    402     1   110.5600475 386.601600
    389    390    405     1   117.6800502 383.254400
    390    389    403     1   108.8800464 416.726400
    390    389    404     1   108.8800464 416.726400
    393    382    394     1   109.7500473 328.025600
    395    383    396     1   109.7500473 328.025600
    397    384    398     1   107.5800459 329.699200
    399    386    400     1   107.5800459 329.699200
    401    388    402     1   109.7500473 328.025600
    403    389    404     1   108.4600466 328.025600
    407    408    419     1   108.0100461 406.684800
    407    408    420     1   108.0100461 406.684800
    407    409    421     1   108.0100461 406.684800
    407    409    422     1   108.0100461 406.684800
    407    414    427     1   108.0100461 406.684800
    407    414    428     1   108.0100461 406.684800
    408    407    432     1   110.1100470 384.091200
    408    410    423     1   109.8000471 387.438400
    408    410    424     1   109.8000471 387.438400
    409    407    432     1   110.1100470 384.091200
    409    412    425     1   109.8000471 387.438400
    409    412    426     1   109.8000471 387.438400
    410    408    419     1   110.5600475 386.601600
    410    408    420     1   110.5600475 386.601600
    411    410    423     1   108.7700466 392.459200
    411    410    424     1   108.7700466 392.459200
    411    884    899     1   117.5500507 404.174400
    412    409    421     1   110.5600475 386.601600
    412    409    422     1   110.5600475 386.601600
    413    412    425     1   108.7700466 392.459200
    413    412    426     1   108.7700466 392.459200
    413    910    925     1   117.5500507 404.174400
    414    407    432     1   110.1100470 384.091200
    414    415    429     1   109.5600471 388.275200
    414    415    430     1   109.5600471 388.275200
    415    414    427     1   110.5600475 386.601600
    415    414    428     1   110.5600475 386.601600
    415    416    431     1   117.6800502 383.254400
    416    415    429     1   108.8800464 416.726400
    416    415    430     1   108.8800464 416.726400
    419    408    420     1   109.7500473 328.025600
    421    409    422     1   109.7500473 328.025600
    423    410    424     1   107.5800459 329.699200
    425    412    426     1   107.5800459 329.699200
    427    414    428     1   109.7500473 328.025600
    429    415    430     1   108.4600466 328.025600
    433    434    445     1   108.0100461 406.684800
    433    434    446     1   108.0100461 406.684800
    433    435    447     1   108.0100461 406.684800
    433    435    448     1   108.0100461 406.684800
    433    440    453     1   108.0100461 406.684800
    433    440    454     1   108.0100461 406.684800
    434    433    458     1   110.1100470 384.091200
    434    436    449     1   109.8000471 387.438400
    434    436    450     1   109.8000471 387.438400
    435    433    458     1   110.1100470 384.091200
    435    438    451     1   109.8000471 387.438400
    435    438    452     1   109.8000471 387.438400
    436    434    445     1   110.5600475 386.601600
    436    434    446     1   110.5600475 386.601600
    437    436    449     1   108.7700466 392.459200
    437    436    450     1   108.7700466 392.459200
    437    936    951     1   117.5500507 404.174400
    438    435    447     1   110.5600475 386.601600
    438    435    448     1   110.5600475 386.601600
    439    438    451     1   108.7700466 392.459200
    439    438    452     1   108.7700466 392.459200
    439    962    977     1   117.5500507 404.174400
    440    433    458     1   110.1100470 384.091200
    440    441    455     1   109.5600471 388.275200
    440    441    456     1   109.5600471 388.275200
    441    440    453     1   110.5600475 386.601600
    441    440    454     1   110.5600475 386.601600
    441    442    457     1   117.6800502 383.254400
    442    441    455     1   108.8800464 416.726400
    442    441    456     1   108.8800464 416.726400
    445    434    446     1   109.7500473 328.025600
    447    435    448     1   109.7500473 328.025600
    449    436    450     1   107.5800459 329.699200
    451    438    452     1   107.5800459 329.699200
    453    440    454     1   109.7500473 328.025600
    455    441    456     1   108.4600466 328.025600
    459    460    471     1   108.0100461 406.684800
    459    460    472     1   108.0100461 406.684800
    459    461    473     1   108.0100461 406.684800
    459    461    474     1   108.0100461 406.684800
    459    466    479     1   108.0100461 406.684800
    459    466    480     1   108.0100461 406.684800
    460    459    484     1   110.1100470 384.091200
    460    462    475     1   109.8000471 387.438400
    460    462    476     1   109.8000471 387.438400
    461    459    484     1   110.1100470 384.091200
    461    464    477     1   109.8000471 387.438400
    461    464    478     1   109.8000471 387.438400
    462    460    471     1   110.5600475 386.601600
    462    460    472     1   110.5600475 386.601600
    463    462    475     1   108.7700466 392.459200
    463    462    476     1   108.7700466 392.459200
    463    988   1003     1   117.5500507 404.174400
    464    461    473     1   110.5600475 386.601600
    464    461    474     1   110.5600475 386.601600
    465    464    477     1   108.7700466 392.459200
    465    464    478     1   108.7700466 392.459200
    465   1014   1029     1   117.5500507 404.174400
    466    459    484     1   110.1100470 384.091200
    466    467    481     1   109.5600471 388.275200
    466    467    482     1   109.5600471 388.275200
    467    466    479     1   110.5600475 386.601600
    467    466    480     1   110.5600475 386.601600
    467    468    483     1   117.6800502 383.254400
    468    467    481     1   108.8800464 416.726400
    468    467    482     1   108.8800464 416.726400
    471    460    472     1   109.7500473 328.025600
    473    461    474     1   109.7500473 328.025600
    475    462    476     1   107.5800459 329.699200
    477    464    478     1   107.5800459 329.699200
    479    466    480     1   109.7500473 328.025600
    481    467    482     1   108.4600466 328.025600
    485    486    497     1   108.0100461 406.684800
    485    486    498     1   108.0100461 406.684800
    485    487    499     1   108.0100461 406.684800
    485    487    500     1   108.0100461 406.684800
    485    492    505     1   108.0100461 406.684800
    485    492    506     1   108.0100461 406.684800
    486    485    510     1   110.1100470 384.091200
    486    488    501     1   109.8000471 387.438400
    486    488    502     1   109.8000471 387.438400
    487    485    510     1   110.1100470 384.091200
    487    490    503     1   109.8000471 387.438400
    487    490    504     1   109.8000471 387.438400
    488    486    497     1   110.5600475 386.601600
    488    486    498     1   110.5600475 386.601600
    489    488    501     1   108.7700466 392.459200
    489    488    502     1   108.7700466 392.459200
    489   1040   1055     1   117.5500507 404.174400
    490    487    499     1   110.5600475 386.601600
    490    487    500     1   110.5600475 386.601600
    491    490    503     1   108.7700466 392.459200
    491    490    504     1   108.7700466 392.459200
    491   1066   1081     1   117.5500507 404.174400
    492    485    510     1   110.1100470 384.091200
    492    493    507     1   109.5600471 388.275200
    492    493    508     1   109.5600471 388.275200
    493    492    505     1   110.5600475 386.601600
    493    492    506     1   110.5600475 386.601600
    493    494    509     1   117.6800502 383.254400
    494    493    507     1   108.8800464 416.726400
    494    493    508     1   108.8800464 416.726400
    497    486    498     1   109.7500473 328.025600
    499    487    500     1   109.7500473 328.025600
    501    488    502     1   107.5800459 329.699200
    503    490    504     1   107.5800459 329.699200
    505    492    506     1   109.7500473 328.025600
    507    493    508     1   108.4600466 328.025600
    511    512    523     1   108.0100461 406.684800
    511    512    524     1   108.0100461 406.684800
    511    513    525     1   108.0100461 406.684800
    511    513    526     1   108.0100461 406.684800
    511    518    531     1   108.0100461 406.684800
    511    518    532     1   108.0100461 406.684800
    512    511    536     1   110.1100470 384.091200
    512    514    527     1   109.8000471 387.438400
    512    514    528     1   109.8000471 387.438400
    513    511    536     1   110.1100470 384.091200
    513    516    529     1   109.8000471 387.438400
    513    516    530     1   109.8000471 387.438400
    514    512    523     1   110.5600475 386.601600
    514    512    524     1   110.5600475 386.601600
    515    514    527     1   108.7700466 392.459200
    515    514    528     1   108.7700466 392.459200
    515   1092   1107     1   117.5500507 404.174400
    516    513    525     1   110.5600475 386.601600
    516    513    526     1   110.5600475 386.601600
    517    516    529     1   108.7700466 392.459200
    517    516    530     1   108.7700466 392.459200
    517   1118   1133     1   117.5500507 404.174400
    518    511    536     1   110.1100470 384.091200
    518    519    533     1   109.5600471 388.275200
    518    519    534     1   109.5600471 388.275200
    519    518    531     1   110.5600475 386.601600
    519    518    532     1   110.5600475 386.601600
    519    520    535     1   117.6800502 383.254400
    520    519    533     1   108.8800464 416.726400
    520    519    534     1   108.8800464 416.726400
    523    512    524     1   109.7500473 328.025600
    525    513    526     1   109.7500473 328.025600
    527    514    528     1   107.5800459 329.699200
    529    516    530     1   107.5800459 329.699200
    531    518    532     1   109.7500473 328.025600
    533    519    534     1   108.4600466 328.025600
    537    538    549     1   108.0100461 406.684800
    537    538    550     1   108.0100461 406.684800
    537    539    551     1   108.0100461 406.684800
    537    539    552     1   108.0100461 406.684800
    537    544    557     1   108.0100461 406.684800
    537    544    558     1   108.0100461 406.684800
    538    537    562     1   110.1100470 384.091200
    538    540    553     1   109.8000471 387.438400
    538    540    554     1   109.8000471 387.438400
    539    537    562     1   110.1100470 384.091200
    539    542    555     1   109.8000471 387.438400
    539    542    556     1   109.8000471 387.438400
    540    538    549     1   110.5600475 386.601600
    540    538    550     1   110.5600475 386.601600
    541    540    553     1   108.7700466 392.459200
    541    540    554     1   108.7700466 392.459200
    541   1144   1159     1   117.5500507 404.174400
    542    539    551     1   110.5600475 386.601600
    542    539    552     1   110.5600475 386.601600
    543    542    555     1   108.7700466 392.459200
    543    542    556     1   108.7700466 392.459200
    543   1170   1185     1   117.5500507 404.174400
    544    537    562     1   110.1100470 384.091200
    544    545    559     1   109.5600471 388.275200
    544    545    560     1   109.5600471 388.275200
    545    544    557     1   110.5600475 386.601600
    545    544    558     1   110.5600475 386.601600
    545    546    561     1   117.6800502 383.254400
    546    545    559     1   108.8800464 416.726400
    546    545    560     1   108.8800464 416.726400
    549    538    550     1   109.7500473 328.025600
    551    539    552     1   109.7500473 328.025600
    553    540    554     1   107.5800459 329.699200
    555    542    556     1   107.5800459 329.699200
    557    544    558     1   109.7500473 328.025600
    559    545    560     1   108.4600466 328.025600
    563    564    575     1   108.0100461 406.684800
    563    564    576     1   108.0100461 406.684800
    563    565    577     1   108.0100461 406.684800
    563    565    578     1   108.0100461 406.684800
    563    570    583     1   108.0100461 406.684800
    563    570    584     1   108.0100461 406.684800
    564    563    588     1   110.1100470 384.091200
    564    566    579     1   109.8000471 387.438400
    564    566    580     1   109.8000471 387.438400
    565    563    588     1   110.1100470 384.091200
    565    568    581     1   109.8000471 387.438400
    565    568    582     1   109.8000471 387.438400
    566    564    575     1   110.5600475 386.601600
    566    564    576     1   110.5600475 386.601600
    567    566    579     1   108.7700466 392.459200
    567    566    580     1   108.7700466 392.459200
    567   1196   1211     1   117.5500507 404.174400
    568    565    577     1   110.5600475 386.601600
    568    565    578     1   110.5600475 386.601600
    569    568    581     1   108.7700466 392.459200
    569    568    582     1   108.7700466 392.459200
    569   1222   1237     1   117.5500507 404.174400
    570    563    588     1   110.1100470 384.091200
    570    571    585     1   109.5600471 388.275200
    570    571    586     1   109.5600471 388.275200
    571    570    583     1   110.5600475 386.601600
    571    570    584     1   110.5600475 386.601600
    571    572    587     1   117.6800502 383.254400
    572    571    585     1   108.8800464 416.726400
    572    571    586     1   108.8800464 416.726400
    575    564    576     1   109.7500473 328.025600
    577    565    578     1   109.7500473 328.025600
    579    566    580     1   107.5800459 329.699200
    581    568    582     1   107.5800459 329.699200
    583    570    584     1   109.7500473 328.025600
    585    571    586     1   108.4600466 328.025600
    589    590    601     1   108.0100461 406.684800
    589    590    602     1   108.0100461 406.684800
    589    591    603     1   108.0100461 406.684800
    589    591    604     1   108.0100461 406.684800
    589    596    609     1   108.0100461 406.684800
    589    596    610     1   108.0100461 406.684800
    590    589    614     1   110.1100470 384.091200
    590    592    605     1   109.8000471 387.438400
    590    592    606     1   109.8000471 387.438400
    591    589    614     1   110.1100470 384.091200
    591    594    607     1   109.8000471 387.438400
    591    594    608     1   109.8000471 387.438400
    592    590    601     1   110.5600475 386.601600
    592    590    602     1   110.5600475 386.601600
    593    592    605     1   108.7700466 392.459200
    593    592    606     1   108.7700466 392.459200
    593   1248   1263     1   117.5500507 404.174400
    594    591    603     1   110.5600475 386.601600
    594    591    604     1   110.5600475 386.601600
    595    594    607     1   108.7700466 392.459200
    595    594    608     1   108.7700466 392.459200
    595   1274   1289     1   117.5500507 404.174400
    596    589    614     1   110.1100470 384.091200
    596    597    611     1   109.5600471 388.275200
    596    597    612     1   109.5600471 388.275200
    597    596    609     1   110.5600475 386.601600
    597    596    610     1   110.5600475 386.601600
    597    598    613     1   117.6800502 383.254400
    598    597    611     1   108.8800464 416.726400
    598    597    612     1   108.8800464 416.726400
    601    590    602     1   109.7500473 328.025600
    603    591    604     1   109.7500473 328.025600
    605    592    606     1   107.5800459 329.699200
    607    594    608     1   107.5800459 329.699200
    609    596    610     1   109.7500473 328.025600
    611    597    612     1   108.4600466 328.025600
    615    616    627     1   108.0100461 406.684800
    615    616    628     1   108.0100461 406.684800
    615    617    629     1   108.0100461 406.684800
    615    617    630     1   108.0100461 406.684800
    615    622    635     1   108.0100461 406.684800
    615    622    636     1   108.0100461 406.684800
    616    615    640     1   110.1100470 384.091200
    616    618    631     1   109.8000471 387.438400
    616    618    632     1   109.8000471 387.438400
    617    615    640     1   110.1100470 384.091200
    617    620    633     1   109.8000471 387.438400
    617    620    634     1   109.8000471 387.438400
    618    616    627     1   110.5600475 386.601600
    618    616    628     1   110.5600475 386.601600
    619    618    631     1   108.7700466 392.459200
    619    618    632     1   108.7700466 392.459200
    619   1300   1315     1   117.5500507 404.174400
    620    617    629     1   110.5600475 386.601600
    620    617    630     1   110.5600475 386.601600
    621    620    633     1   108.7700466 392.459200
    621    620    634     1   108.7700466 392.459200
    621   1326   1341     1   117.5500507 404.174400
    622    615    640     1   110.1100470 384.091200
    622    623    637     1   109.5600471 388.275200
    622    623    638     1   109.5600471 388.275200
    623    622    635     1   110.5600475 386.601600
    623    622    636     1   110.5600475 386.601600
    623    624    639     1   117.6800502 383.254400
    624    623    637     1   108.8800464 416.726400
    624    623    638     1   108.8800464 416.726400
    627    616    628     1   109.7500473 328.025600
    629    617    630     1   109.7500473 328.025600
    631    618    632     1   107.5800459 329.699200
    633    620    634     1   107.5800459 329.699200
    635    622    636     1   109.7500473 328.025600
    637    623    638     1   108.4600466 328.025600
    641    642    653     1   108.0100461 406.684800
    641    642    654     1   108.0100461 406.684800
    641    643    655     1   108.0100461 406.684800
    641    643    656     1   108.0100461 406.684800
    641    648    661     1   108.0100461 406.684800
    641    648    662     1   108.0100461 406.684800
    642    641    666     1   110.1100470 384.091200
    642    644    657     1   109.8000471 387.438400
    642    644    658     1   109.8000471 387.438400
    643    641    666     1   110.1100470 384.091200
    643    646    659     1   109.8000471 387.438400
    643    646    660     1   109.8000471 387.438400
    644    642    653     1   110.5600475 386.601600
    644    642    654     1   110.5600475 386.601600
    645    644    657     1   108.7700466 392.459200
    645    644    658     1   108.7700466 392.459200
    645   1352   1367     1   117.5500507 404.174400
    646    643    655     1   110.5600475 386.601600
    646    643    656     1   110.5600475 386.601600
    647    646    659     1   108.7700466 392.459200
    647    646    660     1   108.7700466 392.459200
    647   1378   1393     1   117.5500507 404.174400
    648    641    666     1   110.1100470 384.091200
    648    649    663     1   109.5600471 388.275200
    648    649    664     1   109.5600471 388.275200
    649    648    661     1   110.5600475 386.601600
    649    648    662     1   110.5600475 386.601600
    649    650    665     1   117.6800502 383.254400
    650    649    663     1   108.8800464 416.726400
    650    649    664     1   108.8800464 416.726400
    653    642    654     1   109.7500473 328.025600
    655    643    656     1   109.7500473 328.025600
    657    644    658     1   107.5800459 329.699200
    659    646    660     1   107.5800459 329.699200
    661    648    662     1   109.7500473 328.025600
    663    649    664     1   108.4600466 328.025600
    667    668    679     1   108.0100461 406.684800
    667    668    680     1   108.0100461 406.684800
    667    669    681     1   108.0100461 406.684800
    667    669    682     1   108.0100461 406.684800
    667    674    687     1   108.0100461 406.684800
    667    674    688     1   108.0100461 406.684800
    668    667    692     1   110.1100470 384.091200
    668    670    683     1   109.8000471 387.438400
    668    670    684     1   109.8000471 387.438400
    669    667    692     1   110.1100470 384.091200
    669    672    685     1   109.8000471 387.438400
    669    672    686     1   109.8000471 387.438400
    670    668    679     1   110.5600475 386.601600
    670    668    680     1   110.5600475 386.601600
    671    670    683     1   108.7700466 392.459200
    671    670    684     1   108.7700466 392.459200
    671   1404   1419     1   117.5500507 404.174400
    672    669    681     1   110.5600475 386.601600
    672    669    682     1   110.5600475 386.601600
    673    672    685     1   108.7700466 392.459200
    673    672    686     1   108.7700466 392.459200
    673   1430   1445     1   117.5500507 404.174400
    674    667    692     1   110.1100470 384.091200
    674    675    689     1   109.5600471 388.275200
    674    675    690     1   109.5600471 388.275200
    675    674    687     1   110.5600475 386.601600
    675    674    688     1   110.5600475 386.601600
    675    676    691     1   117.6800502 383.254400
    676    675    689     1   108.8800464 416.726400
    676    675    690     1   108.8800464 416.726400
    679    668    680     1   109.7500473 328.025600
    681    669    682     1   109.7500473 328.025600
    683    670    684     1   107.5800459 329.699200
    685    672    686     1   107.5800459 329.699200
    687    674    688     1   109.7500473 328.025600
    689    675    690     1   108.4600466 328.025600
    693    694    705     1   108.0100461 406.684800
    693    694    706     1   108.0100461 406.684800
    693    695    707     1   108.0100461 406.684800
    693    695    708     1   108.0100461 406.684800
    693    700    713     1   108.0100461 406.684800
    693    700    714     1   108.0100461 406.684800
    694    693    718     1   110.1100470 384.091200
    694    696    709     1   109.8000471 387.438400
    694    696    710     1   109.8000471 387.438400
    695    693    718     1   110.1100470 384.091200
    695    698    711     1   109.8000471 387.438400
    695    698    712     1   109.8000471 387.438400
    696    694    705     1   110.5600475 386.601600
    696    694    706     1   110.5600475 386.601600
    697    696    709     1   108.7700466 392.459200
    697    696    710     1   108.7700466 392.459200
    697   1456   1471     1   117.5500507 404.174400
    698    695    707     1   110.5600475 386.601600
    698    695    708     1   110.5600475 386.601600
    699    698    711     1   108.7700466 392.459200
    699    698    712     1   108.7700466 392.459200
    699   1482   1497     1   117.5500507 404.174400
    700    693    718     1   110.1100470 384.091200
    700    701    715     1   109.5600471 388.275200
    700    701    716     1   109.5600471 388.275200
    701    700    713     1   110.5600475 386.601600
    701    700    714     1   110.5600475 386.601600
    701    702    717     1   117.6800502 383.254400
    702    701    715     1   108.8800464 416.726400
    702    701    716     1   108.8800464 416.726400
    705    694    706     1   109.7500473 328.025600
    707    695    708     1   109.7500473 328.025600
    709    696    710     1   107.5800459 329.699200
    711    698    712     1   107.5800459 329.699200
    713    700    714     1   109.7500473 328.025600
    715    701    716     1   108.4600466 328.025600
    719    720    731     1   108.0100461 406.684800
    719    720    732     1   108.0100461 406.684800
    719    721    733     1   108.0100461 406.684800
    719    721    734     1   108.0100461 406.684800
    719    726    739     1   108.0100461 406.684800
    719    726    740     1   108.0100461 406.684800
    720    719    744     1   110.1100470 384.091200
    720    722    735     1   109.8000471 387.438400
    720    722    736     1   109.8000471 387.438400
    721    719    744     1   110.1100470 384.091200
    721    724    737     1   109.8000471 387.438400
    721    724    738     1   109.8000471 387.438400
    722    720    731     1   110.5600475 386.601600
    722    720    732     1   110.5600475 386.601600
    723    722    735     1   108.7700466 392.459200
    723    722    736     1   108.7700466 392.459200
    723   1508   1523     1   117.5500507 404.174400
    724    721    733     1   110.5600475 386.601600
    724    721    734     1   110.5600475 386.601600
    725    724    737     1   108.7700466 392.459200
    725    724    738     1   108.7700466 392.459200
    725   1534   1549     1   117.5500507 404.174400
    726    719    744     1   110.1100470 384.091200
    726    727    741     1   109.5600471 388.275200
    726    727    742     1   109.5600471 388.275200
    727    726    739     1   110.5600475 386.601600
    727    726    740     1   110.5600475 386.601600
    727    728    743     1   117.6800502 383.254400
    728    727    741     1   108.8800464 416.726400
    728    727    742     1   108.8800464 416.726400
    731    720    732     1   109.7500473 328.025600
    733    721    734     1   109.7500473 328.025600
    735    722    736     1   107.5800459 329.699200
    737    724    738     1   107.5800459 329.699200
    739    726    740     1   109.7500473 328.025600
    741    727    742     1   108.4600466 328.025600
    745    746    757     1   108.0100461 406.684800
    745    746    758     1   108.0100461 406.684800
    745    747    759     1   108.0100461 406.684800
    745    747    760     1   108.0100461 406.684800
    745    752    765     1   108.0100461 406.684800
    745    752    766     1   108.0100461 406.684800
    746    745    770     1   110.1100470 384.091200
    746    748    761     1   109.8000471 387.438400
    746    748    762     1   109.8000471 387.438400
    747    745    770     1   110.1100470 384.091200
    747    750    763     1   109.8000471 387.438400
    747    750    764     1   109.8000471 387.438400
    748    746    757     1   110.5600475 386.601600
    748    746    758     1   110.5600475 386.601600
    749    748    761     1   108.7700466 392.459200
    749    748    762     1   108.7700466 392.459200
    749   1560   1575     1   117.5500507 404.174400
    750    747    759     1   110.5600475 386.601600
    750    747    760     1   110.5600475 386.601600
    751    750    763     1   108.7700466 392.459200
    751    750    764     1   108.7700466 392.459200
    751   1586   1601     1   117.5500507 404.174400
    752    745    770     1   110.1100470 384.091200
    752    753    767     1   109.5600471 388.275200
    752    753    768     1   109.5600471 388.275200
    753    752    765     1   110.5600475 386.601600
    753    752    766     1   110.5600475 386.601600
    753    754    769     1   117.6800502 383.254400
    754    753    767     1   108.8800464 416.726400
    754    753    768     1   108.8800464 416.726400
    757    746    758     1   109.7500473 328.025600
    759    747    760     1   109.7500473 328.025600
    761    748    762     1   107.5800459 329.699200
    763    750    764     1   107.5800459 329.699200
    765    752    766     1   109.7500473 328.025600
    767    753    768     1   108.4600466 328.025600
    771    772    783     1   108.0100461 406.684800
    771    772    784     1   108.0100461 406.684800
    771    773    785     1   108.0100461 406.684800
    771    773    786     1   108.0100461 406.684800
    771    778    791     1   108.0100461 406.684800
    771    778    792     1   108.0100461 406.684800
    772    771    796     1   110.1100470 384.091200
    772    774    787     1   109.8000471 387.438400
    772    774    788     1   109.8000471 387.438400
    773    771    796     1   110.1100470 384.091200
    773    776    789     1   109.8000471 387.438400
    773    776    790     1   109.8000471 387.438400
    774    772    783     1   110.5600475 386.601600
    774    772    784     1   110.5600475 386.601600
    775    774    787     1   108.7700466 392.459200
    775    774    788     1   108.7700466 392.459200
    775   1612   1627     1   117.5500507 404.174400
    776    773    785     1   110.5600475 386.601600
    776    773    786     1   110.5600475 386.601600
    777    776    789     1   108.7700466 392.459200
    777    776    790     1   108.7700466 392.459200
    777   1638   1653     1   117.5500507 404.174400
    778    771    796     1   110.1100470 384.091200
    778    779    793     1   109.5600471 388.275200
    778    779    794     1   109.5600471 388.275200
    779    778    791     1   110.5600475 386.601600
    779    778    792     1   110.5600475 386.601600
    779    780    795     1   117.6800502 383.254400
    780    779    793     1   108.8800464 416.726400
    780    779    794     1   108.8800464 416.726400
    783    772    784     1   109.7500473 328.025600
    785    773    786     1   109.7500473 328.025600
    787    774    788     1   107.5800459 329.699200
    789    776    790     1   107.5800459 329.699200
    791    778    792     1   109.7500473 328.025600
    793    779    794     1   108.4600466 328.025600
    797    798    809     1   108.0100461 406.684800
    797    798    810     1   108.0100461 406.684800
    797    799    811     1   108.0100461 406.684800
    797    799    812     1   108.0100461 406.684800
    797    804    817     1   108.0100461 406.684800
    797    804    818     1   108.0100461 406.684800
    798    797    822     1   110.1100470 384.091200
    798    800    813     1   109.8000471 387.438400
    798    800    814     1   109.8000471 387.438400
    799    797    822     1   110.1100470 384.091200
    799    802    815     1   109.8000471 387.438400
    799    802    816     1   109.8000471 387.438400
    800    798    809     1   110.5600475 386.601600
    800    798    810     1   110.5600475 386.601600
    801    800    813     1   108.7700466 392.459200
    801    800    814     1   108.7700466 392.459200
    801   1664   1679     1   117.5500507 404.174400
    802    799    811     1   110.5600475 386.601600
    802    799    812     1   110.5600475 386.601600
    803    802    815     1   108.7700466 392.459200
    803    802    816     1   108.7700466 392.459200
    803   1690   1705     1   117.5500507 404.174400
    804    797    822     1   110.1100470 384.091200
    804    805    819     1   109.5600471 388.275200
    804    805    820     1   109.5600471 388.275200
    805    804    817     1   110.5600475 386.601600
    805    804    818     1   110.5600475 386.601600
    805    806    821     1   117.6800502 383.254400
    806    805    819     1   108.8800464 416.726400
    806    805    820     1   108.8800464 416.726400
    809    798    810     1   109.7500473 328.025600
    811    799    812     1   109.7500473 328.025600
    813    800    814     1   107.5800459 329.699200
    815    802    816     1   107.5800459 329.699200
    817    804    818     1   109.7500473 328.025600
    819    805    820     1   108.4600466 328.025600
    823    824    835     1   108.0100461 406.684800
    823    824    836     1   108.0100461 406.684800
    823    825    837     1   108.0100461 406.684800
    823    825    838     1   108.0100461 406.684800
    823    830    843     1   108.0100461 406.684800
    823    830    844     1   108.0100461 406.684800
    824    823    848     1   110.1100470 384.091200
    824    826    839     1   109.8000471 387.438400
    824    826    840     1   109.8000471 387.438400
    825    823    848     1   110.1100470 384.091200
    825    828    841     1   109.8000471 387.438400
    825    828    842     1   109.8000471 387.438400
    826    824    835     1   110.5600475 386.601600
    826    824    836     1   110.5600475 386.601600
    827    826    839     1   108.7700466 392.459200
    827    826    840     1   108.7700466 392.459200
    827   1716   1731     1   117.5500507 404.174400
    828    825    837     1   110.5600475 386.601600
    828    825    838     1   110.5600475 386.601600
    829    828    841     1   108.7700466 392.459200
    829    828    842     1   108.7700466 392.459200
    829   1742   1757     1   117.5500507 404.174400
    830    823    848     1   110.1100470 384.091200
    830    831    845     1   109.5600471 388.275200
    830    831    846     1   109.5600471 388.275200
    831    830    843     1   110.5600475 386.601600
    831    830    844     1   110.5600475 386.601600
    831    832    847     1   117.6800502 383.254400
    832    831    845     1   108.8800464 416.726400
    832    831    846     1   108.8800464 416.726400
    835    824    836     1   109.7500473 328.025600
    837    825    838     1   109.7500473 328.025600
    839    826    840     1   107.5800459 329.699200
    841    828    842     1   107.5800459 329.699200
    843    830    844     1   109.7500473 328.025600
    845    831    846     1   108.4600466 328.025600
    849    850    861     1   108.0100461 406.684800
    849    850    862     1   108.0100461 406.684800
    849    851    863     1   108.0100461 406.684800
    849    851    864     1   108.0100461 406.684800
    849    856    869     1   108.0100461 406.684800
    849    856    870     1   108.0100461 406.684800
    850    849    874     1   110.1100470 384.091200
    850    852    865     1   109.8000471 387.438400
    850    852    866     1   109.8000471 387.438400
    851    849    874     1   110.1100470 384.091200
    851    854    867     1   109.8000471 387.438400
    851    854    868     1   109.8000471 387.438400
    852    850    861     1   110.5600475 386.601600
    852    850    862     1   110.5600475 386.601600
    853    852    865     1   108.7700466 392.459200
    853    852    866     1   108.7700466 392.459200
    853   1768   1783     1   117.5500507 404.174400
    854    851    863     1   110.5600475 386.601600
    854    851    864     1   110.5600475 386.601600
    855    854    867     1   108.7700466 392.459200
    855    854    868     1   108.7700466 392.459200
    855   1794   1809     1   117.5500507 404.174400
    856    849    874     1   110.1100470 384.091200
    856    857    871     1   109.5600471 388.275200
    856    857    872     1   109.5600471 388.275200
    857    856    869     1   110.5600475 386.601600
    857    856    870     1   110.5600475 386.601600
    857    858    873     1   117.6800502 383.254400
    858    857    871     1   108.8800464 416.726400
    858    857    872     1   108.8800464 416.726400
    861    850    862     1   109.7500473 328.025600
    863    851    864     1   109.7500473 328.025600
    865    852    866     1   107.5800459 329.699200
    867    854    868     1   107.5800459 329.699200
    869    856    870     1   109.7500473 328.025600
    871    857    872     1   108.4600466 328.025600
    875    876    887     1   108.0100461 406.684800
    875    876    888     1   108.0100461 406.684800
    875    877    889     1   108.0100461 406.684800
    875    877    890     1   108.0100461 406.684800
    875    882    895     1   108.0100461 406.684800
    875    882    896     1   108.0100461 406.684800
    876    875    900     1   110.1100470 384.091200
    876    878    891     1   109.8000471 387.438400
    876    878    892     1   109.8000471 387.438400
    877    875    900     1   110.1100470 384.091200
    877    880    893     1   109.8000471 387.438400
    877    880    894     1   109.8000471 387.438400
    878    876    887     1   110.5600475 386.601600
    878    876    888     1   110.5600475 386.601600
    879    878    891     1   108.7700466 392.459200
    879    878    892     1   108.7700466 392.459200
    879   1820   1835     1   117.5500507 404.174400
    880    877    889     1   110.5600475 386.601600
    880    877    890     1   110.5600475 386.601600
    881    880    893     1   108.7700466 392.459200
    881    880    894     1   108.7700466 392.459200
    881   1846   1861     1   117.5500507 404.174400
    882    875    900     1   110.1100470 384.091200
    882    883    897     1   109.5600471 388.275200
    882    883    898     1   109.5600471 388.275200
    883    882    895     1   110.5600475 386.601600
    883    882    896     1   110.5600475 386.601600
    883    884    899     1   117.6800502 383.254400
    884    883    897     1   108.8800464 416.726400
    884    883    898     1   108.8800464 416.726400
    887    876    888     1   109.7500473 328.025600
    889    877    890     1   109.7500473 328.025600
    891    878    892     1   107.5800459 329.699200
    893    880    894     1   107.5800459 329.699200
    895    882    896     1   109.7500473 328.025600
    897    883    898     1   108.4600466 328.025600
    901    902    913     1   108.0100461 406.684800
    901    902    914     1   108.0100461 406.684800
    901    903    915     1   108.0100461 406.684800
    901    903    916     1   108.0100461 406.684800
    901    908    921     1   108.0100461 406.684800
    901    908    922     1   108.0100461 406.684800
    902    901    926     1   110.1100470 384.091200
    902    904    917     1   109.8000471 387.438400
    902    904    918     1   109.8000471 387.438400
    903    901    926     1   110.1100470 384.091200
    903    906    919     1   109.8000471 387.438400
    903    906    920     1   109.8000471 387.438400
    904    902    913     1   110.5600475 386.601600
    904    902    914     1   110.5600475 386.601600
    905    904    917     1   108.7700466 392.459200
    905    904    918     1   108.7700466 392.459200
    905   1872   1887     1   117.5500507 404.174400
    906    903    915     1   110.5600475 386.601600
    906    903    916     1   110.5600475 386.601600
    907    906    919     1   108.7700466 392.459200
    907    906    920     1   108.7700466 392.459200
    907   1898   1913     1   117.5500507 404.174400
    908    901    926     1   110.1100470 384.091200
    908    909    923     1   109.5600471 388.275200
    908    909    924     1   109.5600471 388.275200
    909    908    921     1   110.5600475 386.601600
    909    908    922     1   110.5600475 386.601600
    909    910    925     1   117.6800502 383.254400
    910    909    923     1   108.8800464 416.726400
    910    909    924     1   108.8800464 416.726400
    913    902    914     1   109.7500473 328.025600
    915    903    916     1   109.7500473 328.025600
    917    904    918     1   107.5800459 329.699200
    919    906    920     1   107.5800459 329.699200
    921    908    922     1   109.7500473 328.025600
    923    909    924     1   108.4600466 328.025600
    927    928    939     1   108.0100461 406.684800
    927    928    940     1   108.0100461 406.684800
    927    929    941     1   108.0100461 406.684800
    927    929    942     1   108.0100461 406.684800
    927    934    947     1   108.0100461 406.684800
    927    934    948     1   108.0100461 406.684800
    928    927    952     1   110.1100470 384.091200
    928    930    943     1   109.8000471 387.438400
    928    930    944     1   109.8000471 387.438400
    929    927    952     1   110.1100470 384.091200
    929    932    945     1   109.8000471 387.438400
    929    932    946     1   109.8000471 387.438400
    930    928    939     1   110.5600475 386.601600
    930    928    940     1   110.5600475 386.601600
    931    930    943     1   108.7700466 392.459200
    931    930    944     1   108.7700466 392.459200
    931   1924   1939     1   117.5500507 404.174400
    932    929    941     1   110.5600475 386.601600
    932    929    942     1   110.5600475 386.601600
    933    932    945     1   108.7700466 392.459200
    933    932    946     1   108.7700466 392.459200
    933   1950   1965     1   117.5500507 404.174400
    934    927    952     1   110.1100470 384.091200
    934    935    949     1   109.5600471 388.275200
    934    935    950     1   109.5600471 388.275200
    935    934    947     1   110.5600475 386.601600
    935    934    948     1   110.5600475 386.601600
    935    936    951     1   117.6800502 383.254400
    936    935    949     1   108.8800464 416.726400
    936    935    950     1   108.8800464 416.726400
    939    928    940     1   109.7500473 328.025600
    941    929    942     1   109.7500473 328.025600
    943    930    944     1   107.5800459 329.699200
    945    932    946     1   107.5800459 329.699200
    947    934    948     1   109.7500473 328.025600
    949    935    950     1   108.4600466 328.025600
    953    954    965     1   108.0100461 406.684800
    953    954    966     1   108.0100461 406.684800
    953    955    967     1   108.0100461 406.684800
    953    955    968     1   108.0100461 406.684800
    953    960    973     1   108.0100461 406.684800
    953    960    974     1   108.0100461 406.684800
    954    953    978     1   110.1100470 384.091200
    954    956    969     1   109.8000471 387.438400
    954    956    970     1   109.8000471 387.438400
    955    953    978     1   110.1100470 384.091200
    955    958    971     1   109.8000471 387.438400
    955    958    972     1   109.8000471 387.438400
    956    954    965     1   110.5600475 386.601600
    956    954    966     1   110.5600475 386.601600
    957    956    969     1   108.7700466 392.459200
    957    956    970     1   108.7700466 392.459200
    957   1976   1991     1   117.5500507 404.174400
    958    955    967     1   110.5600475 386.601600
    958    955    968     1   110.5600475 386.601600
    959    958    971     1   108.7700466 392.459200
    959    958    972     1   108.7700466 392.459200
    959   2002   2017     1   117.5500507 404.174400
    960    953    978     1   110.1100470 384.091200
    960    961    975     1   109.5600471 388.275200
    960    961    976     1   109.5600471 388.275200
    961    960    973     1   110.5600475 386.601600
    961    960    974     1   110.5600475 386.601600
    961    962    977     1   117.6800502 383.254400
    962    961    975     1   108.8800464 416.726400
    962    961    976     1   108.8800464 416.726400
    965    954    966     1   109.7500473 328.025600
    967    955    968     1   109.7500473 328.025600
    969    956    970     1   107.5800459 329.699200
    971    958    972     1   107.5800459 329.699200
    973    960    974     1   109.7500473 328.025600
    975    961    976     1   108.4600466 328.025600
    979    980    991     1   108.0100461 406.684800
    979    980    992     1   108.0100461 406.684800
    979    981    993     1   108.0100461 406.684800
    979    981    994     1   108.0100461 406.684800
    979    986    999     1   108.0100461 406.684800
    979    986   1000     1   108.0100461 406.684800
    980    979   1004     1   110.1100470 384.091200
    980    982    995     1   109.8000471 387.438400
    980    982    996     1   109.8000471 387.438400
    981    979   1004     1   110.1100470 384.091200
    981    984    997     1   109.8000471 387.438400
    981    984    998     1   109.8000471 387.438400
    982    980    991     1   110.5600475 386.601600
    982    980    992     1   110.5600475 386.601600
    983    982    995     1   108.7700466 392.459200
    983    982    996     1   108.7700466 392.459200
    983   2028   2043     1   117.5500507 404.174400
    984    981    993     1   110.5600475 386.601600
    984    981    994     1   110.5600475 386.601600
    985    984    997     1   108.7700466 392.459200
    985    984    998     1   108.7700466 392.459200
    985   2054   2069     1   117.5500507 404.174400
    986    979   1004     1   110.1100470 384.091200
    986    987   1001     1   109.5600471 388.275200
    986    987   1002     1   109.5600471 388.275200
    987    986    999     1   110.5600475 386.601600
    987    986   1000     1   110.5600475 386.601600
    987    988   1003     1   117.6800502 383.254400
    988    987   1001     1   108.8800464 416.726400
    988    987   1002     1   108.8800464 416.726400
    991    980    992     1   109.7500473 328.025600
    993    981    994     1   109.7500473 328.025600
    995    982    996     1   107.5800459 329.699200
    997    984    998     1   107.5800459 329.699200
    999    986   1000     1   109.7500473 328.025600
   1001    987   1002     1   108.4600466 328.025600
   1005   1006   1017     1   108.0100461 406.684800
   1005   1006   1018     1   108.0100461 406.684800
   1005   1007   1019     1   108.0100461 406.684800
   1005   1007   1020     1   108.0100461 406.684800
   1005   1012   1025     1   108.0100461 406.684800
   1005   1012   1026     1   108.0100461 406.684800
   1006   1005   1030     1   110.1100470 384.091200
   1006   1008   1021     1   109.8000471 387.438400
   1006   1008   1022     1   109.8000471 387.438400
   1007   1005   1030     1   110.1100470 384.091200
   1007   1010   1023     1   109.8000471 387.438400
   1007   1010   1024     1   109.8000471 387.438400
   1008   1006   1017     1   110.5600475 386.601600
   1008   1006   1018     1   110.5600475 386.601600
   1009   1008   1021     1   108.7700466 392.459200
   1009   1008   1022     1   108.7700466 392.459200
   1009   2080   2095     1   117.5500507 404.174400
   1010   1007   1019     1   110.5600475 386.601600
   1010   1007   1020     1   110.5600475 386.601600
   1011   1010   1023     1   108.7700466 392.459200
   1011   1010   1024     1   108.7700466 392.459200
   1011   2106   2121     1   117.5500507 404.174400
   1012   1005   1030     1   110.1100470 384.091200
   1012   1013   1027     1   109.5600471 388.275200
   1012   1013   1028     1   109.5600471 388.275200
   1013   1012   1025     1   110.5600475 386.601600
   1013   1012   1026     1   110.5600475 386.601600
   1013   1014   1029     1   117.6800502 383.254400
   1014   1013   1027     1   108.8800464 416.726400
   1014   1013   1028     1   108.8800464 416.726400
   1017   1006   1018     1   109.7500473 328.025600
   1019   1007   1020     1   109.7500473 328.025600
   1021   1008   1022     1   107.5800459 329.699200
   1023   1010   1024     1   107.5800459 329.699200
   1025   1012   1026     1   109.7500473 328.025600
   1027   1013   1028     1   108.4600466 328.025600
   1031   1032   1043     1   108.0100461 406.684800
   1031   1032   1044     1   108.0100461 406.684800
   1031   1033   1045     1   108.0100461 406.684800
   1031   1033   1046     1   108.0100461 406.684800
   1031   1038   1051     1   108.0100461 406.684800
   1031   1038   1052     1   108.0100461 406.684800
   1032   1031   1056     1   110.1100470 384.091200
   1032   1034   1047     1   109.8000471 387.438400
   1032   1034   1048     1   109.8000471 387.438400
   1033   1031   1056     1   110.1100470 384.091200
   1033   1036   1049     1   109.8000471 387.438400
   1033   1036   1050     1   109.8000471 387.438400
   1034   1032   1043     1   110.5600475 386.601600
   1034   1032   1044     1   110.5600475 386.601600
   1035   1034   1047     1   108.7700466 392.459200
   1035   1034   1048     1   108.7700466 392.459200
   1035   2132   2147     1   117.5500507 404.174400
   1036   1033   1045     1   110.5600475 386.601600
   1036   1033   1046     1   110.5600475 386.601600
   1037   1036   1049     1   108.7700466 392.459200
   1037   1036   1050     1   108.7700466 392.459200
   1037   2158   2173     1   117.5500507 404.174400
   1038   1031   1056     1   110.1100470 384.091200
   1038   1039   1053     1   109.5600471 388.275200
   1038   1039   1054     1   109.5600471 388.275200
   1039   1038   1051     1   110.5600475 386.601600
   1039   1038   1052     1   110.5600475 386.601600
   1039   1040   1055     1   117.6800502 383.254400
   1040   1039   1053     1   108.8800464 416.726400
   1040   1039   1054     1   108.8800464 416.726400
   1043   1032   1044     1   109.7500473 328.025600
   1045   1033   1046     1   109.7500473 328.025600
   1047   1034   1048     1   107.5800459 329.699200
   1049   1036   1050     1   107.5800459 329.699200
   1051   1038   1052     1   109.7500473 328.025600
   1053   1039   1054     1   108.4600466 328.025600
   1057   1058   1069     1   108.0100461 406.684800
   1057   1058   1070     1   108.0100461 406.684800
   1057   1059   1071     1   108.0100461 406.684800
   1057   1059   1072     1   108.0100461 406.684800
   1057   1064   1077     1   108.0100461 406.684800
   1057   1064   1078     1   108.0100461 406.684800
   1058   1057   1082     1   110.1100470 384.091200
   1058   1060   1073     1   109.8000471 387.438400
   1058   1060   1074     1   109.8000471 387.438400
   1059   1057   1082     1   110.1100470 384.091200
   1059   1062   1075     1   109.8000471 387.438400
   1059   1062   1076     1   109.8000471 387.438400
   1060   1058   1069     1   110.5600475 386.601600
   1060   1058   1070     1   110.5600475 386.601600
   1061   1060   1073     1   108.7700466 392.459200
   1061   1060   1074     1   108.7700466 392.459200
   1061   2184   2199     1   117.5500507 404.174400
   1062   1059   1071     1   110.5600475 386.601600
   1062   1059   1072     1   110.5600475 386.601600
   1063   1062   1075     1   108.7700466 392.459200
   1063   1062   1076     1   108.7700466 392.459200
   1063   2210   2225     1   117.5500507 404.174400
   1064   1057   1082     1   110.1100470 384.091200
   1064   1065   1079     1   109.5600471 388.275200
   1064   1065   1080     1   109.5600471 388.275200
   1065   1064   1077     1   110.5600475 386.601600
   1065   1064   1078     1   110.5600475 386.601600
   1065   1066   1081     1   117.6800502 383.254400
   1066   1065   1079     1   108.8800464 416.726400
   1066   1065   1080     1   108.8800464 416.726400
   1069   1058   1070     1   109.7500473 328.025600
   1071   1059   1072     1   109.7500473 328.025600
   1073   1060   1074     1   107.5800459 329.699200
   1075   1062   1076     1   107.5800459 329.699200
   1077   1064   1078     1   109.7500473 328.025600
   1079   1065   1080     1   108.4600466 328.025600
   1083   1084   1095     1   108.0100461 406.684800
   1083   1084   1096     1   108.0100461 406.684800
   1083   1085   1097     1   108.0100461 406.684800
   1083   1085   1098     1   108.0100461 406.684800
   1083   1090   1103     1   108.0100461 406.684800
   1083   1090   1104     1   108.0100461 406.684800
   1084   1083   1108     1   110.1100470 384.091200
   1084   1086   1099     1   109.8000471 387.438400
   1084   1086   1100     1   109.8000471 387.438400
   1085   1083   1108     1   110.1100470 384.091200
   1085   1088   1101     1   109.8000471 387.438400
   1085   1088   1102     1   109.8000471 387.438400
   1086   1084   1095     1   110.5600475 386.601600
   1086   1084   1096     1   110.5600475 386.601600
   1087   1086   1099     1   108.7700466 392.459200
   1087   1086   1100     1   108.7700466 392.459200
   1087   2236   2251     1   117.5500507 404.174400
   1088   1085   1097     1   110.5600475 386.601600
   1088   1085   1098     1   110.5600475 386.601600
   1089   1088   1101     1   108.7700466 392.459200
   1089   1088   1102     1   108.7700466 392.459200
   1089   2262   2277     1   117.5500507 404.174400
   1090   1083   1108     1   110.1100470 384.091200
   1090   1091   1105     1   109.5600471 388.275200
   1090   1091   1106     1   109.5600471 388.275200
   1091   1090   1103     1   110.5600475 386.601600
   1091   1090   1104     1   110.5600475 386.601600
   1091   1092   1107     1   117.6800502 383.254400
   1092   1091   1105     1   108.8800464 416.726400
   1092   1091   1106     1   108.8800464 416.726400
   1095   1084   1096     1   109.7500473 328.025600
   1097   1085   1098     1   109.7500473 328.025600
   1099   1086   1100     1   107.5800459 329.699200
   1101   1088   1102     1   107.5800459 329.699200
   1103   1090   1104     1   109.7500473 328.025600
   1105   1091   1106     1   108.4600466 328.025600
   1109   1110   1121     1   108.0100461 406.684800
   1109   1110   1122     1   108.0100461 406.684800
   1109   1111   1123     1   108.0100461 406.684800
   1109   1111   1124     1   108.0100461 406.684800
   1109   1116   1129     1   108.0100461 406.684800
   1109   1116   1130     1   108.0100461 406.684800
   1110   1109   1134     1   110.1100470 384.091200
   1110   1112   1125     1   109.8000471 387.438400
   1110   1112   1126     1   109.8000471 387.438400
   1111   1109   1134     1   110.1100470 384.091200
   1111   1114   1127     1   109.8000471 387.438400
   1111   1114   1128     1   109.8000471 387.438400
   1112   1110   1121     1   110.5600475 386.601600
   1112   1110   1122     1   110.5600475 386.601600
   1113   1112   1125     1   108.7700466 392.459200
   1113   1112   1126     1   108.7700466 392.459200
   1113   2288   2303     1   117.5500507 404.174400
   1114   1111   1123     1   110.5600475 386.601600
   1114   1111   1124     1   110.5600475 386.601600
   1115   1114   1127     1   108.7700466 392.459200
   1115   1114   1128     1   108.7700466 392.459200
   1115   2314   2329     1   117.5500507 404.174400
   1116   1109   1134     1   110.1100470 384.091200
   1116   1117   1131     1   109.5600471 388.275200
   1116   1117   1132     1   109.5600471 388.275200
   1117   1116   1129     1   110.5600475 386.601600
   1117   1116   1130     1   110.5600475 386.601600
   1117   1118   1133     1   117.6800502 383.254400
   1118   1117   1131     1   108.8800464 416.726400
   1118   1117   1132     1   108.8800464 416.726400
   1121   1110   1122     1   109.7500473 328.025600
   1123   1111   1124     1   109.7500473 328.025600
   1125   1112   1126     1   107.5800459 329.699200
   1127   1114   1128     1   107.5800459 329.699200
   1129   1116   1130     1   109.7500473 328.025600
   1131   1117   1132     1   108.4600466 328.025600
   1135   1136   1147     1   108.0100461 406.684800
   1135   1136   1148     1   108.0100461 406.684800
   1135   1137   1149     1   108.0100461 406.684800
   1135   1137   1150     1   108.0100461 406.684800
   1135   1142   1155     1   108.0100461 406.684800
   1135   1142   1156     1   108.0100461 406.684800
   1136   1135   1160     1   110.1100470 384.091200
   1136   1138   1151     1   109.8000471 387.438400
   1136   1138   1152     1   109.8000471 387.438400
   1137   1135   1160     1   110.1100470 384.091200
   1137   1140   1153     1   109.8000471 387.438400
   1137   1140   1154     1   109.8000471 387.438400
   1138   1136   1147     1   110.5600475 386.601600
   1138   1136   1148     1   110.5600475 386.601600
   1139   1138   1151     1   108.7700466 392.459200
   1139   1138   1152     1   108.7700466 392.459200
   1139   2340   2355     1   117.5500507 404.174400
   1140   1137   1149     1   110.5600475 386.601600
   1140   1137   1150     1   110.5600475 386.601600
   1141   1140   1153     1   108.7700466 392.459200
   1141   1140   1154     1   108.7700466 392.459200
   1141   2366   2381     1   117.5500507 404.174400
   1142   1135   1160     1   110.1100470 384.091200
   1142   1143   1157     1   109.5600471 388.275200
   1142   1143   1158     1   109.5600471 388.275200
   1143   1142   1155     1   110.5600475 386.601600
   1143   1142   1156     1   110.5600475 386.601600
   1143   1144   1159     1   117.6800502 383.254400
   1144   1143   1157     1   108.8800464 416.726400
   1144   1143   1158     1   108.8800464 416.726400
   1147   1136   1148     1   109.7500473 328.025600
   1149   1137   1150     1   109.7500473 328.025600
   1151   1138   1152     1   107.5800459 329.699200
   1153   1140   1154     1   107.5800459 329.699200
   1155   1142   1156     1   109.7500473 328.025600
   1157   1143   1158     1   108.4600466 328.025600
   1161   1162   1173     1   108.0100461 406.684800
   1161   1162   1174     1   108.0100461 406.684800
   1161   1163   1175     1   108.0100461 406.684800
   1161   1163   1176     1   108.0100461 406.684800
   1161   1168   1181     1   108.0100461 406.684800
   1161   1168   1182     1   108.0100461 406.684800
   1162   1161   1186     1   110.1100470 384.091200
   1162   1164   1177     1   109.8000471 387.438400
   1162   1164   1178     1   109.8000471 387.438400
   1163   1161   1186     1   110.1100470 384.091200
   1163   1166   1179     1   109.8000471 387.438400
   1163   1166   1180     1   109.8000471 387.438400
   1164   1162   1173     1   110.5600475 386.601600
   1164   1162   1174     1   110.5600475 386.601600
   1165   1164   1177     1   108.7700466 392.459200
   1165   1164   1178     1   108.7700466 392.459200
   1165   2392   2407     1   117.5500507 404.174400
   1166   1163   1175     1   110.5600475 386.601600
   1166   1163   1176     1   110.5600475 386.601600
   1167   1166   1179     1   108.7700466 392.459200
   1167   1166   1180     1   108.7700466 392.459200
   1167   2418   2433     1   117.5500507 404.174400
   1168   1161   1186     1   110.1100470 384.091200
   1168   1169   1183     1   109.5600471 388.275200
   1168   1169   1184     1   109.5600471 388.275200
   1169   1168   1181     1   110.5600475 386.601600
   1169   1168   1182     1   110.5600475 386.601600
   1169   1170   1185     1   117.6800502 383.254400
   1170   1169   1183     1   108.8800464 416.726400
   1170   1169   1184     1   108.8800464 416.726400
   1173   1162   1174     1   109.7500473 328.025600
   1175   1163   1176     1   109.7500473 328.025600
   1177   1164   1178     1   107.5800459 329.699200
   1179   1166   1180     1   107.5800459 329.699200
   1181   1168   1182     1   109.7500473 328.025600
   1183   1169   1184     1   108.4600466 328.025600
   1187   1188   1199     1   108.0100461 406.684800
   1187   1188   1200     1   108.0100461 406.684800
   1187   1189   1201     1   108.0100461 406.684800
   1187   1189   1202     1   108.0100461 406.684800
   1187   1194   1207     1   108.0100461 406.684800
   1187   1194   1208     1   108.0100461 406.684800
   1188   1187   1212     1   110.1100470 384.091200
   1188   1190   1203     1   109.8000471 387.438400
   1188   1190   1204     1   109.8000471 387.438400
   1189   1187   1212     1   110.1100470 384.091200
   1189   1192   1205     1   109.8000471 387.438400
   1189   1192   1206     1   109.8000471 387.438400
   1190   1188   1199     1   110.5600475 386.601600
   1190   1188   1200     1   110.5600475 386.601600
   1191   1190   1203     1   108.7700466 392.459200
   1191   1190   1204     1   108.7700466 392.459200
   1191   2444   2459     1   117.5500507 404.174400
   1192   1189   1201     1   110.5600475 386.601600
   1192   1189   1202     1   110.5600475 386.601600
   1193   1192   1205     1   108.7700466 392.459200
   1193   1192   1206     1   108.7700466 392.459200
   1193   2470   2485     1   117.5500507 404.174400
   1194   1187   1212     1   110.1100470 384.091200
   1194   1195   1209     1   109.5600471 388.275200
   1194   1195   1210     1   109.5600471 388.275200
   1195   1194   1207     1   110.5600475 386.601600
   1195   1194   1208     1   110.5600475 386.601600
   1195   1196   1211     1   117.6800502 383.254400
   1196   1195   1209     1   108.8800464 416.726400
   1196   1195   1210     1   108.8800464 416.726400
   1199   1188   1200     1   109.7500473 328.025600
   1201   1189   1202     1   109.7500473 328.025600
   1203   1190   1204     1   107.5800459 329.699200
   1205   1192   1206     1   107.5800459 329.699200
   1207   1194   1208     1   109.7500473 328.025600
   1209   1195   1210     1   108.4600466 328.025600
   1213   1214   1225     1   108.0100461 406.684800
   1213   1214   1226     1   108.0100461 406.684800
   1213   1215   1227     1   108.0100461 406.684800
   1213   1215   1228     1   108.0100461 406.684800
   1213   1220   1233     1   108.0100461 406.684800
   1213   1220   1234     1   108.0100461 406.684800
   1214   1213   1238     1   110.1100470 384.091200
   1214   1216   1229     1   109.8000471 387.438400
   1214   1216   1230     1   109.8000471 387.438400
   1215   1213   1238     1   110.1100470 384.091200
   1215   1218   1231     1   109.8000471 387.438400
   1215   1218   1232     1   109.8000471 387.438400
   1216   1214   1225     1   110.5600475 386.601600
   1216   1214   1226     1   110.5600475 386.601600
   1217   1216   1229     1   108.7700466 392.459200
   1217   1216   1230     1   108.7700466 392.459200
   1217   2496   2511     1   117.5500507 404.174400
   1218   1215   1227     1   110.5600475 386.601600
   1218   1215   1228     1   110.5600475 386.601600
   1219   1218   1231     1   108.7700466 392.459200
   1219   1218   1232     1   108.7700466 392.459200
   1219   2522   2537     1   117.5500507 404.174400
   1220   1213   1238     1   110.1100470 384.091200
   1220   1221   1235     1   109.5600471 388.275200
   1220   1221   1236     1   109.5600471 388.275200
   1221   1220   1233     1   110.5600475 386.601600
   1221   1220   1234     1   110.5600475 386.601600
   1221   1222   1237     1   117.6800502 383.254400
   1222   1221   1235     1   108.8800464 416.726400
   1222   1221   1236     1   108.8800464 416.726400
   1225   1214   1226     1   109.7500473 328.025600
   1227   1215   1228     1   109.7500473 328.025600
   1229   1216   1230     1   107.5800459 329.699200
   1231   1218   1232     1   107.5800459 329.699200
   1233   1220   1234     1   109.7500473 328.025600
   1235   1221   1236     1   108.4600466 328.025600
   1239   1240   1251     1   108.0100461 406.684800
   1239   1240   1252     1   108.0100461 406.684800
   1239   1241   1253     1   108.0100461 406.684800
   1239   1241   1254     1   108.0100461 406.684800
   1239   1246   1259     1   108.0100461 406.684800
   1239   1246   1260     1   108.0100461 406.684800
   1240   1239   1264     1   110.1100470 384.091200
   1240   1242   1255     1   109.8000471 387.438400
   1240   1242   1256     1   109.8000471 387.438400
   1241   1239   1264     1   110.1100470 384.091200
   1241   1244   1257     1   109.8000471 387.438400
   1241   1244   1258     1   109.8000471 387.438400
   1242   1240   1251     1   110.5600475 386.601600
   1242   1240   1252     1   110.5600475 386.601600
   1243   1242   1255     1   108.7700466 392.459200
   1243   1242   1256     1   108.7700466 392.459200
   1243   2548   2563     1   117.5500507 404.174400
   1244   1241   1253     1   110.5600475 386.601600
   1244   1241   1254     1   110.5600475 386.601600
   1245   1244   1257     1   108.7700466 392.459200
   1245   1244   1258     1   108.7700466 392.459200
   1245   2574   2589     1   117.5500507 404.174400
   1246   1239   1264     1   110.1100470 384.091200
   1246   1247   1261     1   109.5600471 388.275200
   1246   1247   1262     1   109.5600471 388.275200
   1247   1246   1259     1   110.5600475 386.601600
   1247   1246   1260     1   110.5600475 386.601600
   1247   1248   1263     1   117.6800502 383.254400
   1248   1247   1261     1   108.8800464 416.726400
   1248   1247   1262     1   108.8800464 416.726400
   1251   1240   1252     1   109.7500473 328.025600
   1253   1241   1254     1   109.7500473 328.025600
   1255   1242   1256     1   107.5800459 329.699200
   1257   1244   1258     1   107.5800459 329.699200
   1259   1246   1260     1   109.7500473 328.025600
   1261   1247   1262     1   108.4600466 328.025600
   1265   1266   1277     1   108.0100461 406.684800
   1265   1266   1278     1   108.0100461 406.684800
   1265   1267   1279     1   108.0100461 406.684800
   1265   1267   1280     1   108.0100461 406.684800
   1265   1272   1285     1   108.0100461 406.684800
   1265   1272   1286     1   108.0100461 406.684800
   1266   1265   1290     1   110.1100470 384.091200
   1266   1268   1281     1   109.8000471 387.438400
   1266   1268   1282     1   109.8000471 387.438400
   1267   1265   1290     1   110.1100470 384.091200
   1267   1270   1283     1   109.8000471 387.438400
   1267   1270   1284     1   109.8000471 387.438400
   1268   1266   1277     1   110.5600475 386.601600
   1268   1266   1278     1   110.5600475 386.601600
   1269   1268   1281     1   108.7700466 392.459200
   1269   1268   1282     1   108.7700466 392.459200
   1269   2600   2615     1   117.5500507 404.174400
   1270   1267   1279     1   110.5600475 386.601600
   1270   1267   1280     1   110.5600475 386.601600
   1271   1270   1283     1   108.7700466 392.459200
   1271   1270   1284     1   108.7700466 392.459200
   1271   2626   2641     1   117.5500507 404.174400
   1272   1265   1290     1   110.1100470 384.091200
   1272   1273   1287     1   109.5600471 388.275200
   1272   1273   1288     1   109.5600471 388.275200
   1273   1272   1285     1   110.5600475 386.601600
   1273   1272   1286     1   110.5600475 386.601600
   1273   1274   1289     1   117.6800502 383.254400
   1274   1273   1287     1   108.8800464 416.726400
   1274   1273   1288     1   108.8800464 416.726400
   1277   1266   1278     1   109.7500473 328.025600
   1279   1267   1280     1   109.7500473 328.025600
   1281   1268   1282     1   107.5800459 329.699200
   1283   1270   1284     1   107.5800459 329.699200
   1285   1272   1286     1   109.7500473 328.025600
   1287   1273   1288     1   108.4600466 328.025600
   1291   1292   1303     1   108.0100461 406.684800
   1291   1292   1304     1   108.0100461 406.684800
   1291   1293   1305     1   108.0100461 406.684800
   1291   1293   1306     1   108.0100461 406.684800
   1291   1298   1311     1   108.0100461 406.684800
   1291   1298   1312     1   108.0100461 406.684800
   1292   1291   1316     1   110.1100470 384.091200
   1292   1294   1307     1   109.8000471 387.438400
   1292   1294   1308     1   109.8000471 387.438400
   1293   1291   1316     1   110.1100470 384.091200
   1293   1296   1309     1   109.8000471 387.438400
   1293   1296   1310     1   109.8000471 387.438400
   1294   1292   1303     1   110.5600475 386.601600
   1294   1292   1304     1   110.5600475 386.601600
   1295   1294   1307     1   108.7700466 392.459200
   1295   1294   1308     1   108.7700466 392.459200
   1295   2652   2667     1   117.5500507 404.174400
   1296   1293   1305     1   110.5600475 386.601600
   1296   1293   1306     1   110.5600475 386.601600
   1297   1296   1309     1   108.7700466 392.459200
   1297   1296   1310     1   108.7700466 392.459200
   1297   2678   2693     1   117.5500507 404.174400
   1298   1291   1316     1   110.1100470 384.091200
   1298   1299   1313     1   109.5600471 388.275200
   1298   1299   1314     1   109.5600471 388.275200
   1299   1298   1311     1   110.5600475 386.601600
   1299   1298   1312     1   110.5600475 386.601600
   1299   1300   1315     1   117.6800502 383.254400
   1300   1299   1313     1   108.8800464 416.726400
   1300   1299   1314     1   108.8800464 416.726400
   1303   1292   1304     1   109.7500473 328.025600
   1305   1293   1306     1   109.7500473 328.025600
   1307   1294   1308     1   107.5800459 329.699200
   1309   1296   1310     1   107.5800459 329.699200
   1311   1298   1312     1   109.7500473 328.025600
   1313   1299   1314     1   108.4600466 328.025600
   1317   1318   1329     1   108.0100461 406.684800
   1317   1318   1330     1   108.0100461 406.684800
   1317   1319   1331     1   108.0100461 406.684800
   1317   1319   1332     1   108.0100461 406.684800
   1317   1324   1337     1   108.0100461 406.684800
   1317   1324   1338     1   108.0100461 406.684800
   1318   1317   1342     1   110.1100470 384.091200
   1318   1320   1333     1   109.8000471 387.438400
   1318   1320   1334     1   109.8000471 387.438400
   1319   1317   1342     1   110.1100470 384.091200
   1319   1322   1335     1   109.8000471 387.438400
   1319   1322   1336     1   109.8000471 387.438400
   1320   1318   1329     1   110.5600475 386.601600
   1320   1318   1330     1   110.5600475 386.601600
   1321   1320   1333     1   108.7700466 392.459200
   1321   1320   1334     1   108.7700466 392.459200
   1321   2704   2719     1   117.5500507 404.174400
   1322   1319   1331     1   110.5600475 386.601600
   1322   1319   1332     1   110.5600475 386.601600
   1323   1322   1335     1   108.7700466 392.459200
   1323   1322   1336     1   108.7700466 392.459200
   1323   2730   2745     1   117.5500507 404.174400
   1324   1317   1342     1   110.1100470 384.091200
   1324   1325   1339     1   109.5600471 388.275200
   1324   1325   1340     1   109.5600471 388.275200
   1325   1324   1337     1   110.5600475 386.601600
   1325   1324   1338     1   110.5600475 386.601600
   1325   1326   1341     1   117.6800502 383.254400
   1326   1325   1339     1   108.8800464 416.726400
   1326   1325   1340     1   108.8800464 416.726400
   1329   1318   1330     1   109.7500473 328.025600
   1331   1319   1332     1   109.7500473 328.025600
   1333   1320   1334     1   107.5800459 329.699200
   1335   1322   1336     1   107.5800459 329.699200
   1337   1324   1338     1   109.7500473 328.025600
   1339   1325   1340     1   108.4600466 328.025600
   1343   1344   1355     1   108.0100461 406.684800
   1343   1344   1356     1   108.0100461 406.684800
   1343   1345   1357     1   108.0100461 406.684800
   1343   1345   1358     1   108.0100461 406.684800
   1343   1350   1363     1   108.0100461 406.684800
   1343   1350   1364     1   108.0100461 406.684800
   1344   1343   1368     1   110.1100470 384.091200
   1344   1346   1359     1   109.8000471 387.438400
   1344   1346   1360     1   109.8000471 387.438400
   1345   1343   1368     1   110.1100470 384.091200
   1345   1348   1361     1   109.8000471 387.438400
   1345   1348   1362     1   109.8000471 387.438400
   1346   1344   1355     1   110.5600475 386.601600
   1346   1344   1356     1   110.5600475 386.601600
   1347   1346   1359     1   108.7700466 392.459200
   1347   1346   1360     1   108.7700466 392.459200
   1347   2756   2771     1   117.5500507 404.174400
   1348   1345   1357     1   110.5600475 386.601600
   1348   1345   1358     1   110.5600475 386.601600
   1349   1348   1361     1   108.7700466 392.459200
   1349   1348   1362     1   108.7700466 392.459200
   1349   2782   2797     1   117.5500507 404.174400
   1350   1343   1368     1   110.1100470 384.091200
   1350   1351   1365     1   109.5600471 388.275200
   1350   1351   1366     1   109.5600471 388.275200
   1351   1350   1363     1   110.5600475 386.601600
   1351   1350   1364     1   110.5600475 386.601600
   1351   1352   1367     1   117.6800502 383.254400
   1352   1351   1365     1   108.8800464 416.726400
   1352   1351   1366     1   108.8800464 416.726400
   1355   1344   1356     1   109.7500473 328.025600
   1357   1345   1358     1   109.7500473 328.025600
   1359   1346   1360     1   107.5800459 329.699200
   1361   1348   1362     1   107.5800459 329.699200
   1363   1350   1364     1   109.7500473 328.025600
   1365   1351   1366     1   108.4600466 328.025600
   1369   1370   1381     1   108.0100461 406.684800
   1369   1370   1382     1   108.0100461 406.684800
   1369   1371   1383     1   108.0100461 406.684800
   1369   1371   1384     1   108.0100461 406.684800
   1369   1376   1389     1   108.0100461 406.684800
   1369   1376   1390     1   108.0100461 406.684800
   1370   1369   1394     1   110.1100470 384.091200
   1370   1372   1385     1   109.8000471 387.438400
   1370   1372   1386     1   109.8000471 387.438400
   1371   1369   1394     1   110.1100470 384.091200
   1371   1374   1387     1   109.8000471 387.438400
   1371   1374   1388     1   109.8000471 387.438400
   1372   1370   1381     1   110.5600475 386.601600
   1372   1370   1382     1   110.5600475 386.601600
   1373   1372   1385     1   108.7700466 392.459200
   1373   1372   1386     1   108.7700466 392.459200
   1373   2808   2823     1   117.5500507 404.174400
   1374   1371   1383     1   110.5600475 386.601600
   1374   1371   1384     1   110.5600475 386.601600
   1375   1374   1387     1   108.7700466 392.459200
   1375   1374   1388     1   108.7700466 392.459200
   1375   2834   2849     1   117.5500507 404.174400
   1376   1369   1394     1   110.1100470 384.091200
   1376   1377   1391     1   109.5600471 388.275200
   1376   1377   1392     1   109.5600471 388.275200
   1377   1376   1389     1   110.5600475 386.601600
   1377   1376   1390     1   110.5600475 386.601600
   1377   1378   1393     1   117.6800502 383.254400
   1378   1377   1391     1   108.8800464 416.726400
   1378   1377   1392     1   108.8800464 416.726400
   1381   1370   1382     1   109.7500473 328.025600
   1383   1371   1384     1   109.7500473 328.025600
   1385   1372   1386     1   107.5800459 329.699200
   1387   1374   1388     1   107.5800459 329.699200
   1389   1376   1390     1   109.7500473 328.025600
   1391   1377   1392     1   108.4600466 328.025600
   1395   1396   1407     1   108.0100461 406.684800
   1395   1396   1408     1   108.0100461 406.684800
   1395   1397   1409     1   108.0100461 406.684800
   1395   1397   1410     1   108.0100461 406.684800
   1395   1402   1415     1   108.0100461 406.684800
   1395   1402   1416     1   108.0100461 406.684800
   1396   1395   1420     1   110.1100470 384.091200
   1396   1398   1411     1   109.8000471 387.438400
   1396   1398   1412     1   109.8000471 387.438400
   1397   1395   1420     1   110.1100470 384.091200
   1397   1400   1413     1   109.8000471 387.438400
   1397   1400   1414     1   109.8000471 387.438400
   1398   1396   1407     1   110.5600475 386.601600
   1398   1396   1408     1   110.5600475 386.601600
   1399   1398   1411     1   108.7700466 392.459200
   1399   1398   1412     1   108.7700466 392.459200
   1399   2860   2875     1   117.5500507 404.174400
   1400   1397   1409     1   110.5600475 386.601600
   1400   1397   1410     1   110.5600475 386.601600
   1401   1400   1413     1   108.7700466 392.459200
   1401   1400   1414     1   108.7700466 392.459200
   1401   2886   2901     1   117.5500507 404.174400
   1402   1395   1420     1   110.1100470 384.091200
   1402   1403   1417     1   109.5600471 388.275200
   1402   1403   1418     1   109.5600471 388.275200
   1403   1402   1415     1   110.5600475 386.601600
   1403   1402   1416     1   110.5600475 386.601600
   1403   1404   1419     1   117.6800502 383.254400
   1404   1403   1417     1   108.8800464 416.726400
   1404   1403   1418     1   108.8800464 416.726400
   1407   1396   1408     1   109.7500473 328.025600
   1409   1397   1410     1   109.7500473 328.025600
   1411   1398   1412     1   107.5800459 329.699200
   1413   1400   1414     1   107.5800459 329.699200
   1415   1402   1416     1   109.7500473 328.025600
   1417   1403   1418     1   108.4600466 328.025600
   1421   1422   1433     1   108.0100461 406.684800
   1421   1422   1434     1   108.0100461 406.684800
   1421   1423   1435     1   108.0100461 406.684800
   1421   1423   1436     1   108.0100461 406.684800
   1421   1428   1441     1   108.0100461 406.684800
   1421   1428   1442     1   108.0100461 406.684800
   1422   1421   1446     1   110.1100470 384.091200
   1422   1424   1437     1   109.8000471 387.438400
   1422   1424   1438     1   109.8000471 387.438400
   1423   1421   1446     1   110.1100470 384.091200
   1423   1426   1439     1   109.8000471 387.438400
   1423   1426   1440     1   109.8000471 387.438400
   1424   1422   1433     1   110.5600475 386.601600
   1424   1422   1434     1   110.5600475 386.601600
   1425   1424   1437     1   108.7700466 392.459200
   1425   1424   1438     1   108.7700466 392.459200
   1425   2912   2927     1   117.5500507 404.174400
   1426   1423   1435     1   110.5600475 386.601600
   1426   1423   1436     1   110.5600475 386.601600
   1427   1426   1439     1   108.7700466 392.459200
   1427   1426   1440     1   108.7700466 392.459200
   1427   2938   2953     1   117.5500507 404.174400
   1428   1421   1446     1   110.1100470 384.091200
   1428   1429   1443     1   109.5600471 388.275200
   1428   1429   1444     1   109.5600471 388.275200
   1429   1428   1441     1   110.5600475 386.601600
   1429   1428   1442     1   110.5600475 386.601600
   1429   1430   1445     1   117.6800502 383.254400
   1430   1429   1443     1   108.8800464 416.726400
   1430   1429   1444     1   108.8800464 416.726400
   1433   1422   1434     1   109.7500473 328.025600
   1435   1423   1436     1   109.7500473 328.025600
   1437   1424   1438     1   107.5800459 329.699200
   1439   1426   1440     1   107.5800459 329.699200
   1441   1428   1442     1   109.7500473 328.025600
   1443   1429   1444     1   108.4600466 328.025600
   1447   1448   1459     1   108.0100461 406.684800
   1447   1448   1460     1   108.0100461 406.684800
   1447   1449   1461     1   108.0100461 406.684800
   1447   1449   1462     1   108.0100461 406.684800
   1447   1454   1467     1   108.0100461 406.684800
   1447   1454   1468     1   108.0100461 406.684800
   1448   1447   1472     1   110.1100470 384.091200
   1448   1450   1463     1   109.8000471 387.438400
   1448   1450   1464     1   109.8000471 387.438400
   1449   1447   1472     1   110.1100470 384.091200
   1449   1452   1465     1   109.8000471 387.438400
   1449   1452   1466     1   109.8000471 387.438400
   1450   1448   1459     1   110.5600475 386.601600
   1450   1448   1460     1   110.5600475 386.601600
   1451   1450   1463     1   108.7700466 392.459200
   1451   1450   1464     1   108.7700466 392.459200
   1451   2964   2979     1   117.5500507 404.174400
   1452   1449   1461     1   110.5600475 386.601600
   1452   1449   1462     1   110.5600475 386.601600
   1453   1452   1465     1   108.7700466 392.459200
   1453   1452   1466     1   108.7700466 392.459200
   1453   2990   3005     1   117.5500507 404.174400
   1454   1447   1472     1   110.1100470 384.091200
   1454   1455   1469     1   109.5600471 388.275200
   1454   1455   1470     1   109.5600471 388.275200
   1455   1454   1467     1   110.5600475 386.601600
   1455   1454   1468     1   110.5600475 386.601600
   1455   1456   1471     1   117.6800502 383.254400
   1456   1455   1469     1   108.8800464 416.726400
   1456   1455   1470     1   108.8800464 416.726400
   1459   1448   1460     1   109.7500473 328.025600
   1461   1449   1462     1   109.7500473 328.025600
   1463   1450   1464     1   107.5800459 329.699200
   1465   1452   1466     1   107.5800459 329.699200
   1467   1454   1468     1   109.7500473 328.025600
   1469   1455   1470     1   108.4600466 328.025600
   1473   1474   1485     1   108.0100461 406.684800
   1473   1474   1486     1   108.0100461 406.684800
   1473   1475   1487     1   108.0100461 406.684800
   1473   1475   1488     1   108.0100461 406.684800
   1473   1480   1493     1   108.0100461 406.684800
   1473   1480   1494     1   108.0100461 406.684800
   1474   1473   1498     1   110.1100470 384.091200
   1474   1476   1489     1   109.8000471 387.438400
   1474   1476   1490     1   109.8000471 387.438400
   1475   1473   1498     1   110.1100470 384.091200
   1475   1478   1491     1   109.8000471 387.438400
   1475   1478   1492     1   109.8000471 387.438400
   1476   1474   1485     1   110.5600475 386.601600
   1476   1474   1486     1   110.5600475 386.601600
   1477   1476   1489     1   108.7700466 392.459200
   1477   1476   1490     1   108.7700466 392.459200
   1477   3016   3031     1   117.5500507 404.174400
   1478   1475   1487     1   110.5600475 386.601600
   1478   1475   1488     1   110.5600475 386.601600
   1479   1478   1491     1   108.7700466 392.459200
   1479   1478   1492     1   108.7700466 392.459200
   1479   3042   3057     1   117.5500507 404.174400
   1480   1473   1498     1   110.1100470 384.091200
   1480   1481   1495     1   109.5600471 388.275200
   1480   1481   1496     1   109.5600471 388.275200
   1481   1480   1493     1   110.5600475 386.601600
   1481   1480   1494     1   110.5600475 386.601600
   1481   1482   1497     1   117.6800502 383.254400
   1482   1481   1495     1   108.8800464 416.726400
   1482   1481   1496     1   108.8800464 416.726400
   1485   1474   1486     1   109.7500473 328.025600
   1487   1475   1488     1   109.7500473 328.025600
   1489   1476   1490     1   107.5800459 329.699200
   1491   1478   1492     1   107.5800459 329.699200
   1493   1480   1494     1   109.7500473 328.025600
   1495   1481   1496     1   108.4600466 328.025600
   1499   1500   1511     1   108.0100461 406.684800
   1499   1500   1512     1   108.0100461 406.684800
   1499   1501   1513     1   108.0100461 406.684800
   1499   1501   1514     1   108.0100461 406.684800
   1499   1506   1519     1   108.0100461 406.684800
   1499   1506   1520     1   108.0100461 406.684800
   1500   1499   1524     1   110.1100470 384.091200
   1500   1502   1515     1   109.8000471 387.438400
   1500   1502   1516     1   109.8000471 387.438400
   1501   1499   1524     1   110.1100470 384.091200
   1501   1504   1517     1   109.8000471 387.438400
   1501   1504   1518     1   109.8000471 387.438400
   1502   1500   1511     1   110.5600475 386.601600
   1502   1500   1512     1   110.5600475 386.601600
   1503   1502   1515     1   108.7700466 392.459200
   1503   1502   1516     1   108.7700466 392.459200
   1503   3068   3083     1   117.5500507 404.174400
   1504   1501   1513     1   110.5600475 386.601600
   1504   1501   1514     1   110.5600475 386.601600
   1505   1504   1517     1   108.7700466 392.459200
   1505   1504   1518     1   108.7700466 392.459200
   1505   3094   3109     1   117.5500507 404.174400
   1506   1499   1524     1   110.1100470 384.091200
   1506   1507   1521     1   109.5600471 388.275200
   1506   1507   1522     1   109.5600471 388.275200
   1507   1506   1519     1   110.5600475 386.601600
   1507   1506   1520     1   110.5600475 386.601600
   1507   1508   1523     1   117.6800502 383.254400
   1508   1507   1521     1   108.8800464 416.726400
   1508   1507   1522     1   108.8800464 416.726400
   1511   1500   1512     1   109.7500473 328.025600
   1513   1501   1514     1   109.7500473 328.025600
   1515   1502   1516     1   107.5800459 329.699200
   1517   1504   1518     1   107.5800459 329.699200
   1519   1506   1520     1   109.7500473 328.025600
   1521   1507   1522     1   108.4600466 328.025600
   1525   1526   1537     1   108.0100461 406.684800
   1525   1526   1538     1   108.0100461 406.684800
   1525   1527   1539     1   108.0100461 406.684800
   1525   1527   1540     1   108.0100461 406.684800
   1525   1532   1545     1   108.0100461 406.684800
   1525   1532   1546     1   108.0100461 406.684800
   1526   1525   1550     1   110.1100470 384.091200
   1526   1528   1541     1   109.8000471 387.438400
   1526   1528   1542     1   109.8000471 387.438400
   1527   1525   1550     1   110.1100470 384.091200
   1527   1530   1543     1   109.8000471 387.438400
   1527   1530   1544     1   109.8000471 387.438400
   1528   1526   1537     1   110.5600475 386.601600
   1528   1526   1538     1   110.5600475 386.601600
   1529   1528   1541     1   108.7700466 392.459200
   1529   1528   1542     1   108.7700466 392.459200
   1529   3120   3135     1   117.5500507 404.174400
   1530   1527   1539     1   110.5600475 386.601600
   1530   1527   1540     1   110.5600475 386.601600
   1531   1530   1543     1   108.7700466 392.459200
   1531   1530   1544     1   108.7700466 392.459200
   1531   3146   3161     1   117.5500507 404.174400
   1532   1525   1550     1   110.1100470 384.091200
   1532   1533   1547     1   109.5600471 388.275200
   1532   1533   1548     1   109.5600471 388.275200
   1533   1532   1545     1   110.5600475 386.601600
   1533   1532   1546     1   110.5600475 386.601600
   1533   1534   1549     1   117.6800502 383.254400
   1534   1533   1547     1   108.8800464 416.726400
   1534   1533   1548     1   108.8800464 416.726400
   1537   1526   1538     1   109.7500473 328.025600
   1539   1527   1540     1   109.7500473 328.025600
   1541   1528   1542     1   107.5800459 329.699200
   1543   1530   1544     1   107.5800459 329.699200
   1545   1532   1546     1   109.7500473 328.025600
   1547   1533   1548     1   108.4600466 328.025600
   1551   1552   1563     1   108.0100461 406.684800
   1551   1552   1564     1   108.0100461 406.684800
   1551   1553   1565     1   108.0100461 406.684800
   1551   1553   1566     1   108.0100461 406.684800
   1551   1558   1571     1   108.0100461 406.684800
   1551   1558   1572     1   108.0100461 406.684800
   1552   1551   1576     1   110.1100470 384.091200
   1552   1554   1567     1   109.8000471 387.438400
   1552   1554   1568     1   109.8000471 387.438400
   1553   1551   1576     1   110.1100470 384.091200
   1553   1556   1569     1   109.8000471 387.438400
   1553   1556   1570     1   109.8000471 387.438400
   1554   1552   1563     1   110.5600475 386.601600
   1554   1552   1564     1   110.5600475 386.601600
   1555   1554   1567     1   108.7700466 392.459200
   1555   1554   1568     1   108.7700466 392.459200
   1555   3172   3187     1   117.5500507 404.174400
   1556   1553   1565     1   110.5600475 386.601600
   1556   1553   1566     1   110.5600475 386.601600
   1557   1556   1569     1   108.7700466 392.459200
   1557   1556   1570     1   108.7700466 392.459200
   1557   3198   3213     1   117.5500507 404.174400
   1558   1551   1576     1   110.1100470 384.091200
   1558   1559   1573     1   109.5600471 388.275200
   1558   1559   1574     1   109.5600471 388.275200
   1559   1558   1571     1   110.5600475 386.601600
   1559   1558   1572     1   110.5600475 386.601600
   1559   1560   1575     1   117.6800502 383.254400
   1560   1559   1573     1   108.8800464 416.726400
   1560   1559   1574     1   108.8800464 416.726400
   1563   1552   1564     1   109.7500473 328.025600
   1565   1553   1566     1   109.7500473 328.025600
   1567   1554   1568     1   107.5800459 329.699200
   1569   1556   1570     1   107.5800459 329.699200
   1571   1558   1572     1   109.7500473 328.025600
   1573   1559   1574     1   108.4600466 328.025600
   1577   1578   1589     1   108.0100461 406.684800
   1577   1578   1590     1   108.0100461 406.684800
   1577   1579   1591     1   108.0100461 406.684800
   1577   1579   1592     1   108.0100461 406.684800
   1577   1584   1597     1   108.0100461 406.684800
   1577   1584   1598     1   108.0100461 406.684800
   1578   1577   1602     1   110.1100470 384.091200
   1578   1580   1593     1   109.8000471 387.438400
   1578   1580   1594     1   109.8000471 387.438400
   1579   1577   1602     1   110.1100470 384.091200
   1579   1582   1595     1   109.8000471 387.438400
   1579   1582   1596     1   109.8000471 387.438400
   1580   1578   1589     1   110.5600475 386.601600
   1580   1578   1590     1   110.5600475 386.601600
   1581   1580   1593     1   108.7700466 392.459200
   1581   1580   1594     1   108.7700466 392.459200
   1581   3224   3239     1   117.5500507 404.174400
   1582   1579   1591     1   110.5600475 386.601600
   1582   1579   1592     1   110.5600475 386.601600
   1583   1582   1595     1   108.7700466 392.459200
   1583   1582   1596     1   108.7700466 392.459200
   1583   3250   3265     1   117.5500507 404.174400
   1584   1577   1602     1   110.1100470 384.091200
   1584   1585   1599     1   109.5600471 388.275200
   1584   1585   1600     1   109.5600471 388.275200
   1585   1584   1597     1   110.5600475 386.601600
   1585   1584   1598     1   110.5600475 386.601600
   1585   1586   1601     1   117.6800502 383.254400
   1586   1585   1599     1   108.8800464 416.726400
   1586   1585   1600     1   108.8800464 416.726400
   1589   1578   1590     1   109.7500473 328.025600
   1591   1579   1592     1   109.7500473 328.025600
   1593   1580   1594     1   107.5800459 329.699200
   1595   1582   1596     1   107.5800459 329.699200
   1597   1584   1598     1   109.7500473 328.025600
   1599   1585   1600     1   108.4600466 328.025600
   1603   1604   1615     1   108.0100461 406.684800
   1603   1604   1616     1   108.0100461 406.684800
   1603   1605   1617     1   108.0100461 406.684800
   1603   1605   1618     1   108.0100461 406.684800
   1603   1610   1623     1   108.0100461 406.684800
   1603   1610   1624     1   108.0100461 406.684800
   1604   1603   1628     1   110.1100470 384.091200
   1604   1606   1619     1   109.8000471 387.438400
   1604   1606   1620     1   109.8000471 387.438400
   1605   1603   1628     1   110.1100470 384.091200
   1605   1608   1621     1   109.8000471 387.438400
   1605   1608   1622     1   109.8000471 387.438400
   1606   1604   1615     1   110.5600475 386.601600
   1606   1604   1616     1   110.5600475 386.601600
   1607   1606   1619     1   108.7700466 392.459200
   1607   1606   1620     1   108.7700466 392.459200
   1607   3267   3268     1   117.5500507 404.174400
   1608   1605   1617     1   110.5600475 386.601600
   1608   1605   1618     1   110.5600475 386.601600
   1609   1608   1621     1   108.7700466 392.459200
   1609   1608   1622     1   108.7700466 392.459200
   1609   3341   3342     1   117.5500507 404.174400
   1610   1603   1628     1   110.1100470 384.091200
   1610   1611   1625     1   109.5600471 388.275200
   1610   1611   1626     1   109.5600471 388.275200
   1611   1610   1623     1   110.5600475 386.601600
   1611   1610   1624     1   110.5600475 386.601600
   1611   1612   1627     1   117.6800502 383.254400
   1612   1611   1625     1   108.8800464 416.726400
   1612   1611   1626     1   108.8800464 416.726400
   1615   1604   1616     1   109.7500473 328.025600
   1617   1605   1618     1   109.7500473 328.025600
   1619   1606   1620     1   107.5800459 329.699200
   1621   1608   1622     1   107.5800459 329.699200
   1623   1610   1624     1   109.7500473 328.025600
   1625   1611   1626     1   108.4600466 328.025600
   1629   1630   1641     1   108.0100461 406.684800
   1629   1630   1642     1   108.0100461 406.684800
   1629   1631   1643     1   108.0100461 406.684800
   1629   1631   1644     1   108.0100461 406.684800
   1629   1636   1649     1   108.0100461 406.684800
   1629   1636   1650     1   108.0100461 406.684800
   1630   1629   1654     1   110.1100470 384.091200
   1630   1632   1645     1   109.8000471 387.438400
   1630   1632   1646     1   109.8000471 387.438400
   1631   1629   1654     1   110.1100470 384.091200
   1631   1634   1647     1   109.8000471 387.438400
   1631   1634   1648     1   109.8000471 387.438400
   1632   1630   1641     1   110.5600475 386.601600
   1632   1630   1642     1   110.5600475 386.601600
   1633   1632   1645     1   108.7700466 392.459200
   1633   1632   1646     1   108.7700466 392.459200
   1633   3415   3416     1   117.5500507 404.174400
   1634   1631   1643     1   110.5600475 386.601600
   1634   1631   1644     1   110.5600475 386.601600
   1635   1634   1647     1   108.7700466 392.459200
   1635   1634   1648     1   108.7700466 392.459200
   1635   3489   3490     1   117.5500507 404.174400
   1636   1629   1654     1   110.1100470 384.091200
   1636   1637   1651     1   109.5600471 388.275200
   1636   1637   1652     1   109.5600471 388.275200
   1637   1636   1649     1   110.5600475 386.601600
   1637   1636   1650     1   110.5600475 386.601600
   1637   1638   1653     1   117.6800502 383.254400
   1638   1637   1651     1   108.8800464 416.726400
   1638   1637   1652     1   108.8800464 416.726400
   1641   1630   1642     1   109.7500473 328.025600
   1643   1631   1644     1   109.7500473 328.025600
   1645   1632   1646     1   107.5800459 329.699200
   1647   1634   1648     1   107.5800459 329.699200
   1649   1636   1650     1   109.7500473 328.025600
   1651   1637   1652     1   108.4600466 328.025600
   1655   1656   1667     1   108.0100461 406.684800
   1655   1656   1668     1   108.0100461 406.684800
   1655   1657   1669     1   108.0100461 406.684800
   1655   1657   1670     1   108.0100461 406.684800
   1655   1662   1675     1   108.0100461 406.684800
   1655   1662   1676     1   108.0100461 406.684800
   1656   1655   1680     1   110.1100470 384.091200
   1656   1658   1671     1   109.8000471 387.438400
   1656   1658   1672     1   109.8000471 387.438400
   1657   1655   1680     1   110.1100470 384.091200
   1657   1660   1673     1   109.8000471 387.438400
   1657   1660   1674     1   109.8000471 387.438400
   1658   1656   1667     1   110.5600475 386.601600
   1658   1656   1668     1   110.5600475 386.601600
   1659   1658   1671     1   108.7700466 392.459200
   1659   1658   1672     1   108.7700466 392.459200
   1659   3563   3564     1   117.5500507 404.174400
   1660   1657   1669     1   110.5600475 386.601600
   1660   1657   1670     1   110.5600475 386.601600
   1661   1660   1673     1   108.7700466 392.459200
   1661   1660   1674     1   108.7700466 392.459200
   1661   3637   3638     1   117.5500507 404.174400
   1662   1655   1680     1   110.1100470 384.091200
   1662   1663   1677     1   109.5600471 388.275200
   1662   1663   1678     1   109.5600471 388.275200
   1663   1662   1675     1   110.5600475 386.601600
   1663   1662   1676     1   110.5600475 386.601600
   1663   1664   1679     1   117.6800502 383.254400
   1664   1663   1677     1   108.8800464 416.726400
   1664   1663   1678     1   108.8800464 416.726400
   1667   1656   1668     1   109.7500473 328.025600
   1669   1657   1670     1   109.7500473 328.025600
   1671   1658   1672     1   107.5800459 329.699200
   1673   1660   1674     1   107.5800459 329.699200
   1675   1662   1676     1   109.7500473 328.025600
   1677   1663   1678     1   108.4600466 328.025600
   1681   1682   1693     1   108.0100461 406.684800
   1681   1682   1694     1   108.0100461 406.684800
   1681   1683   1695     1   108.0100461 406.684800
   1681   1683   1696     1   108.0100461 406.684800
   1681   1688   1701     1   108.0100461 406.684800
   1681   1688   1702     1   108.0100461 406.684800
   1682   1681   1706     1   110.1100470 384.091200
   1682   1684   1697     1   109.8000471 387.438400
   1682   1684   1698     1   109.8000471 387.438400
   1683   1681   1706     1   110.1100470 384.091200
   1683   1686   1699     1   109.8000471 387.438400
   1683   1686   1700     1   109.8000471 387.438400
   1684   1682   1693     1   110.5600475 386.601600
   1684   1682   1694     1   110.5600475 386.601600
   1685   1684   1697     1   108.7700466 392.459200
   1685   1684   1698     1   108.7700466 392.459200
   1685   3711   3712     1   117.5500507 404.174400
   1686   1683   1695     1   110.5600475 386.601600
   1686   1683   1696     1   110.5600475 386.601600
   1687   1686   1699     1   108.7700466 392.459200
   1687   1686   1700     1   108.7700466 392.459200
   1687   3785   3786     1   117.5500507 404.174400
   1688   1681   1706     1   110.1100470 384.091200
   1688   1689   1703     1   109.5600471 388.275200
   1688   1689   1704     1   109.5600471 388.275200
   1689   1688   1701     1   110.5600475 386.601600
   1689   1688   1702     1   110.5600475 386.601600
   1689   1690   1705     1   117.6800502 383.254400
   1690   1689   1703     1   108.8800464 416.726400
   1690   1689   1704     1   108.8800464 416.726400
   1693   1682   1694     1   109.7500473 328.025600
   1695   1683   1696     1   109.7500473 328.025600
   1697   1684   1698     1   107.5800459 329.699200
   1699   1686   1700     1   107.5800459 329.699200
   1701   1688   1702     1   109.7500473 328.025600
   1703   1689   1704     1   108.4600466 328.025600
   1707   1708   1719     1   108.0100461 406.684800
   1707   1708   1720     1   108.0100461 406.684800
   1707   1709   1721     1   108.0100461 406.684800
   1707   1709   1722     1   108.0100461 406.684800
   1707   1714   1727     1   108.0100461 406.684800
   1707   1714   1728     1   108.0100461 406.684800
   1708   1707   1732     1   110.1100470 384.091200
   1708   1710   1723     1   109.8000471 387.438400
   1708   1710   1724     1   109.8000471 387.438400
   1709   1707   1732     1   110.1100470 384.091200
   1709   1712   1725     1   109.8000471 387.438400
   1709   1712   1726     1   109.8000471 387.438400
   1710   1708   1719     1   110.5600475 386.601600
   1710   1708   1720     1   110.5600475 386.601600
   1711   1710   1723     1   108.7700466 392.459200
   1711   1710   1724     1   108.7700466 392.459200
   1711   3859   3860     1   117.5500507 404.174400
   1712   1709   1721     1   110.5600475 386.601600
   1712   1709   1722     1   110.5600475 386.601600
   1713   1712   1725     1   108.7700466 392.459200
   1713   1712   1726     1   108.7700466 392.459200
   1713   3933   3934     1   117.5500507 404.174400
   1714   1707   1732     1   110.1100470 384.091200
   1714   1715   1729     1   109.5600471 388.275200
   1714   1715   1730     1   109.5600471 388.275200
   1715   1714   1727     1   110.5600475 386.601600
   1715   1714   1728     1   110.5600475 386.601600
   1715   1716   1731     1   117.6800502 383.254400
   1716   1715   1729     1   108.8800464 416.726400
   1716   1715   1730     1   108.8800464 416.726400
   1719   1708   1720     1   109.7500473 328.025600
   1721   1709   1722     1   109.7500473 328.025600
   1723   1710   1724     1   107.5800459 329.699200
   1725   1712   1726     1   107.5800459 329.699200
   1727   1714   1728     1   109.7500473 328.025600
   1729   1715   1730     1   108.4600466 328.025600
   1733   1734   1745     1   108.0100461 406.684800
   1733   1734   1746     1   108.0100461 406.684800
   1733   1735   1747     1   108.0100461 406.684800
   1733   1735   1748     1   108.0100461 406.684800
   1733   1740   1753     1   108.0100461 406.684800
   1733   1740   1754     1   108.0100461 406.684800
   1734   1733   1758     1   110.1100470 384.091200
   1734   1736   1749     1   109.8000471 387.438400
   1734   1736   1750     1   109.8000471 387.438400
   1735   1733   1758     1   110.1100470 384.091200
   1735   1738   1751     1   109.8000471 387.438400
   1735   1738   1752     1   109.8000471 387.438400
   1736   1734   1745     1   110.5600475 386.601600
   1736   1734   1746     1   110.5600475 386.601600
   1737   1736   1749     1   108.7700466 392.459200
   1737   1736   1750     1   108.7700466 392.459200
   1737   4007   4008     1   117.5500507 404.174400
   1738   1735   1747     1   110.5600475 386.601600
   1738   1735   1748     1   110.5600475 386.601600
   1739   1738   1751     1   108.7700466 392.459200
   1739   1738   1752     1   108.7700466 392.459200
   1739   4081   4082     1   117.5500507 404.174400
   1740   1733   1758     1   110.1100470 384.091200
   1740   1741   1755     1   109.5600471 388.275200
   1740   1741   1756     1   109.5600471 388.275200
   1741   1740   1753     1   110.5600475 386.601600
   1741   1740   1754     1   110.5600475 386.601600
   1741   1742   1757     1   117.6800502 383.254400
   1742   1741   1755     1   108.8800464 416.726400
   1742   1741   1756     1   108.8800464 416.726400
   1745   1734   1746     1   109.7500473 328.025600
   1747   1735   1748     1   109.7500473 328.025600
   1749   1736   1750     1   107.5800459 329.699200
   1751   1738   1752     1   107.5800459 329.699200
   1753   1740   1754     1   109.7500473 328.025600
   1755   1741   1756     1   108.4600466 328.025600
   1759   1760   1771     1   108.0100461 406.684800
   1759   1760   1772     1   108.0100461 406.684800
   1759   1761   1773     1   108.0100461 406.684800
   1759   1761   1774     1   108.0100461 406.684800
   1759   1766   1779     1   108.0100461 406.684800
   1759   1766   1780     1   108.0100461 406.684800
   1760   1759   1784     1   110.1100470 384.091200
   1760   1762   1775     1   109.8000471 387.438400
   1760   1762   1776     1   109.8000471 387.438400
   1761   1759   1784     1   110.1100470 384.091200
   1761   1764   1777     1   109.8000471 387.438400
   1761   1764   1778     1   109.8000471 387.438400
   1762   1760   1771     1   110.5600475 386.601600
   1762   1760   1772     1   110.5600475 386.601600
   1763   1762   1775     1   108.7700466 392.459200
   1763   1762   1776     1   108.7700466 392.459200
   1763   4155   4156     1   117.5500507 404.174400
   1764   1761   1773     1   110.5600475 386.601600
   1764   1761   1774     1   110.5600475 386.601600
   1765   1764   1777     1   108.7700466 392.459200
   1765   1764   1778     1   108.7700466 392.459200
   1765   4229   4230     1   117.5500507 404.174400
   1766   1759   1784     1   110.1100470 384.091200
   1766   1767   1781     1   109.5600471 388.275200
   1766   1767   1782     1   109.5600471 388.275200
   1767   1766   1779     1   110.5600475 386.601600
   1767   1766   1780     1   110.5600475 386.601600
   1767   1768   1783     1   117.6800502 383.254400
   1768   1767   1781     1   108.8800464 416.726400
   1768   1767   1782     1   108.8800464 416.726400
   1771   1760   1772     1   109.7500473 328.025600
   1773   1761   1774     1   109.7500473 328.025600
   1775   1762   1776     1   107.5800459 329.699200
   1777   1764   1778     1   107.5800459 329.699200
   1779   1766   1780     1   109.7500473 328.025600
   1781   1767   1782     1   108.4600466 328.025600
   1785   1786   1797     1   108.0100461 406.684800
   1785   1786   1798     1   108.0100461 406.684800
   1785   1787   1799     1   108.0100461 406.684800
   1785   1787   1800     1   108.0100461 406.684800
   1785   1792   1805     1   108.0100461 406.684800
   1785   1792   1806     1   108.0100461 406.684800
   1786   1785   1810     1   110.1100470 384.091200
   1786   1788   1801     1   109.8000471 387.438400
   1786   1788   1802     1   109.8000471 387.438400
   1787   1785   1810     1   110.1100470 384.091200
   1787   1790   1803     1   109.8000471 387.438400
   1787   1790   1804     1   109.8000471 387.438400
   1788   1786   1797     1   110.5600475 386.601600
   1788   1786   1798     1   110.5600475 386.601600
   1789   1788   1801     1   108.7700466 392.459200
   1789   1788   1802     1   108.7700466 392.459200
   1789   4303   4304     1   117.5500507 404.174400
   1790   1787   1799     1   110.5600475 386.601600
   1790   1787   1800     1   110.5600475 386.601600
   1791   1790   1803     1   108.7700466 392.459200
   1791   1790   1804     1   108.7700466 392.459200
   1791   4377   4378     1   117.5500507 404.174400
   1792   1785   1810     1   110.1100470 384.091200
   1792   1793   1807     1   109.5600471 388.275200
   1792   1793   1808     1   109.5600471 388.275200
   1793   1792   1805     1   110.5600475 386.601600
   1793   1792   1806     1   110.5600475 386.601600
   1793   1794   1809     1   117.6800502 383.254400
   1794   1793   1807     1   108.8800464 416.726400
   1794   1793   1808     1   108.8800464 416.726400
   1797   1786   1798     1   109.7500473 328.025600
   1799   1787   1800     1   109.7500473 328.025600
   1801   1788   1802     1   107.5800459 329.699200
   1803   1790   1804     1   107.5800459 329.699200
   1805   1792   1806     1   109.7500473 328.025600
   1807   1793   1808     1   108.4600466 328.025600
   1811   1812   1823     1   108.0100461 406.684800
   1811   1812   1824     1   108.0100461 406.684800
   1811   1813   1825     1   108.0100461 406.684800
   1811   1813   1826     1   108.0100461 406.684800
   1811   1818   1831     1   108.0100461 406.684800
   1811   1818   1832     1   108.0100461 406.684800
   1812   1811   1836     1   110.1100470 384.091200
   1812   1814   1827     1   109.8000471 387.438400
   1812   1814   1828     1   109.8000471 387.438400
   1813   1811   1836     1   110.1100470 384.091200
   1813   1816   1829     1   109.8000471 387.438400
   1813   1816   1830     1   109.8000471 387.438400
   1814   1812   1823     1   110.5600475 386.601600
   1814   1812   1824     1   110.5600475 386.601600
   1815   1814   1827     1   108.7700466 392.459200
   1815   1814   1828     1   108.7700466 392.459200
   1815   4451   4452     1   117.5500507 404.174400
   1816   1813   1825     1   110.5600475 386.601600
   1816   1813   1826     1   110.5600475 386.601600
   1817   1816   1829     1   108.7700466 392.459200
   1817   1816   1830     1   108.7700466 392.459200
   1817   4525   4526     1   117.5500507 404.174400
   1818   1811   1836     1   110.1100470 384.091200
   1818   1819   1833     1   109.5600471 388.275200
   1818   1819   1834     1   109.5600471 388.275200
   1819   1818   1831     1   110.5600475 386.601600
   1819   1818   1832     1   110.5600475 386.601600
   1819   1820   1835     1   117.6800502 383.254400
   1820   1819   1833     1   108.8800464 416.726400
   1820   1819   1834     1   108.8800464 416.726400
   1823   1812   1824     1   109.7500473 328.025600
   1825   1813   1826     1   109.7500473 328.025600
   1827   1814   1828     1   107.5800459 329.699200
   1829   1816   1830     1   107.5800459 329.699200
   1831   1818   1832     1   109.7500473 328.025600
   1833   1819   1834     1   108.4600466 328.025600
   1837   1838   1849     1   108.0100461 406.684800
   1837   1838   1850     1   108.0100461 406.684800
   1837   1839   1851     1   108.0100461 406.684800
   1837   1839   1852     1   108.0100461 406.684800
   1837   1844   1857     1   108.0100461 406.684800
   1837   1844   1858     1   108.0100461 406.684800
   1838   1837   1862     1   110.1100470 384.091200
   1838   1840   1853     1   109.8000471 387.438400
   1838   1840   1854     1   109.8000471 387.438400
   1839   1837   1862     1   110.1100470 384.091200
   1839   1842   1855     1   109.8000471 387.438400
   1839   1842   1856     1   109.8000471 387.438400
   1840   1838   1849     1   110.5600475 386.601600
   1840   1838   1850     1   110.5600475 386.601600
   1841   1840   1853     1   108.7700466 392.459200
   1841   1840   1854     1   108.7700466 392.459200
   1841   4599   4600     1   117.5500507 404.174400
   1842   1839   1851     1   110.5600475 386.601600
   1842   1839   1852     1   110.5600475 386.601600
   1843   1842   1855     1   108.7700466 392.459200
   1843   1842   1856     1   108.7700466 392.459200
   1843   4673   4674     1   117.5500507 404.174400
   1844   1837   1862     1   110.1100470 384.091200
   1844   1845   1859     1   109.5600471 388.275200
   1844   1845   1860     1   109.5600471 388.275200
   1845   1844   1857     1   110.5600475 386.601600
   1845   1844   1858     1   110.5600475 386.601600
   1845   1846   1861     1   117.6800502 383.254400
   1846   1845   1859     1   108.8800464 416.726400
   1846   1845   1860     1   108.8800464 416.726400
   1849   1838   1850     1   109.7500473 328.025600
   1851   1839   1852     1   109.7500473 328.025600
   1853   1840   1854     1   107.5800459 329.699200
   1855   1842   1856     1   107.5800459 329.699200
   1857   1844   1858     1   109.7500473 328.025600
   1859   1845   1860     1   108.4600466 328.025600
   1863   1864   1875     1   108.0100461 406.684800
   1863   1864   1876     1   108.0100461 406.684800
   1863   1865   1877     1   108.0100461 406.684800
   1863   1865   1878     1   108.0100461 406.684800
   1863   1870   1883     1   108.0100461 406.684800
   1863   1870   1884     1   108.0100461 406.684800
   1864   1863   1888     1   110.1100470 384.091200
   1864   1866   1879     1   109.8000471 387.438400
   1864   1866   1880     1   109.8000471 387.438400
   1865   1863   1888     1   110.1100470 384.091200
   1865   1868   1881     1   109.8000471 387.438400
   1865   1868   1882     1   109.8000471 387.438400
   1866   1864   1875     1   110.5600475 386.601600
   1866   1864   1876     1   110.5600475 386.601600
   1867   1866   1879     1   108.7700466 392.459200
   1867   1866   1880     1   108.7700466 392.459200
   1867   4747   4748     1   117.5500507 404.174400
   1868   1865   1877     1   110.5600475 386.601600
   1868   1865   1878     1   110.5600475 386.601600
   1869   1868   1881     1   108.7700466 392.459200
   1869   1868   1882     1   108.7700466 392.459200
   1869   4821   4822     1   117.5500507 404.174400
   1870   1863   1888     1   110.1100470 384.091200
   1870   1871   1885     1   109.5600471 388.275200
   1870   1871   1886     1   109.5600471 388.275200
   1871   1870   1883     1   110.5600475 386.601600
   1871   1870   1884     1   110.5600475 386.601600
   1871   1872   1887     1   117.6800502 383.254400
   1872   1871   1885     1   108.8800464 416.726400
   1872   1871   1886     1   108.8800464 416.726400
   1875   1864   1876     1   109.7500473 328.025600
   1877   1865   1878     1   109.7500473 328.025600
   1879   1866   1880     1   107.5800459 329.699200
   1881   1868   1882     1   107.5800459 329.699200
   1883   1870   1884     1   109.7500473 328.025600
   1885   1871   1886     1   108.4600466 328.025600
   1889   1890   1901     1   108.0100461 406.684800
   1889   1890   1902     1   108.0100461 406.684800
   1889   1891   1903     1   108.0100461 406.684800
   1889   1891   1904     1   108.0100461 406.684800
   1889   1896   1909     1   108.0100461 406.684800
   1889   1896   1910     1   108.0100461 406.684800
   1890   1889   1914     1   110.1100470 384.091200
   1890   1892   1905     1   109.8000471 387.438400
   1890   1892   1906     1   109.8000471 387.438400
   1891   1889   1914     1   110.1100470 384.091200
   1891   1894   1907     1   109.8000471 387.438400
   1891   1894   1908     1   109.8000471 387.438400
   1892   1890   1901     1   110.5600475 386.601600
   1892   1890   1902     1   110.5600475 386.601600
   1893   1892   1905     1   108.7700466 392.459200
   1893   1892   1906     1   108.7700466 392.459200
   1893   4895   4896     1   117.5500507 404.174400
   1894   1891   1903     1   110.5600475 386.601600
   1894   1891   1904     1   110.5600475 386.601600
   1895   1894   1907     1   108.7700466 392.459200
   1895   1894   1908     1   108.7700466 392.459200
   1895   4969   4970     1   117.5500507 404.174400
   1896   1889   1914     1   110.1100470 384.091200
   1896   1897   1911     1   109.5600471 388.275200
   1896   1897   1912     1   109.5600471 388.275200
   1897   1896   1909     1   110.5600475 386.601600
   1897   1896   1910     1   110.5600475 386.601600
   1897   1898   1913     1   117.6800502 383.254400
   1898   1897   1911     1   108.8800464 416.726400
   1898   1897   1912     1   108.8800464 416.726400
   1901   1890   1902     1   109.7500473 328.025600
   1903   1891   1904     1   109.7500473 328.025600
   1905   1892   1906     1   107.5800459 329.699200
   1907   1894   1908     1   107.5800459 329.699200
   1909   1896   1910     1   109.7500473 328.025600
   1911   1897   1912     1   108.4600466 328.025600
   1915   1916   1927     1   108.0100461 406.684800
   1915   1916   1928     1   108.0100461 406.684800
   1915   1917   1929     1   108.0100461 406.684800
   1915   1917   1930     1   108.0100461 406.684800
   1915   1922   1935     1   108.0100461 406.684800
   1915   1922   1936     1   108.0100461 406.684800
   1916   1915   1940     1   110.1100470 384.091200
   1916   1918   1931     1   109.8000471 387.438400
   1916   1918   1932     1   109.8000471 387.438400
   1917   1915   1940     1   110.1100470 384.091200
   1917   1920   1933     1   109.8000471 387.438400
   1917   1920   1934     1   109.8000471 387.438400
   1918   1916   1927     1   110.5600475 386.601600
   1918   1916   1928     1   110.5600475 386.601600
   1919   1918   1931     1   108.7700466 392.459200
   1919   1918   1932     1   108.7700466 392.459200
   1919   5043   5044     1   117.5500507 404.174400
   1920   1917   1929     1   110.5600475 386.601600
   1920   1917   1930     1   110.5600475 386.601600
   1921   1920   1933     1   108.7700466 392.459200
   1921   1920   1934     1   108.7700466 392.459200
   1921   5117   5118     1   117.5500507 404.174400
   1922   1915   1940     1   110.1100470 384.091200
   1922   1923   1937     1   109.5600471 388.275200
   1922   1923   1938     1   109.5600471 388.275200
   1923   1922   1935     1   110.5600475 386.601600
   1923   1922   1936     1   110.5600475 386.601600
   1923   1924   1939     1   117.6800502 383.254400
   1924   1923   1937     1   108.8800464 416.726400
   1924   1923   1938     1   108.8800464 416.726400
   1927   1916   1928     1   109.7500473 328.025600
   1929   1917   1930     1   109.7500473 328.025600
   1931   1918   1932     1   107.5800459 329.699200
   1933   1920   1934     1   107.5800459 329.699200
   1935   1922   1936     1   109.7500473 328.025600
   1937   1923   1938     1   108.4600466 328.025600
   1941   1942   1953     1   108.0100461 406.684800
   1941   1942   1954     1   108.0100461 406.684800
   1941   1943   1955     1   108.0100461 406.684800
   1941   1943   1956     1   108.0100461 406.684800
   1941   1948   1961     1   108.0100461 406.684800
   1941   1948   1962     1   108.0100461 406.684800
   1942   1941   1966     1   110.1100470 384.091200
   1942   1944   1957     1   109.8000471 387.438400
   1942   1944   1958     1   109.8000471 387.438400
   1943   1941   1966     1   110.1100470 384.091200
   1943   1946   1959     1   109.8000471 387.438400
   1943   1946   1960     1   109.8000471 387.438400
   1944   1942   1953     1   110.5600475 386.601600
   1944   1942   1954     1   110.5600475 386.601600
   1945   1944   1957     1   108.7700466 392.459200
   1945   1944   1958     1   108.7700466 392.459200
   1945   5191   5192     1   117.5500507 404.174400
   1946   1943   1955     1   110.5600475 386.601600
   1946   1943   1956     1   110.5600475 386.601600
   1947   1946   1959     1   108.7700466 392.459200
   1947   1946   1960     1   108.7700466 392.459200
   1947   5265   5266     1   117.5500507 404.174400
   1948   1941   1966     1   110.1100470 384.091200
   1948   1949   1963     1   109.5600471 388.275200
   1948   1949   1964     1   109.5600471 388.275200
   1949   1948   1961     1   110.5600475 386.601600
   1949   1948   1962     1   110.5600475 386.601600
   1949   1950   1965     1   117.6800502 383.254400
   1950   1949   1963     1   108.8800464 416.726400
   1950   1949   1964     1   108.8800464 416.726400
   1953   1942   1954     1   109.7500473 328.025600
   1955   1943   1956     1   109.7500473 328.025600
   1957   1944   1958     1   107.5800459 329.699200
   1959   1946   1960     1   107.5800459 329.699200
   1961   1948   1962     1   109.7500473 328.025600
   1963   1949   1964     1   108.4600466 328.025600
   1967   1968   1979     1   108.0100461 406.684800
   1967   1968   1980     1   108.0100461 406.684800
   1967   1969   1981     1   108.0100461 406.684800
   1967   1969   1982     1   108.0100461 406.684800
   1967   1974   1987     1   108.0100461 406.684800
   1967   1974   1988     1   108.0100461 406.684800
   1968   1967   1992     1   110.1100470 384.091200
   1968   1970   1983     1   109.8000471 387.438400
   1968   1970   1984     1   109.8000471 387.438400
   1969   1967   1992     1   110.1100470 384.091200
   1969   1972   1985     1   109.8000471 387.438400
   1969   1972   1986     1   109.8000471 387.438400
   1970   1968   1979     1   110.5600475 386.601600
   1970   1968   1980     1   110.5600475 386.601600
   1971   1970   1983     1   108.7700466 392.459200
   1971   1970   1984     1   108.7700466 392.459200
   1971   5339   5340     1   117.5500507 404.174400
   1972   1969   1981     1   110.5600475 386.601600
   1972   1969   1982     1   110.5600475 386.601600
   1973   1972   1985     1   108.7700466 392.459200
   1973   1972   1986     1   108.7700466 392.459200
   1973   5413   5414     1   117.5500507 404.174400
   1974   1967   1992     1   110.1100470 384.091200
   1974   1975   1989     1   109.5600471 388.275200
   1974   1975   1990     1   109.5600471 388.275200
   1975   1974   1987     1   110.5600475 386.601600
   1975   1974   1988     1   110.5600475 386.601600
   1975   1976   1991     1   117.6800502 383.254400
   1976   1975   1989     1   108.8800464 416.726400
   1976   1975   1990     1   108.8800464 416.726400
   1979   1968   1980     1   109.7500473 328.025600
   1981   1969   1982     1   109.7500473 328.025600
   1983   1970   1984     1   107.5800459 329.699200
   1985   1972   1986     1   107.5800459 329.699200
   1987   1974   1988     1   109.7500473 328.025600
   1989   1975   1990     1   108.4600466 328.025600
   1993   1994   2005     1   108.0100461 406.684800
   1993   1994   2006     1   108.0100461 406.684800
   1993   1995   2007     1   108.0100461 406.684800
   1993   1995   2008     1   108.0100461 406.684800
   1993   2000   2013     1   108.0100461 406.684800
   1993   2000   2014     1   108.0100461 406.684800
   1994   1993   2018     1   110.1100470 384.091200
   1994   1996   2009     1   109.8000471 387.438400
   1994   1996   2010     1   109.8000471 387.438400
   1995   1993   2018     1   110.1100470 384.091200
   1995   1998   2011     1   109.8000471 387.438400
   1995   1998   2012     1   109.8000471 387.438400
   1996   1994   2005     1   110.5600475 386.601600
   1996   1994   2006     1   110.5600475 386.601600
   1997   1996   2009     1   108.7700466 392.459200
   1997   1996   2010     1   108.7700466 392.459200
   1997   5487   5488     1   117.5500507 404.174400
   1998   1995   2007     1   110.5600475 386.601600
   1998   1995   2008     1   110.5600475 386.601600
   1999   1998   2011     1   108.7700466 392.459200
   1999   1998   2012     1   108.7700466 392.459200
   1999   5561   5562     1   117.5500507 404.174400
   2000   1993   2018     1   110.1100470 384.091200
   2000   2001   2015     1   109.5600471 388.275200
   2000   2001   2016     1   109.5600471 388.275200
   2001   2000   2013     1   110.5600475 386.601600
   2001   2000   2014     1   110.5600475 386.601600
   2001   2002   2017     1   117.6800502 383.254400
   2002   2001   2015     1   108.8800464 416.726400
   2002   2001   2016     1   108.8800464 416.726400
   2005   1994   2006     1   109.7500473 328.025600
   2007   1995   2008     1   109.7500473 328.025600
   2009   1996   2010     1   107.5800459 329.699200
   2011   1998   2012     1   107.5800459 329.699200
   2013   2000   2014     1   109.7500473 328.025600
   2015   2001   2016     1   108.4600466 328.025600
   2019   2020   2031     1   108.0100461 406.684800
   2019   2020   2032     1   108.0100461 406.684800
   2019   2021   2033     1   108.0100461 406.684800
   2019   2021   2034     1   108.0100461 406.684800
   2019   2026   2039     1   108.0100461 406.684800
   2019   2026   2040     1   108.0100461 406.684800
   2020   2019   2044     1   110.1100470 384.091200
   2020   2022   2035     1   109.8000471 387.438400
   2020   2022   2036     1   109.8000471 387.438400
   2021   2019   2044     1   110.1100470 384.091200
   2021   2024   2037     1   109.8000471 387.438400
   2021   2024   2038     1   109.8000471 387.438400
   2022   2020   2031     1   110.5600475 386.601600
   2022   2020   2032     1   110.5600475 386.601600
   2023   2022   2035     1   108.7700466 392.459200
   2023   2022   2036     1   108.7700466 392.459200
   2023   5635   5636     1   117.5500507 404.174400
   2024   2021   2033     1   110.5600475 386.601600
   2024   2021   2034     1   110.5600475 386.601600
   2025   2024   2037     1   108.7700466 392.459200
   2025   2024   2038     1   108.7700466 392.459200
   2025   5709   5710     1   117.5500507 404.174400
   2026   2019   2044     1   110.1100470 384.091200
   2026   2027   2041     1   109.5600471 388.275200
   2026   2027   2042     1   109.5600471 388.275200
   2027   2026   2039     1   110.5600475 386.601600
   2027   2026   2040     1   110.5600475 386.601600
   2027   2028   2043     1   117.6800502 383.254400
   2028   2027   2041     1   108.8800464 416.726400
   2028   2027   2042     1   108.8800464 416.726400
   2031   2020   2032     1   109.7500473 328.025600
   2033   2021   2034     1   109.7500473 328.025600
   2035   2022   2036     1   107.5800459 329.699200
   2037   2024   2038     1   107.5800459 329.699200
   2039   2026   2040     1   109.7500473 328.025600
   2041   2027   2042     1   108.4600466 328.025600
   2045   2046   2057     1   108.0100461 406.684800
   2045   2046   2058     1   108.0100461 406.684800
   2045   2047   2059     1   108.0100461 406.684800
   2045   2047   2060     1   108.0100461 406.684800
   2045   2052   2065     1   108.0100461 406.684800
   2045   2052   2066     1   108.0100461 406.684800
   2046   2045   2070     1   110.1100470 384.091200
   2046   2048   2061     1   109.8000471 387.438400
   2046   2048   2062     1   109.8000471 387.438400
   2047   2045   2070     1   110.1100470 384.091200
   2047   2050   2063     1   109.8000471 387.438400
   2047   2050   2064     1   109.8000471 387.438400
   2048   2046   2057     1   110.5600475 386.601600
   2048   2046   2058     1   110.5600475 386.601600
   2049   2048   2061     1   108.7700466 392.459200
   2049   2048   2062     1   108.7700466 392.459200
   2049   5783   5784     1   117.5500507 404.174400
   2050   2047   2059     1   110.5600475 386.601600
   2050   2047   2060     1   110.5600475 386.601600
   2051   2050   2063     1   108.7700466 392.459200
   2051   2050   2064     1   108.7700466 392.459200
   2051   5857   5858     1   117.5500507 404.174400
   2052   2045   2070     1   110.1100470 384.091200
   2052   2053   2067     1   109.5600471 388.275200
   2052   2053   2068     1   109.5600471 388.275200
   2053   2052   2065     1   110.5600475 386.601600
   2053   2052   2066     1   110.5600475 386.601600
   2053   2054   2069     1   117.6800502 383.254400
   2054   2053   2067     1   108.8800464 416.726400
   2054   2053   2068     1   108.8800464 416.726400
   2057   2046   2058     1   109.7500473 328.025600
   2059   2047   2060     1   109.7500473 328.025600
   2061   2048   2062     1   107.5800459 329.699200
   2063   2050   2064     1   107.5800459 329.699200
   2065   2052   2066     1   109.7500473 328.025600
   2067   2053   2068     1   108.4600466 328.025600
   2071   2072   2083     1   108.0100461 406.684800
   2071   2072   2084     1   108.0100461 406.684800
   2071   2073   2085     1   108.0100461 406.684800
   2071   2073   2086     1   108.0100461 406.684800
   2071   2078   2091     1   108.0100461 406.684800
   2071   2078   2092     1   108.0100461 406.684800
   2072   2071   2096     1   110.1100470 384.091200
   2072   2074   2087     1   109.8000471 387.438400
   2072   2074   2088     1   109.8000471 387.438400
   2073   2071   2096     1   110.1100470 384.091200
   2073   2076   2089     1   109.8000471 387.438400
   2073   2076   2090     1   109.8000471 387.438400
   2074   2072   2083     1   110.5600475 386.601600
   2074   2072   2084     1   110.5600475 386.601600
   2075   2074   2087     1   108.7700466 392.459200
   2075   2074   2088     1   108.7700466 392.459200
   2075   5931   5932     1   117.5500507 404.174400
   2076   2073   2085     1   110.5600475 386.601600
   2076   2073   2086     1   110.5600475 386.601600
   2077   2076   2089     1   108.7700466 392.459200
   2077   2076   2090     1   108.7700466 392.459200
   2077   6005   6006     1   117.5500507 404.174400
   2078   2071   2096     1   110.1100470 384.091200
   2078   2079   2093     1   109.5600471 388.275200
   2078   2079   2094     1   109.5600471 388.275200
   2079   2078   2091     1   110.5600475 386.601600
   2079   2078   2092     1   110.5600475 386.601600
   2079   2080   2095     1   117.6800502 383.254400
   2080   2079   2093     1   108.8800464 416.726400
   2080   2079   2094     1   108.8800464 416.726400
   2083   2072   2084     1   109.7500473 328.025600
   2085   2073   2086     1   109.7500473 328.025600
   2087   2074   2088     1   107.5800459 329.699200
   2089   2076   2090     1   107.5800459 329.699200
   2091   2078   2092     1   109.7500473 328.025600
   2093   2079   2094     1   108.4600466 328.025600
   2097   2098   2109     1   108.0100461 406.684800
   2097   2098   2110     1   108.0100461 406.684800
   2097   2099   2111     1   108.0100461 406.684800
   2097   2099   2112     1   108.0100461 406.684800
   2097   2104   2117     1   108.0100461 406.684800
   2097   2104   2118     1   108.0100461 406.684800
   2098   2097   2122     1   110.1100470 384.091200
   2098   2100   2113     1   109.8000471 387.438400
   2098   2100   2114     1   109.8000471 387.438400
   2099   2097   2122     1   110.1100470 384.091200
   2099   2102   2115     1   109.8000471 387.438400
   2099   2102   2116     1   109.8000471 387.438400
   2100   2098   2109     1   110.5600475 386.601600
   2100   2098   2110     1   110.5600475 386.601600
   2101   2100   2113     1   108.7700466 392.459200
   2101   2100   2114     1   108.7700466 392.459200
   2101   6079   6080     1   117.5500507 404.174400
   2102   2099   2111     1   110.5600475 386.601600
   2102   2099   2112     1   110.5600475 386.601600
   2103   2102   2115     1   108.7700466 392.459200
   2103   2102   2116     1   108.7700466 392.459200
   2103   6153   6154     1   117.5500507 404.174400
   2104   2097   2122     1   110.1100470 384.091200
   2104   2105   2119     1   109.5600471 388.275200
   2104   2105   2120     1   109.5600471 388.275200
   2105   2104   2117     1   110.5600475 386.601600
   2105   2104   2118     1   110.5600475 386.601600
   2105   2106   2121     1   117.6800502 383.254400
   2106   2105   2119     1   108.8800464 416.726400
   2106   2105   2120     1   108.8800464 416.726400
   2109   2098   2110     1   109.7500473 328.025600
   2111   2099   2112     1   109.7500473 328.025600
   2113   2100   2114     1   107.5800459 329.699200
   2115   2102   2116     1   107.5800459 329.699200
   2117   2104   2118     1   109.7500473 328.025600
   2119   2105   2120     1   108.4600466 328.025600
   2123   2124   2135     1   108.0100461 406.684800
   2123   2124   2136     1   108.0100461 406.684800
   2123   2125   2137     1   108.0100461 406.684800
   2123   2125   2138     1   108.0100461 406.684800
   2123   2130   2143     1   108.0100461 406.684800
   2123   2130   2144     1   108.0100461 406.684800
   2124   2123   2148     1   110.1100470 384.091200
   2124   2126   2139     1   109.8000471 387.438400
   2124   2126   2140     1   109.8000471 387.438400
   2125   2123   2148     1   110.1100470 384.091200
   2125   2128   2141     1   109.8000471 387.438400
   2125   2128   2142     1   109.8000471 387.438400
   2126   2124   2135     1   110.5600475 386.601600
   2126   2124   2136     1   110.5600475 386.601600
   2127   2126   2139     1   108.7700466 392.459200
   2127   2126   2140     1   108.7700466 392.459200
   2127   6227   6228     1   117.5500507 404.174400
   2128   2125   2137     1   110.5600475 386.601600
   2128   2125   2138     1   110.5600475 386.601600
   2129   2128   2141     1   108.7700466 392.459200
   2129   2128   2142     1   108.7700466 392.459200
   2129   6301   6302     1   117.5500507 404.174400
   2130   2123   2148     1   110.1100470 384.091200
   2130   2131   2145     1   109.5600471 388.275200
   2130   2131   2146     1   109.5600471 388.275200
   2131   2130   2143     1   110.5600475 386.601600
   2131   2130   2144     1   110.5600475 386.601600
   2131   2132   2147     1   117.6800502 383.254400
   2132   2131   2145     1   108.8800464 416.726400
   2132   2131   2146     1   108.8800464 416.726400
   2135   2124   2136     1   109.7500473 328.025600
   2137   2125   2138     1   109.7500473 328.025600
   2139   2126   2140     1   107.5800459 329.699200
   2141   2128   2142     1   107.5800459 329.699200
   2143   2130   2144     1   109.7500473 328.025600
   2145   2131   2146     1   108.4600466 328.025600
   2149   2150   2161     1   108.0100461 406.684800
   2149   2150   2162     1   108.0100461 406.684800
   2149   2151   2163     1   108.0100461 406.684800
   2149   2151   2164     1   108.0100461 406.684800
   2149   2156   2169     1   108.0100461 406.684800
   2149   2156   2170     1   108.0100461 406.684800
   2150   2149   2174     1   110.1100470 384.091200
   2150   2152   2165     1   109.8000471 387.438400
   2150   2152   2166     1   109.8000471 387.438400
   2151   2149   2174     1   110.1100470 384.091200
   2151   2154   2167     1   109.8000471 387.438400
   2151   2154   2168     1   109.8000471 387.438400
   2152   2150   2161     1   110.5600475 386.601600
   2152   2150   2162     1   110.5600475 386.601600
   2153   2152   2165     1   108.7700466 392.459200
   2153   2152   2166     1   108.7700466 392.459200
   2153   6375   6376     1   117.5500507 404.174400
   2154   2151   2163     1   110.5600475 386.601600
   2154   2151   2164     1   110.5600475 386.601600
   2155   2154   2167     1   108.7700466 392.459200
   2155   2154   2168     1   108.7700466 392.459200
   2155   6449   6450     1   117.5500507 404.174400
   2156   2149   2174     1   110.1100470 384.091200
   2156   2157   2171     1   109.5600471 388.275200
   2156   2157   2172     1   109.5600471 388.275200
   2157   2156   2169     1   110.5600475 386.601600
   2157   2156   2170     1   110.5600475 386.601600
   2157   2158   2173     1   117.6800502 383.254400
   2158   2157   2171     1   108.8800464 416.726400
   2158   2157   2172     1   108.8800464 416.726400
   2161   2150   2162     1   109.7500473 328.025600
   2163   2151   2164     1   109.7500473 328.025600
   2165   2152   2166     1   107.5800459 329.699200
   2167   2154   2168     1   107.5800459 329.699200
   2169   2156   2170     1   109.7500473 328.025600
   2171   2157   2172     1   108.4600466 328.025600
   2175   2176   2187     1   108.0100461 406.684800
   2175   2176   2188     1   108.0100461 406.684800
   2175   2177   2189     1   108.0100461 406.684800
   2175   2177   2190     1   108.0100461 406.684800
   2175   2182   2195     1   108.0100461 406.684800
   2175   2182   2196     1   108.0100461 406.684800
   2176   2175   2200     1   110.1100470 384.091200
   2176   2178   2191     1   109.8000471 387.438400
   2176   2178   2192     1   109.8000471 387.438400
   2177   2175   2200     1   110.1100470 384.091200
   2177   2180   2193     1   109.8000471 387.438400
   2177   2180   2194     1   109.8000471 387.438400
   2178   2176   2187     1   110.5600475 386.601600
   2178   2176   2188     1   110.5600475 386.601600
   2179   2178   2191     1   108.7700466 392.459200
   2179   2178   2192     1   108.7700466 392.459200
   2179   6523   6524     1   117.5500507 404.174400
   2180   2177   2189     1   110.5600475 386.601600
   2180   2177   2190     1   110.5600475 386.601600
   2181   2180   2193     1   108.7700466 392.459200
   2181   2180   2194     1   108.7700466 392.459200
   2181   6597   6598     1   117.5500507 404.174400
   2182   2175   2200     1   110.1100470 384.091200
   2182   2183   2197     1   109.5600471 388.275200
   2182   2183   2198     1   109.5600471 388.275200
   2183   2182   2195     1   110.5600475 386.601600
   2183   2182   2196     1   110.5600475 386.601600
   2183   2184   2199     1   117.6800502 383.254400
   2184   2183   2197     1   108.8800464 416.726400
   2184   2183   2198     1   108.8800464 416.726400
   2187   2176   2188     1   109.7500473 328.025600
   2189   2177   2190     1   109.7500473 328.025600
   2191   2178   2192     1   107.5800459 329.699200
   2193   2180   2194     1   107.5800459 329.699200
   2195   2182   2196     1   109.7500473 328.025600
   2197   2183   2198     1   108.4600466 328.025600
   2201   2202   2213     1   108.0100461 406.684800
   2201   2202   2214     1   108.0100461 406.684800
   2201   2203   2215     1   108.0100461 406.684800
   2201   2203   2216     1   108.0100461 406.684800
   2201   2208   2221     1   108.0100461 406.684800
   2201   2208   2222     1   108.0100461 406.684800
   2202   2201   2226     1   110.1100470 384.091200
   2202   2204   2217     1   109.8000471 387.438400
   2202   2204   2218     1   109.8000471 387.438400
   2203   2201   2226     1   110.1100470 384.091200
   2203   2206   2219     1   109.8000471 387.438400
   2203   2206   2220     1   109.8000471 387.438400
   2204   2202   2213     1   110.5600475 386.601600
   2204   2202   2214     1   110.5600475 386.601600
   2205   2204   2217     1   108.7700466 392.459200
   2205   2204   2218     1   108.7700466 392.459200
   2205   6671   6672     1   117.5500507 404.174400
   2206   2203   2215     1   110.5600475 386.601600
   2206   2203   2216     1   110.5600475 386.601600
   2207   2206   2219     1   108.7700466 392.459200
   2207   2206   2220     1   108.7700466 392.459200
   2207   6745   6746     1   117.5500507 404.174400
   2208   2201   2226     1   110.1100470 384.091200
   2208   2209   2223     1   109.5600471 388.275200
   2208   2209   2224     1   109.5600471 388.275200
   2209   2208   2221     1   110.5600475 386.601600
   2209   2208   2222     1   110.5600475 386.601600
   2209   2210   2225     1   117.6800502 383.254400
   2210   2209   2223     1   108.8800464 416.726400
   2210   2209   2224     1   108.8800464 416.726400
   2213   2202   2214     1   109.7500473 328.025600
   2215   2203   2216     1   109.7500473 328.025600
   2217   2204   2218     1   107.5800459 329.699200
   2219   2206   2220     1   107.5800459 329.699200
   2221   2208   2222     1   109.7500473 328.025600
   2223   2209   2224     1   108.4600466 328.025600
   2227   2228   2239     1   108.0100461 406.684800
   2227   2228   2240     1   108.0100461 406.684800
   2227   2229   2241     1   108.0100461 406.684800
   2227   2229   2242     1   108.0100461 406.684800
   2227   2234   2247     1   108.0100461 406.684800
   2227   2234   2248     1   108.0100461 406.684800
   2228   2227   2252     1   110.1100470 384.091200
   2228   2230   2243     1   109.8000471 387.438400
   2228   2230   2244     1   109.8000471 387.438400
   2229   2227   2252     1   110.1100470 384.091200
   2229   2232   2245     1   109.8000471 387.438400
   2229   2232   2246     1   109.8000471 387.438400
   2230   2228   2239     1   110.5600475 386.601600
   2230   2228   2240     1   110.5600475 386.601600
   2231   2230   2243     1   108.7700466 392.459200
   2231   2230   2244     1   108.7700466 392.459200
   2231   6819   6820     1   117.5500507 404.174400
   2232   2229   2241     1   110.5600475 386.601600
   2232   2229   2242     1   110.5600475 386.601600
   2233   2232   2245     1   108.7700466 392.459200
   2233   2232   2246     1   108.7700466 392.459200
   2233   6893   6894     1   117.5500507 404.174400
   2234   2227   2252     1   110.1100470 384.091200
   2234   2235   2249     1   109.5600471 388.275200
   2234   2235   2250     1   109.5600471 388.275200
   2235   2234   2247     1   110.5600475 386.601600
   2235   2234   2248     1   110.5600475 386.601600
   2235   2236   2251     1   117.6800502 383.254400
   2236   2235   2249     1   108.8800464 416.726400
   2236   2235   2250     1   108.8800464 416.726400
   2239   2228   2240     1   109.7500473 328.025600
   2241   2229   2242     1   109.7500473 328.025600
   2243   2230   2244     1   107.5800459 329.699200
   2245   2232   2246     1   107.5800459 329.699200
   2247   2234   2248     1   109.7500473 328.025600
   2249   2235   2250     1   108.4600466 328.025600
   2253   2254   2265     1   108.0100461 406.684800
   2253   2254   2266     1   108.0100461 406.684800
   2253   2255   2267     1   108.0100461 406.684800
   2253   2255   2268     1   108.0100461 406.684800
   2253   2260   2273     1   108.0100461 406.684800
   2253   2260   2274     1   108.0100461 406.684800
   2254   2253   2278     1   110.1100470 384.091200
   2254   2256   2269     1   109.8000471 387.438400
   2254   2256   2270     1   109.8000471 387.438400
   2255   2253   2278     1   110.1100470 384.091200
   2255   2258   2271     1   109.8000471 387.438400
   2255   2258   2272     1   109.8000471 387.438400
   2256   2254   2265     1   110.5600475 386.601600
   2256   2254   2266     1   110.5600475 386.601600
   2257   2256   2269     1   108.7700466 392.459200
   2257   2256   2270     1   108.7700466 392.459200
   2257   6967   6968     1   117.5500507 404.174400
   2258   2255   2267     1   110.5600475 386.601600
   2258   2255   2268     1   110.5600475 386.601600
   2259   2258   2271     1   108.7700466 392.459200
   2259   2258   2272     1   108.7700466 392.459200
   2259   7041   7042     1   117.5500507 404.174400
   2260   2253   2278     1   110.1100470 384.091200
   2260   2261   2275     1   109.5600471 388.275200
   2260   2261   2276     1   109.5600471 388.275200
   2261   2260   2273     1   110.5600475 386.601600
   2261   2260   2274     1   110.5600475 386.601600
   2261   2262   2277     1   117.6800502 383.254400
   2262   2261   2275     1   108.8800464 416.726400
   2262   2261   2276     1   108.8800464 416.726400
   2265   2254   2266     1   109.7500473 328.025600
   2267   2255   2268     1   109.7500473 328.025600
   2269   2256   2270     1   107.5800459 329.699200
   2271   2258   2272     1   107.5800459 329.699200
   2273   2260   2274     1   109.7500473 328.025600
   2275   2261   2276     1   108.4600466 328.025600
   2279   2280   2291     1   108.0100461 406.684800
   2279   2280   2292     1   108.0100461 406.684800
   2279   2281   2293     1   108.0100461 406.684800
   2279   2281   2294     1   108.0100461 406.684800
   2279   2286   2299     1   108.0100461 406.684800
   2279   2286   2300     1   108.0100461 406.684800
   2280   2279   2304     1   110.1100470 384.091200
   2280   2282   2295     1   109.8000471 387.438400
   2280   2282   2296     1   109.8000471 387.438400
   2281   2279   2304     1   110.1100470 384.091200
   2281   2284   2297     1   109.8000471 387.438400
   2281   2284   2298     1   109.8000471 387.438400
   2282   2280   2291     1   110.5600475 386.601600
   2282   2280   2292     1   110.5600475 386.601600
   2283   2282   2295     1   108.7700466 392.459200
   2283   2282   2296     1   108.7700466 392.459200
   2283   7115   7116     1   117.5500507 404.174400
   2284   2281   2293     1   110.5600475 386.601600
   2284   2281   2294     1   110.5600475 386.601600
   2285   2284   2297     1   108.7700466 392.459200
   2285   2284   2298     1   108.7700466 392.459200
   2285   7189   7190     1   117.5500507 404.174400
   2286   2279   2304     1   110.1100470 384.091200
   2286   2287   2301     1   109.5600471 388.275200
   2286   2287   2302     1   109.5600471 388.275200
   2287   2286   2299     1   110.5600475 386.601600
   2287   2286   2300     1   110.5600475 386.601600
   2287   2288   2303     1   117.6800502 383.254400
   2288   2287   2301     1   108.8800464 416.726400
   2288   2287   2302     1   108.8800464 416.726400
   2291   2280   2292     1   109.7500473 328.025600
   2293   2281   2294     1   109.7500473 328.025600
   2295   2282   2296     1   107.5800459 329.699200
   2297   2284   2298     1   107.5800459 329.699200
   2299   2286   2300     1   109.7500473 328.025600
   2301   2287   2302     1   108.4600466 328.025600
   2305   2306   2317     1   108.0100461 406.684800
   2305   2306   2318     1   108.0100461 406.684800
   2305   2307   2319     1   108.0100461 406.684800
   2305   2307   2320     1   108.0100461 406.684800
   2305   2312   2325     1   108.0100461 406.684800
   2305   2312   2326     1   108.0100461 406.684800
   2306   2305   2330     1   110.1100470 384.091200
   2306   2308   2321     1   109.8000471 387.438400
   2306   2308   2322     1   109.8000471 387.438400
   2307   2305   2330     1   110.1100470 384.091200
   2307   2310   2323     1   109.8000471 387.438400
   2307   2310   2324     1   109.8000471 387.438400
   2308   2306   2317     1   110.5600475 386.601600
   2308   2306   2318     1   110.5600475 386.601600
   2309   2308   2321     1   108.7700466 392.459200
   2309   2308   2322     1   108.7700466 392.459200
   2309   7263   7264     1   117.5500507 404.174400
   2310   2307   2319     1   110.5600475 386.601600
   2310   2307   2320     1   110.5600475 386.601600
   2311   2310   2323     1   108.7700466 392.459200
   2311   2310   2324     1   108.7700466 392.459200
   2311   7337   7338     1   117.5500507 404.174400
   2312   2305   2330     1   110.1100470 384.091200
   2312   2313   2327     1   109.5600471 388.275200
   2312   2313   2328     1   109.5600471 388.275200
   2313   2312   2325     1   110.5600475 386.601600
   2313   2312   2326     1   110.5600475 386.601600
   2313   2314   2329     1   117.6800502 383.254400
   2314   2313   2327     1   108.8800464 416.726400
   2314   2313   2328     1   108.8800464 416.726400
   2317   2306   2318     1   109.7500473 328.025600
   2319   2307   2320     1   109.7500473 328.025600
   2321   2308   2322     1   107.5800459 329.699200
   2323   2310   2324     1   107.5800459 329.699200
   2325   2312   2326     1   109.7500473 328.025600
   2327   2313   2328     1   108.4600466 328.025600
   2331   2332   2343     1   108.0100461 406.684800
   2331   2332   2344     1   108.0100461 406.684800
   2331   2333   2345     1   108.0100461 406.684800
   2331   2333   2346     1   108.0100461 406.684800
   2331   2338   2351     1   108.0100461 406.684800
   2331   2338   2352     1   108.0100461 406.684800
   2332   2331   2356     1   110.1100470 384.091200
   2332   2334   2347     1   109.8000471 387.438400
   2332   2334   2348     1   109.8000471 387.438400
   2333   2331   2356     1   110.1100470 384.091200
   2333   2336   2349     1   109.8000471 387.438400
   2333   2336   2350     1   109.8000471 387.438400
   2334   2332   2343     1   110.5600475 386.601600
   2334   2332   2344     1   110.5600475 386.601600
   2335   2334   2347     1   108.7700466 392.459200
   2335   2334   2348     1   108.7700466 392.459200
   2335   7411   7412     1   117.5500507 404.174400
   2336   2333   2345     1   110.5600475 386.601600
   2336   2333   2346     1   110.5600475 386.601600
   2337   2336   2349     1   108.7700466 392.459200
   2337   2336   2350     1   108.7700466 392.459200
   2337   7485   7486     1   117.5500507 404.174400
   2338   2331   2356     1   110.1100470 384.091200
   2338   2339   2353     1   109.5600471 388.275200
   2338   2339   2354     1   109.5600471 388.275200
   2339   2338   2351     1   110.5600475 386.601600
   2339   2338   2352     1   110.5600475 386.601600
   2339   2340   2355     1   117.6800502 383.254400
   2340   2339   2353     1   108.8800464 416.726400
   2340   2339   2354     1   108.8800464 416.726400
   2343   2332   2344     1   109.7500473 328.025600
   2345   2333   2346     1   109.7500473 328.025600
   2347   2334   2348     1   107.5800459 329.699200
   2349   2336   2350     1   107.5800459 329.699200
   2351   2338   2352     1   109.7500473 328.025600
   2353   2339   2354     1   108.4600466 328.025600
   2357   2358   2369     1   108.0100461 406.684800
   2357   2358   2370     1   108.0100461 406.684800
   2357   2359   2371     1   108.0100461 406.684800
   2357   2359   2372     1   108.0100461 406.684800
   2357   2364   2377     1   108.0100461 406.684800
   2357   2364   2378     1   108.0100461 406.684800
   2358   2357   2382     1   110.1100470 384.091200
   2358   2360   2373     1   109.8000471 387.438400
   2358   2360   2374     1   109.8000471 387.438400
   2359   2357   2382     1   110.1100470 384.091200
   2359   2362   2375     1   109.8000471 387.438400
   2359   2362   2376     1   109.8000471 387.438400
   2360   2358   2369     1   110.5600475 386.601600
   2360   2358   2370     1   110.5600475 386.601600
   2361   2360   2373     1   108.7700466 392.459200
   2361   2360   2374     1   108.7700466 392.459200
   2361   7559   7560     1   117.5500507 404.174400
   2362   2359   2371     1   110.5600475 386.601600
   2362   2359   2372     1   110.5600475 386.601600
   2363   2362   2375     1   108.7700466 392.459200
   2363   2362   2376     1   108.7700466 392.459200
   2363   7633   7634     1   117.5500507 404.174400
   2364   2357   2382     1   110.1100470 384.091200
   2364   2365   2379     1   109.5600471 388.275200
   2364   2365   2380     1   109.5600471 388.275200
   2365   2364   2377     1   110.5600475 386.601600
   2365   2364   2378     1   110.5600475 386.601600
   2365   2366   2381     1   117.6800502 383.254400
   2366   2365   2379     1   108.8800464 416.726400
   2366   2365   2380     1   108.8800464 416.726400
   2369   2358   2370     1   109.7500473 328.025600
   2371   2359   2372     1   109.7500473 328.025600
   2373   2360   2374     1   107.5800459 329.699200
   2375   2362   2376     1   107.5800459 329.699200
   2377   2364   2378     1   109.7500473 328.025600
   2379   2365   2380     1   108.4600466 328.025600
   2383   2384   2395     1   108.0100461 406.684800
   2383   2384   2396     1   108.0100461 406.684800
   2383   2385   2397     1   108.0100461 406.684800
   2383   2385   2398     1   108.0100461 406.684800
   2383   2390   2403     1   108.0100461 406.684800
   2383   2390   2404     1   108.0100461 406.684800
   2384   2383   2408     1   110.1100470 384.091200
   2384   2386   2399     1   109.8000471 387.438400
   2384   2386   2400     1   109.8000471 387.438400
   2385   2383   2408     1   110.1100470 384.091200
   2385   2388   2401     1   109.8000471 387.438400
   2385   2388   2402     1   109.8000471 387.438400
   2386   2384   2395     1   110.5600475 386.601600
   2386   2384   2396     1   110.5600475 386.601600
   2387   2386   2399     1   108.7700466 392.459200
   2387   2386   2400     1   108.7700466 392.459200
   2387   7707   7708     1   117.5500507 404.174400
   2388   2385   2397     1   110.5600475 386.601600
   2388   2385   2398     1   110.5600475 386.601600
   2389   2388   2401     1   108.7700466 392.459200
   2389   2388   2402     1   108.7700466 392.459200
   2389   7781   7782     1   117.5500507 404.174400
   2390   2383   2408     1   110.1100470 384.091200
   2390   2391   2405     1   109.5600471 388.275200
   2390   2391   2406     1   109.5600471 388.275200
   2391   2390   2403     1   110.5600475 386.601600
   2391   2390   2404     1   110.5600475 386.601600
   2391   2392   2407     1   117.6800502 383.254400
   2392   2391   2405     1   108.8800464 416.726400
   2392   2391   2406     1   108.8800464 416.726400
   2395   2384   2396     1   109.7500473 328.025600
   2397   2385   2398     1   109.7500473 328.025600
   2399   2386   2400     1   107.5800459 329.699200
   2401   2388   2402     1   107.5800459 329.699200
   2403   2390   2404     1   109.7500473 328.025600
   2405   2391   2406     1   108.4600466 328.025600
   2409   2410   2421     1   108.0100461 406.684800
   2409   2410   2422     1   108.0100461 406.684800
   2409   2411   2423     1   108.0100461 406.684800
   2409   2411   2424     1   108.0100461 406.684800
   2409   2416   2429     1   108.0100461 406.684800
   2409   2416   2430     1   108.0100461 406.684800
   2410   2409   2434     1   110.1100470 384.091200
   2410   2412   2425     1   109.8000471 387.438400
   2410   2412   2426     1   109.8000471 387.438400
   2411   2409   2434     1   110.1100470 384.091200
   2411   2414   2427     1   109.8000471 387.438400
   2411   2414   2428     1   109.8000471 387.438400
   2412   2410   2421     1   110.5600475 386.601600
   2412   2410   2422     1   110.5600475 386.601600
   2413   2412   2425     1   108.7700466 392.459200
   2413   2412   2426     1   108.7700466 392.459200
   2413   7855   7856     1   117.5500507 404.174400
   2414   2411   2423     1   110.5600475 386.601600
   2414   2411   2424     1   110.5600475 386.601600
   2415   2414   2427     1   108.7700466 392.459200
   2415   2414   2428     1   108.7700466 392.459200
   2415   7929   7930     1   117.5500507 404.174400
   2416   2409   2434     1   110.1100470 384.091200
   2416   2417   2431     1   109.5600471 388.275200
   2416   2417   2432     1   109.5600471 388.275200
   2417   2416   2429     1   110.5600475 386.601600
   2417   2416   2430     1   110.5600475 386.601600
   2417   2418   2433     1   117.6800502 383.254400
   2418   2417   2431     1   108.8800464 416.726400
   2418   2417   2432     1   108.8800464 416.726400
   2421   2410   2422     1   109.7500473 328.025600
   2423   2411   2424     1   109.7500473 328.025600
   2425   2412   2426     1   107.5800459 329.699200
   2427   2414   2428     1   107.5800459 329.699200
   2429   2416   2430     1   109.7500473 328.025600
   2431   2417   2432     1   108.4600466 328.025600
   2435   2436   2447     1   108.0100461 406.684800
   2435   2436   2448     1   108.0100461 406.684800
   2435   2437   2449     1   108.0100461 406.684800
   2435   2437   2450     1   108.0100461 406.684800
   2435   2442   2455     1   108.0100461 406.684800
   2435   2442   2456     1   108.0100461 406.684800
   2436   2435   2460     1   110.1100470 384.091200
   2436   2438   2451     1   109.8000471 387.438400
   2436   2438   2452     1   109.8000471 387.438400
   2437   2435   2460     1   110.1100470 384.091200
   2437   2440   2453     1   109.8000471 387.438400
   2437   2440   2454     1   109.8000471 387.438400
   2438   2436   2447     1   110.5600475 386.601600
   2438   2436   2448     1   110.5600475 386.601600
   2439   2438   2451     1   108.7700466 392.459200
   2439   2438   2452     1   108.7700466 392.459200
   2439   8003   8004     1   117.5500507 404.174400
   2440   2437   2449     1   110.5600475 386.601600
   2440   2437   2450     1   110.5600475 386.601600
   2441   2440   2453     1   108.7700466 392.459200
   2441   2440   2454     1   108.7700466 392.459200
   2441   8077   8078     1   117.5500507 404.174400
   2442   2435   2460     1   110.1100470 384.091200
   2442   2443   2457     1   109.5600471 388.275200
   2442   2443   2458     1   109.5600471 388.275200
   2443   2442   2455     1   110.5600475 386.601600
   2443   2442   2456     1   110.5600475 386.601600
   2443   2444   2459     1   117.6800502 383.254400
   2444   2443   2457     1   108.8800464 416.726400
   2444   2443   2458     1   108.8800464 416.726400
   2447   2436   2448     1   109.7500473 328.025600
   2449   2437   2450     1   109.7500473 328.025600
   2451   2438   2452     1   107.5800459 329.699200
   2453   2440   2454     1   107.5800459 329.699200
   2455   2442   2456     1   109.7500473 328.025600
   2457   2443   2458     1   108.4600466 328.025600
   2461   2462   2473     1   108.0100461 406.684800
   2461   2462   2474     1   108.0100461 406.684800
   2461   2463   2475     1   108.0100461 406.684800
   2461   2463   2476     1   108.0100461 406.684800
   2461   2468   2481     1   108.0100461 406.684800
   2461   2468   2482     1   108.0100461 406.684800
   2462   2461   2486     1   110.1100470 384.091200
   2462   2464   2477     1   109.8000471 387.438400
   2462   2464   2478     1   109.8000471 387.438400
   2463   2461   2486     1   110.1100470 384.091200
   2463   2466   2479     1   109.8000471 387.438400
   2463   2466   2480     1   109.8000471 387.438400
   2464   2462   2473     1   110.5600475 386.601600
   2464   2462   2474     1   110.5600475 386.601600
   2465   2464   2477     1   108.7700466 392.459200
   2465   2464   2478     1   108.7700466 392.459200
   2465   8151   8152     1   117.5500507 404.174400
   2466   2463   2475     1   110.5600475 386.601600
   2466   2463   2476     1   110.5600475 386.601600
   2467   2466   2479     1   108.7700466 392.459200
   2467   2466   2480     1   108.7700466 392.459200
   2467   8225   8226     1   117.5500507 404.174400
   2468   2461   2486     1   110.1100470 384.091200
   2468   2469   2483     1   109.5600471 388.275200
   2468   2469   2484     1   109.5600471 388.275200
   2469   2468   2481     1   110.5600475 386.601600
   2469   2468   2482     1   110.5600475 386.601600
   2469   2470   2485     1   117.6800502 383.254400
   2470   2469   2483     1   108.8800464 416.726400
   2470   2469   2484     1   108.8800464 416.726400
   2473   2462   2474     1   109.7500473 328.025600
   2475   2463   2476     1   109.7500473 328.025600
   2477   2464   2478     1   107.5800459 329.699200
   2479   2466   2480     1   107.5800459 329.699200
   2481   2468   2482     1   109.7500473 328.025600
   2483   2469   2484     1   108.4600466 328.025600
   2487   2488   2499     1   108.0100461 406.684800
   2487   2488   2500     1   108.0100461 406.684800
   2487   2489   2501     1   108.0100461 406.684800
   2487   2489   2502     1   108.0100461 406.684800
   2487   2494   2507     1   108.0100461 406.684800
   2487   2494   2508     1   108.0100461 406.684800
   2488   2487   2512     1   110.1100470 384.091200
   2488   2490   2503     1   109.8000471 387.438400
   2488   2490   2504     1   109.8000471 387.438400
   2489   2487   2512     1   110.1100470 384.091200
   2489   2492   2505     1   109.8000471 387.438400
   2489   2492   2506     1   109.8000471 387.438400
   2490   2488   2499     1   110.5600475 386.601600
   2490   2488   2500     1   110.5600475 386.601600
   2491   2490   2503     1   108.7700466 392.459200
   2491   2490   2504     1   108.7700466 392.459200
   2491   8299   8300     1   117.5500507 404.174400
   2492   2489   2501     1   110.5600475 386.601600
   2492   2489   2502     1   110.5600475 386.601600
   2493   2492   2505     1   108.7700466 392.459200
   2493   2492   2506     1   108.7700466 392.459200
   2493   8373   8374     1   117.5500507 404.174400
   2494   2487   2512     1   110.1100470 384.091200
   2494   2495   2509     1   109.5600471 388.275200
   2494   2495   2510     1   109.5600471 388.275200
   2495   2494   2507     1   110.5600475 386.601600
   2495   2494   2508     1   110.5600475 386.601600
   2495   2496   2511     1   117.6800502 383.254400
   2496   2495   2509     1   108.8800464 416.726400
   2496   2495   2510     1   108.8800464 416.726400
   2499   2488   2500     1   109.7500473 328.025600
   2501   2489   2502     1   109.7500473 328.025600
   2503   2490   2504     1   107.5800459 329.699200
   2505   2492   2506     1   107.5800459 329.699200
   2507   2494   2508     1   109.7500473 328.025600
   2509   2495   2510     1   108.4600466 328.025600
   2513   2514   2525     1   108.0100461 406.684800
   2513   2514   2526     1   108.0100461 406.684800
   2513   2515   2527     1   108.0100461 406.684800
   2513   2515   2528     1   108.0100461 406.684800
   2513   2520   2533     1   108.0100461 406.684800
   2513   2520   2534     1   108.0100461 406.684800
   2514   2513   2538     1   110.1100470 384.091200
   2514   2516   2529     1   109.8000471 387.438400
   2514   2516   2530     1   109.8000471 387.438400
   2515   2513   2538     1   110.1100470 384.091200
   2515   2518   2531     1   109.8000471 387.438400
   2515   2518   2532     1   109.8000471 387.438400
   2516   2514   2525     1   110.5600475 386.601600
   2516   2514   2526     1   110.5600475 386.601600
   2517   2516   2529     1   108.7700466 392.459200
   2517   2516   2530     1   108.7700466 392.459200
   2517   8447   8448     1   117.5500507 404.174400
   2518   2515   2527     1   110.5600475 386.601600
   2518   2515   2528     1   110.5600475 386.601600
   2519   2518   2531     1   108.7700466 392.459200
   2519   2518   2532     1   108.7700466 392.459200
   2519   8521   8522     1   117.5500507 404.174400
   2520   2513   2538     1   110.1100470 384.091200
   2520   2521   2535     1   109.5600471 388.275200
   2520   2521   2536     1   109.5600471 388.275200
   2521   2520   2533     1   110.5600475 386.601600
   2521   2520   2534     1   110.5600475 386.601600
   2521   2522   2537     1   117.6800502 383.254400
   2522   2521   2535     1   108.8800464 416.726400
   2522   2521   2536     1   108.8800464 416.726400
   2525   2514   2526     1   109.7500473 328.025600
   2527   2515   2528     1   109.7500473 328.025600
   2529   2516   2530     1   107.5800459 329.699200
   2531   2518   2532     1   107.5800459 329.699200
   2533   2520   2534     1   109.7500473 328.025600
   2535   2521   2536     1   108.4600466 328.025600
   2539   2540   2551     1   108.0100461 406.684800
   2539   2540   2552     1   108.0100461 406.684800
   2539   2541   2553     1   108.0100461 406.684800
   2539   2541   2554     1   108.0100461 406.684800
   2539   2546   2559     1   108.0100461 406.684800
   2539   2546   2560     1   108.0100461 406.684800
   2540   2539   2564     1   110.1100470 384.091200
   2540   2542   2555     1   109.8000471 387.438400
   2540   2542   2556     1   109.8000471 387.438400
   2541   2539   2564     1   110.1100470 384.091200
   2541   2544   2557     1   109.8000471 387.438400
   2541   2544   2558     1   109.8000471 387.438400
   2542   2540   2551     1   110.5600475 386.601600
   2542   2540   2552     1   110.5600475 386.601600
   2543   2542   2555     1   108.7700466 392.459200
   2543   2542   2556     1   108.7700466 392.459200
   2543   8595   8596     1   117.5500507 404.174400
   2544   2541   2553     1   110.5600475 386.601600
   2544   2541   2554     1   110.5600475 386.601600
   2545   2544   2557     1   108.7700466 392.459200
   2545   2544   2558     1   108.7700466 392.459200
   2545   8669   8670     1   117.5500507 404.174400
   2546   2539   2564     1   110.1100470 384.091200
   2546   2547   2561     1   109.5600471 388.275200
   2546   2547   2562     1   109.5600471 388.275200
   2547   2546   2559     1   110.5600475 386.601600
   2547   2546   2560     1   110.5600475 386.601600
   2547   2548   2563     1   117.6800502 383.254400
   2548   2547   2561     1   108.8800464 416.726400
   2548   2547   2562     1   108.8800464 416.726400
   2551   2540   2552     1   109.7500473 328.025600
   2553   2541   2554     1   109.7500473 328.025600
   2555   2542   2556     1   107.5800459 329.699200
   2557   2544   2558     1   107.5800459 329.699200
   2559   2546   2560     1   109.7500473 328.025600
   2561   2547   2562     1   108.4600466 328.025600
   2565   2566   2577     1   108.0100461 406.684800
   2565   2566   2578     1   108.0100461 406.684800
   2565   2567   2579     1   108.0100461 406.684800
   2565   2567   2580     1   108.0100461 406.684800
   2565   2572   2585     1   108.0100461 406.684800
   2565   2572   2586     1   108.0100461 406.684800
   2566   2565   2590     1   110.1100470 384.091200
   2566   2568   2581     1   109.8000471 387.438400
   2566   2568   2582     1   109.8000471 387.438400
   2567   2565   2590     1   110.1100470 384.091200
   2567   2570   2583     1   109.8000471 387.438400
   2567   2570   2584     1   109.8000471 387.438400
   2568   2566   2577     1   110.5600475 386.601600
   2568   2566   2578     1   110.5600475 386.601600
   2569   2568   2581     1   108.7700466 392.459200
   2569   2568   2582     1   108.7700466 392.459200
   2569   8743   8744     1   117.5500507 404.174400
   2570   2567   2579     1   110.5600475 386.601600
   2570   2567   2580     1   110.5600475 386.601600
   2571   2570   2583     1   108.7700466 392.459200
   2571   2570   2584     1   108.7700466 392.459200
   2571   8817   8818     1   117.5500507 404.174400
   2572   2565   2590     1   110.1100470 384.091200
   2572   2573   2587     1   109.5600471 388.275200
   2572   2573   2588     1   109.5600471 388.275200
   2573   2572   2585     1   110.5600475 386.601600
   2573   2572   2586     1   110.5600475 386.601600
   2573   2574   2589     1   117.6800502 383.254400
   2574   2573   2587     1   108.8800464 416.726400
   2574   2573   2588     1   108.8800464 416.726400
   2577   2566   2578     1   109.7500473 328.025600
   2579   2567   2580     1   109.7500473 328.025600
   2581   2568   2582     1   107.5800459 329.699200
   2583   2570   2584     1   107.5800459 329.699200
   2585   2572   2586     1   109.7500473 328.025600
   2587   2573   2588     1   108.4600466 328.025600
   2591   2592   2603     1   108.0100461 406.684800
   2591   2592   2604     1   108.0100461 406.684800
   2591   2593   2605     1   108.0100461 406.684800
   2591   2593   2606     1   108.0100461 406.684800
   2591   2598   2611     1   108.0100461 406.684800
   2591   2598   2612     1   108.0100461 406.684800
   2592   2591   2616     1   110.1100470 384.091200
   2592   2594   2607     1   109.8000471 387.438400
   2592   2594   2608     1   109.8000471 387.438400
   2593   2591   2616     1   110.1100470 384.091200
   2593   2596   2609     1   109.8000471 387.438400
   2593   2596   2610     1   109.8000471 387.438400
   2594   2592   2603     1   110.5600475 386.601600
   2594   2592   2604     1   110.5600475 386.601600
   2595   2594   2607     1   108.7700466 392.459200
   2595   2594   2608     1   108.7700466 392.459200
   2595   8891   8892     1   117.5500507 404.174400
   2596   2593   2605     1   110.5600475 386.601600
   2596   2593   2606     1   110.5600475 386.601600
   2597   2596   2609     1   108.7700466 392.459200
   2597   2596   2610     1   108.7700466 392.459200
   2597   8965   8966     1   117.5500507 404.174400
   2598   2591   2616     1   110.1100470 384.091200
   2598   2599   2613     1   109.5600471 388.275200
   2598   2599   2614     1   109.5600471 388.275200
   2599   2598   2611     1   110.5600475 386.601600
   2599   2598   2612     1   110.5600475 386.601600
   2599   2600   2615     1   117.6800502 383.254400
   2600   2599   2613     1   108.8800464 416.726400
   2600   2599   2614     1   108.8800464 416.726400
   2603   2592   2604     1   109.7500473 328.025600
   2605   2593   2606     1   109.7500473 328.025600
   2607   2594   2608     1   107.5800459 329.699200
   2609   2596   2610     1   107.5800459 329.699200
   2611   2598   2612     1   109.7500473 328.025600
   2613   2599   2614     1   108.4600466 328.025600
   2617   2618   2629     1   108.0100461 406.684800
   2617   2618   2630     1   108.0100461 406.684800
   2617   2619   2631     1   108.0100461 406.684800
   2617   2619   2632     1   108.0100461 406.684800
   2617   2624   2637     1   108.0100461 406.684800
   2617   2624   2638     1   108.0100461 406.684800
   2618   2617   2642     1   110.1100470 384.091200
   2618   2620   2633     1   109.8000471 387.438400
   2618   2620   2634     1   109.8000471 387.438400
   2619   2617   2642     1   110.1100470 384.091200
   2619   2622   2635     1   109.8000471 387.438400
   2619   2622   2636     1   109.8000471 387.438400
   2620   2618   2629     1   110.5600475 386.601600
   2620   2618   2630     1   110.5600475 386.601600
   2621   2620   2633     1   108.7700466 392.459200
   2621   2620   2634     1   108.7700466 392.459200
   2621   9039   9040     1   117.5500507 404.174400
   2622   2619   2631     1   110.5600475 386.601600
   2622   2619   2632     1   110.5600475 386.601600
   2623   2622   2635     1   108.7700466 392.459200
   2623   2622   2636     1   108.7700466 392.459200
   2623   9113   9114     1   117.5500507 404.174400
   2624   2617   2642     1   110.1100470 384.091200
   2624   2625   2639     1   109.5600471 388.275200
   2624   2625   2640     1   109.5600471 388.275200
   2625   2624   2637     1   110.5600475 386.601600
   2625   2624   2638     1   110.5600475 386.601600
   2625   2626   2641     1   117.6800502 383.254400
   2626   2625   2639     1   108.8800464 416.726400
   2626   2625   2640     1   108.8800464 416.726400
   2629   2618   2630     1   109.7500473 328.025600
   2631   2619   2632     1   109.7500473 328.025600
   2633   2620   2634     1   107.5800459 329.699200
   2635   2622   2636     1   107.5800459 329.699200
   2637   2624   2638     1   109.7500473 328.025600
   2639   2625   2640     1   108.4600466 328.025600
   2643   2644   2655     1   108.0100461 406.684800
   2643   2644   2656     1   108.0100461 406.684800
   2643   2645   2657     1   108.0100461 406.684800
   2643   2645   2658     1   108.0100461 406.684800
   2643   2650   2663     1   108.0100461 406.684800
   2643   2650   2664     1   108.0100461 406.684800
   2644   2643   2668     1   110.1100470 384.091200
   2644   2646   2659     1   109.8000471 387.438400
   2644   2646   2660     1   109.8000471 387.438400
   2645   2643   2668     1   110.1100470 384.091200
   2645   2648   2661     1   109.8000471 387.438400
   2645   2648   2662     1   109.8000471 387.438400
   2646   2644   2655     1   110.5600475 386.601600
   2646   2644   2656     1   110.5600475 386.601600
   2647   2646   2659     1   108.7700466 392.459200
   2647   2646   2660     1   108.7700466 392.459200
   2647   9187   9188     1   117.5500507 404.174400
   2648   2645   2657     1   110.5600475 386.601600
   2648   2645   2658     1   110.5600475 386.601600
   2649   2648   2661     1   108.7700466 392.459200
   2649   2648   2662     1   108.7700466 392.459200
   2649   9261   9262     1   117.5500507 404.174400
   2650   2643   2668     1   110.1100470 384.091200
   2650   2651   2665     1   109.5600471 388.275200
   2650   2651   2666     1   109.5600471 388.275200
   2651   2650   2663     1   110.5600475 386.601600
   2651   2650   2664     1   110.5600475 386.601600
   2651   2652   2667     1   117.6800502 383.254400
   2652   2651   2665     1   108.8800464 416.726400
   2652   2651   2666     1   108.8800464 416.726400
   2655   2644   2656     1   109.7500473 328.025600
   2657   2645   2658     1   109.7500473 328.025600
   2659   2646   2660     1   107.5800459 329.699200
   2661   2648   2662     1   107.5800459 329.699200
   2663   2650   2664     1   109.7500473 328.025600
   2665   2651   2666     1   108.4600466 328.025600
   2669   2670   2681     1   108.0100461 406.684800
   2669   2670   2682     1   108.0100461 406.684800
   2669   2671   2683     1   108.0100461 406.684800
   2669   2671   2684     1   108.0100461 406.684800
   2669   2676   2689     1   108.0100461 406.684800
   2669   2676   2690     1   108.0100461 406.684800
   2670   2669   2694     1   110.1100470 384.091200
   2670   2672   2685     1   109.8000471 387.438400
   2670   2672   2686     1   109.8000471 387.438400
   2671   2669   2694     1   110.1100470 384.091200
   2671   2674   2687     1   109.8000471 387.438400
   2671   2674   2688     1   109.8000471 387.438400
   2672   2670   2681     1   110.5600475 386.601600
   2672   2670   2682     1   110.5600475 386.601600
   2673   2672   2685     1   108.7700466 392.459200
   2673   2672   2686     1   108.7700466 392.459200
   2673   9335   9336     1   117.5500507 404.174400
   2674   2671   2683     1   110.5600475 386.601600
   2674   2671   2684     1   110.5600475 386.601600
   2675   2674   2687     1   108.7700466 392.459200
   2675   2674   2688     1   108.7700466 392.459200
   2675   9409   9410     1   117.5500507 404.174400
   2676   2669   2694     1   110.1100470 384.091200
   2676   2677   2691     1   109.5600471 388.275200
   2676   2677   2692     1   109.5600471 388.275200
   2677   2676   2689     1   110.5600475 386.601600
   2677   2676   2690     1   110.5600475 386.601600
   2677   2678   2693     1   117.6800502 383.254400
   2678   2677   2691     1   108.8800464 416.726400
   2678   2677   2692     1   108.8800464 416.726400
   2681   2670   2682     1   109.7500473 328.025600
   2683   2671   2684     1   109.7500473 328.025600
   2685   2672   2686     1   107.5800459 329.699200
   2687   2674   2688     1   107.5800459 329.699200
   2689   2676   2690     1   109.7500473 328.025600
   2691   2677   2692     1   108.4600466 328.025600
   2695   2696   2707     1   108.0100461 406.684800
   2695   2696   2708     1   108.0100461 406.684800
   2695   2697   2709     1   108.0100461 406.684800
   2695   2697   2710     1   108.0100461 406.684800
   2695   2702   2715     1   108.0100461 406.684800
   2695   2702   2716     1   108.0100461 406.684800
   2696   2695   2720     1   110.1100470 384.091200
   2696   2698   2711     1   109.8000471 387.438400
   2696   2698   2712     1   109.8000471 387.438400
   2697   2695   2720     1   110.1100470 384.091200
   2697   2700   2713     1   109.8000471 387.438400
   2697   2700   2714     1   109.8000471 387.438400
   2698   2696   2707     1   110.5600475 386.601600
   2698   2696   2708     1   110.5600475 386.601600
   2699   2698   2711     1   108.7700466 392.459200
   2699   2698   2712     1   108.7700466 392.459200
   2699   9483   9484     1   117.5500507 404.174400
   2700   2697   2709     1   110.5600475 386.601600
   2700   2697   2710     1   110.5600475 386.601600
   2701   2700   2713     1   108.7700466 392.459200
   2701   2700   2714     1   108.7700466 392.459200
   2701   9557   9558     1   117.5500507 404.174400
   2702   2695   2720     1   110.1100470 384.091200
   2702   2703   2717     1   109.5600471 388.275200
   2702   2703   2718     1   109.5600471 388.275200
   2703   2702   2715     1   110.5600475 386.601600
   2703   2702   2716     1   110.5600475 386.601600
   2703   2704   2719     1   117.6800502 383.254400
   2704   2703   2717     1   108.8800464 416.726400
   2704   2703   2718     1   108.8800464 416.726400
   2707   2696   2708     1   109.7500473 328.025600
   2709   2697   2710     1   109.7500473 328.025600
   2711   2698   2712     1   107.5800459 329.699200
   2713   2700   2714     1   107.5800459 329.699200
   2715   2702   2716     1   109.7500473 328.025600
   2717   2703   2718     1   108.4600466 328.025600
   2721   2722   2733     1   108.0100461 406.684800
   2721   2722   2734     1   108.0100461 406.684800
   2721   2723   2735     1   108.0100461 406.684800
   2721   2723   2736     1   108.0100461 406.684800
   2721   2728   2741     1   108.0100461 406.684800
   2721   2728   2742     1   108.0100461 406.684800
   2722   2721   2746     1   110.1100470 384.091200
   2722   2724   2737     1   109.8000471 387.438400
   2722   2724   2738     1   109.8000471 387.438400
   2723   2721   2746     1   110.1100470 384.091200
   2723   2726   2739     1   109.8000471 387.438400
   2723   2726   2740     1   109.8000471 387.438400
   2724   2722   2733     1   110.5600475 386.601600
   2724   2722   2734     1   110.5600475 386.601600
   2725   2724   2737     1   108.7700466 392.459200
   2725   2724   2738     1   108.7700466 392.459200
   2725   9631   9632     1   117.5500507 404.174400
   2726   2723   2735     1   110.5600475 386.601600
   2726   2723   2736     1   110.5600475 386.601600
   2727   2726   2739     1   108.7700466 392.459200
   2727   2726   2740     1   108.7700466 392.459200
   2727   9705   9706     1   117.5500507 404.174400
   2728   2721   2746     1   110.1100470 384.091200
   2728   2729   2743     1   109.5600471 388.275200
   2728   2729   2744     1   109.5600471 388.275200
   2729   2728   2741     1   110.5600475 386.601600
   2729   2728   2742     1   110.5600475 386.601600
   2729   2730   2745     1   117.6800502 383.254400
   2730   2729   2743     1   108.8800464 416.726400
   2730   2729   2744     1   108.8800464 416.726400
   2733   2722   2734     1   109.7500473 328.025600
   2735   2723   2736     1   109.7500473 328.025600
   2737   2724   2738     1   107.5800459 329.699200
   2739   2726   2740     1   107.5800459 329.699200
   2741   2728   2742     1   109.7500473 328.025600
   2743   2729   2744     1   108.4600466 328.025600
   2747   2748   2759     1   108.0100461 406.684800
   2747   2748   2760     1   108.0100461 406.684800
   2747   2749   2761     1   108.0100461 406.684800
   2747   2749   2762     1   108.0100461 406.684800
   2747   2754   2767     1   108.0100461 406.684800
   2747   2754   2768     1   108.0100461 406.684800
   2748   2747   2772     1   110.1100470 384.091200
   2748   2750   2763     1   109.8000471 387.438400
   2748   2750   2764     1   109.8000471 387.438400
   2749   2747   2772     1   110.1100470 384.091200
   2749   2752   2765     1   109.8000471 387.438400
   2749   2752   2766     1   109.8000471 387.438400
   2750   2748   2759     1   110.5600475 386.601600
   2750   2748   2760     1   110.5600475 386.601600
   2751   2750   2763     1   108.7700466 392.459200
   2751   2750   2764     1   108.7700466 392.459200
   2751   9779   9780     1   117.5500507 404.174400
   2752   2749   2761     1   110.5600475 386.601600
   2752   2749   2762     1   110.5600475 386.601600
   2753   2752   2765     1   108.7700466 392.459200
   2753   2752   2766     1   108.7700466 392.459200
   2753   9853   9854     1   117.5500507 404.174400
   2754   2747   2772     1   110.1100470 384.091200
   2754   2755   2769     1   109.5600471 388.275200
   2754   2755   2770     1   109.5600471 388.275200
   2755   2754   2767     1   110.5600475 386.601600
   2755   2754   2768     1   110.5600475 386.601600
   2755   2756   2771     1   117.6800502 383.254400
   2756   2755   2769     1   108.8800464 416.726400
   2756   2755   2770     1   108.8800464 416.726400
   2759   2748   2760     1   109.7500473 328.025600
   2761   2749   2762     1   109.7500473 328.025600
   2763   2750   2764     1   107.5800459 329.699200
   2765   2752   2766     1   107.5800459 329.699200
   2767   2754   2768     1   109.7500473 328.025600
   2769   2755   2770     1   108.4600466 328.025600
   2773   2774   2785     1   108.0100461 406.684800
   2773   2774   2786     1   108.0100461 406.684800
   2773   2775   2787     1   108.0100461 406.684800
   2773   2775   2788     1   108.0100461 406.684800
   2773   2780   2793     1   108.0100461 406.684800
   2773   2780   2794     1   108.0100461 406.684800
   2774   2773   2798     1   110.1100470 384.091200
   2774   2776   2789     1   109.8000471 387.438400
   2774   2776   2790     1   109.8000471 387.438400
   2775   2773   2798     1   110.1100470 384.091200
   2775   2778   2791     1   109.8000471 387.438400
   2775   2778   2792     1   109.8000471 387.438400
   2776   2774   2785     1   110.5600475 386.601600
   2776   2774   2786     1   110.5600475 386.601600
   2777   2776   2789     1   108.7700466 392.459200
   2777   2776   2790     1   108.7700466 392.459200
   2777   9927   9928     1   117.5500507 404.174400
   2778   2775   2787     1   110.5600475 386.601600
   2778   2775   2788     1   110.5600475 386.601600
   2779   2778   2791     1   108.7700466 392.459200
   2779   2778   2792     1   108.7700466 392.459200
   2779  10001  10002     1   117.5500507 404.174400
   2780   2773   2798     1   110.1100470 384.091200
   2780   2781   2795     1   109.5600471 388.275200
   2780   2781   2796     1   109.5600471 388.275200
   2781   2780   2793     1   110.5600475 386.601600
   2781   2780   2794     1   110.5600475 386.601600
   2781   2782   2797     1   117.6800502 383.254400
   2782   2781   2795     1   108.8800464 416.726400
   2782   2781   2796     1   108.8800464 416.726400
   2785   2774   2786     1   109.7500473 328.025600
   2787   2775   2788     1   109.7500473 328.025600
   2789   2776   2790     1   107.5800459 329.699200
   2791   2778   2792     1   107.5800459 329.699200
   2793   2780   2794     1   109.7500473 328.025600
   2795   2781   2796     1   108.4600466 328.025600
   2799   2800   2811     1   108.0100461 406.684800
   2799   2800   2812     1   108.0100461 406.684800
   2799   2801   2813     1   108.0100461 406.684800
   2799   2801   2814     1   108.0100461 406.684800
   2799   2806   2819     1   108.0100461 406.684800
   2799   2806   2820     1   108.0100461 406.684800
   2800   2799   2824     1   110.1100470 384.091200
   2800   2802   2815     1   109.8000471 387.438400
   2800   2802   2816     1   109.8000471 387.438400
   2801   2799   2824     1   110.1100470 384.091200
   2801   2804   2817     1   109.8000471 387.438400
   2801   2804   2818     1   109.8000471 387.438400
   2802   2800   2811     1   110.5600475 386.601600
   2802   2800   2812     1   110.5600475 386.601600
   2803   2802   2815     1   108.7700466 392.459200
   2803   2802   2816     1   108.7700466 392.459200
   2803  10075  10076     1   117.5500507 404.174400
   2804   2801   2813     1   110.5600475 386.601600
   2804   2801   2814     1   110.5600475 386.601600
   2805   2804   2817     1   108.7700466 392.459200
   2805   2804   2818     1   108.7700466 392.459200
   2805  10149  10150     1   117.5500507 404.174400
   2806   2799   2824     1   110.1100470 384.091200
   2806   2807   2821     1   109.5600471 388.275200
   2806   2807   2822     1   109.5600471 388.275200
   2807   2806   2819     1   110.5600475 386.601600
   2807   2806   2820     1   110.5600475 386.601600
   2807   2808   2823     1   117.6800502 383.254400
   2808   2807   2821     1   108.8800464 416.726400
   2808   2807   2822     1   108.8800464 416.726400
   2811   2800   2812     1   109.7500473 328.025600
   2813   2801   2814     1   109.7500473 328.025600
   2815   2802   2816     1   107.5800459 329.699200
   2817   2804   2818     1   107.5800459 329.699200
   2819   2806   2820     1   109.7500473 328.025600
   2821   2807   2822     1   108.4600466 328.025600
   2825   2826   2837     1   108.0100461 406.684800
   2825   2826   2838     1   108.0100461 406.684800
   2825   2827   2839     1   108.0100461 406.684800
   2825   2827   2840     1   108.0100461 406.684800
   2825   2832   2845     1   108.0100461 406.684800
   2825   2832   2846     1   108.0100461 406.684800
   2826   2825   2850     1   110.1100470 384.091200
   2826   2828   2841     1   109.8000471 387.438400
   2826   2828   2842     1   109.8000471 387.438400
   2827   2825   2850     1   110.1100470 384.091200
   2827   2830   2843     1   109.8000471 387.438400
   2827   2830   2844     1   109.8000471 387.438400
   2828   2826   2837     1   110.5600475 386.601600
   2828   2826   2838     1   110.5600475 386.601600
   2829   2828   2841     1   108.7700466 392.459200
   2829   2828   2842     1   108.7700466 392.459200
   2829  10223  10224     1   117.5500507 404.174400
   2830   2827   2839     1   110.5600475 386.601600
   2830   2827   2840     1   110.5600475 386.601600
   2831   2830   2843     1   108.7700466 392.459200
   2831   2830   2844     1   108.7700466 392.459200
   2831  10297  10298     1   117.5500507 404.174400
   2832   2825   2850     1   110.1100470 384.091200
   2832   2833   2847     1   109.5600471 388.275200
   2832   2833   2848     1   109.5600471 388.275200
   2833   2832   2845     1   110.5600475 386.601600
   2833   2832   2846     1   110.5600475 386.601600
   2833   2834   2849     1   117.6800502 383.254400
   2834   2833   2847     1   108.8800464 416.726400
   2834   2833   2848     1   108.8800464 416.726400
   2837   2826   2838     1   109.7500473 328.025600
   2839   2827   2840     1   109.7500473 328.025600
   2841   2828   2842     1   107.5800459 329.699200
   2843   2830   2844     1   107.5800459 329.699200
   2845   2832   2846     1   109.7500473 328.025600
   2847   2833   2848     1   108.4600466 328.025600
   2851   2852   2863     1   108.0100461 406.684800
   2851   2852   2864     1   108.0100461 406.684800
   2851   2853   2865     1   108.0100461 406.684800
   2851   2853   2866     1   108.0100461 406.684800
   2851   2858   2871     1   108.0100461 406.684800
   2851   2858   2872     1   108.0100461 406.684800
   2852   2851   2876     1   110.1100470 384.091200
   2852   2854   2867     1   109.8000471 387.438400
   2852   2854   2868     1   109.8000471 387.438400
   2853   2851   2876     1   110.1100470 384.091200
   2853   2856   2869     1   109.8000471 387.438400
   2853   2856   2870     1   109.8000471 387.438400
   2854   2852   2863     1   110.5600475 386.601600
   2854   2852   2864     1   110.5600475 386.601600
   2855   2854   2867     1   108.7700466 392.459200
   2855   2854   2868     1   108.7700466 392.459200
   2855  10371  10372     1   117.5500507 404.174400
   2856   2853   2865     1   110.5600475 386.601600
   2856   2853   2866     1   110.5600475 386.601600
   2857   2856   2869     1   108.7700466 392.459200
   2857   2856   2870     1   108.7700466 392.459200
   2857  10445  10446     1   117.5500507 404.174400
   2858   2851   2876     1   110.1100470 384.091200
   2858   2859   2873     1   109.5600471 388.275200
   2858   2859   2874     1   109.5600471 388.275200
   2859   2858   2871     1   110.5600475 386.601600
   2859   2858   2872     1   110.5600475 386.601600
   2859   2860   2875     1   117.6800502 383.254400
   2860   2859   2873     1   108.8800464 416.726400
   2860   2859   2874     1   108.8800464 416.726400
   2863   2852   2864     1   109.7500473 328.025600
   2865   2853   2866     1   109.7500473 328.025600
   2867   2854   2868     1   107.5800459 329.699200
   2869   2856   2870     1   107.5800459 329.699200
   2871   2858   2872     1   109.7500473 328.025600
   2873   2859   2874     1   108.4600466 328.025600
   2877   2878   2889     1   108.0100461 406.684800
   2877   2878   2890     1   108.0100461 406.684800
   2877   2879   2891     1   108.0100461 406.684800
   2877   2879   2892     1   108.0100461 406.684800
   2877   2884   2897     1   108.0100461 406.684800
   2877   2884   2898     1   108.0100461 406.684800
   2878   2877   2902     1   110.1100470 384.091200
   2878   2880   2893     1   109.8000471 387.438400
   2878   2880   2894     1   109.8000471 387.438400
   2879   2877   2902     1   110.1100470 384.091200
   2879   2882   2895     1   109.8000471 387.438400
   2879   2882   2896     1   109.8000471 387.438400
   2880   2878   2889     1   110.5600475 386.601600
   2880   2878   2890     1   110.5600475 386.601600
   2881   2880   2893     1   108.7700466 392.459200
   2881   2880   2894     1   108.7700466 392.459200
   2881  10519  10520     1   117.5500507 404.174400
   2882   2879   2891     1   110.5600475 386.601600
   2882   2879   2892     1   110.5600475 386.601600
   2883   2882   2895     1   108.7700466 392.459200
   2883   2882   2896     1   108.7700466 392.459200
   2883  10593  10594     1   117.5500507 404.174400
   2884   2877   2902     1   110.1100470 384.091200
   2884   2885   2899     1   109.5600471 388.275200
   2884   2885   2900     1   109.5600471 388.275200
   2885   2884   2897     1   110.5600475 386.601600
   2885   2884   2898     1   110.5600475 386.601600
   2885   2886   2901     1   117.6800502 383.254400
   2886   2885   2899     1   108.8800464 416.726400
   2886   2885   2900     1   108.8800464 416.726400
   2889   2878   2890     1   109.7500473 328.025600
   2891   2879   2892     1   109.7500473 328.025600
   2893   2880   2894     1   107.5800459 329.699200
   2895   2882   2896     1   107.5800459 329.699200
   2897   2884   2898     1   109.7500473 328.025600
   2899   2885   2900     1   108.4600466 328.025600
   2903   2904   2915     1   108.0100461 406.684800
   2903   2904   2916     1   108.0100461 406.684800
   2903   2905   2917     1   108.0100461 406.684800
   2903   2905   2918     1   108.0100461 406.684800
   2903   2910   2923     1   108.0100461 406.684800
   2903   2910   2924     1   108.0100461 406.684800
   2904   2903   2928     1   110.1100470 384.091200
   2904   2906   2919     1   109.8000471 387.438400
   2904   2906   2920     1   109.8000471 387.438400
   2905   2903   2928     1   110.1100470 384.091200
   2905   2908   2921     1   109.8000471 387.438400
   2905   2908   2922     1   109.8000471 387.438400
   2906   2904   2915     1   110.5600475 386.601600
   2906   2904   2916     1   110.5600475 386.601600
   2907   2906   2919     1   108.7700466 392.459200
   2907   2906   2920     1   108.7700466 392.459200
   2907  10667  10668     1   117.5500507 404.174400
   2908   2905   2917     1   110.5600475 386.601600
   2908   2905   2918     1   110.5600475 386.601600
   2909   2908   2921     1   108.7700466 392.459200
   2909   2908   2922     1   108.7700466 392.459200
   2909  10741  10742     1   117.5500507 404.174400
   2910   2903   2928     1   110.1100470 384.091200
   2910   2911   2925     1   109.5600471 388.275200
   2910   2911   2926     1   109.5600471 388.275200
   2911   2910   2923     1   110.5600475 386.601600
   2911   2910   2924     1   110.5600475 386.601600
   2911   2912   2927     1   117.6800502 383.254400
   2912   2911   2925     1   108.8800464 416.726400
   2912   2911   2926     1   108.8800464 416.726400
   2915   2904   2916     1   109.7500473 328.025600
   2917   2905   2918     1   109.7500473 328.025600
   2919   2906   2920     1   107.5800459 329.699200
   2921   2908   2922     1   107.5800459 329.699200
   2923   2910   2924     1   109.7500473 328.025600
   2925   2911   2926     1   108.4600466 328.025600
   2929   2930   2941     1   108.0100461 406.684800
   2929   2930   2942     1   108.0100461 406.684800
   2929   2931   2943     1   108.0100461 406.684800
   2929   2931   2944     1   108.0100461 406.684800
   2929   2936   2949     1   108.0100461 406.684800
   2929   2936   2950     1   108.0100461 406.684800
   2930   2929   2954     1   110.1100470 384.091200
   2930   2932   2945     1   109.8000471 387.438400
   2930   2932   2946     1   109.8000471 387.438400
   2931   2929   2954     1   110.1100470 384.091200
   2931   2934   2947     1   109.8000471 387.438400
   2931   2934   2948     1   109.8000471 387.438400
   2932   2930   2941     1   110.5600475 386.601600
   2932   2930   2942     1   110.5600475 386.601600
   2933   2932   2945     1   108.7700466 392.459200
   2933   2932   2946     1   108.7700466 392.459200
   2933  10815  10816     1   117.5500507 404.174400
   2934   2931   2943     1   110.5600475 386.601600
   2934   2931   2944     1   110.5600475 386.601600
   2935   2934   2947     1   108.7700466 392.459200
   2935   2934   2948     1   108.7700466 392.459200
   2935  10889  10890     1   117.5500507 404.174400
   2936   2929   2954     1   110.1100470 384.091200
   2936   2937   2951     1   109.5600471 388.275200
   2936   2937   2952     1   109.5600471 388.275200
   2937   2936   2949     1   110.5600475 386.601600
   2937   2936   2950     1   110.5600475 386.601600
   2937   2938   2953     1   117.6800502 383.254400
   2938   2937   2951     1   108.8800464 416.726400
   2938   2937   2952     1   108.8800464 416.726400
   2941   2930   2942     1   109.7500473 328.025600
   2943   2931   2944     1   109.7500473 328.025600
   2945   2932   2946     1   107.5800459 329.699200
   2947   2934   2948     1   107.5800459 329.699200
   2949   2936   2950     1   109.7500473 328.025600
   2951   2937   2952     1   108.4600466 328.025600
   2955   2956   2967     1   108.0100461 406.684800
   2955   2956   2968     1   108.0100461 406.684800
   2955   2957   2969     1   108.0100461 406.684800
   2955   2957   2970     1   108.0100461 406.684800
   2955   2962   2975     1   108.0100461 406.684800
   2955   2962   2976     1   108.0100461 406.684800
   2956   2955   2980     1   110.1100470 384.091200
   2956   2958   2971     1   109.8000471 387.438400
   2956   2958   2972     1   109.8000471 387.438400
   2957   2955   2980     1   110.1100470 384.091200
   2957   2960   2973     1   109.8000471 387.438400
   2957   2960   2974     1   109.8000471 387.438400
   2958   2956   2967     1   110.5600475 386.601600
   2958   2956   2968     1   110.5600475 386.601600
   2959   2958   2971     1   108.7700466 392.459200
   2959   2958   2972     1   108.7700466 392.459200
   2959  10963  10964     1   117.5500507 404.174400
   2960   2957   2969     1   110.5600475 386.601600
   2960   2957   2970     1   110.5600475 386.601600
   2961   2960   2973     1   108.7700466 392.459200
   2961   2960   2974     1   108.7700466 392.459200
   2961  11037  11038     1   117.5500507 404.174400
   2962   2955   2980     1   110.1100470 384.091200
   2962   2963   2977     1   109.5600471 388.275200
   2962   2963   2978     1   109.5600471 388.275200
   2963   2962   2975     1   110.5600475 386.601600
   2963   2962   2976     1   110.5600475 386.601600
   2963   2964   2979     1   117.6800502 383.254400
   2964   2963   2977     1   108.8800464 416.726400
   2964   2963   2978     1   108.8800464 416.726400
   2967   2956   2968     1   109.7500473 328.025600
   2969   2957   2970     1   109.7500473 328.025600
   2971   2958   2972     1   107.5800459 329.699200
   2973   2960   2974     1   107.5800459 329.699200
   2975   2962   2976     1   109.7500473 328.025600
   2977   2963   2978     1   108.4600466 328.025600
   2981   2982   2993     1   108.0100461 406.684800
   2981   2982   2994     1   108.0100461 406.684800
   2981   2983   2995     1   108.0100461 406.684800
   2981   2983   2996     1   108.0100461 406.684800
   2981   2988   3001     1   108.0100461 406.684800
   2981   2988   3002     1   108.0100461 406.684800
   2982   2981   3006     1   110.1100470 384.091200
   2982   2984   2997     1   109.8000471 387.438400
   2982   2984   2998     1   109.8000471 387.438400
   2983   2981   3006     1   110.1100470 384.091200
   2983   2986   2999     1   109.8000471 387.438400
   2983   2986   3000     1   109.8000471 387.438400
   2984   2982   2993     1   110.5600475 386.601600
   2984   2982   2994     1   110.5600475 386.601600
   2985   2984   2997     1   108.7700466 392.459200
   2985   2984   2998     1   108.7700466 392.459200
   2985  11111  11112     1   117.5500507 404.174400
   2986   2983   2995     1   110.5600475 386.601600
   2986   2983   2996     1   110.5600475 386.601600
   2987   2986   2999     1   108.7700466 392.459200
   2987   2986   3000     1   108.7700466 392.459200
   2987  11185  11186     1   117.5500507 404.174400
   2988   2981   3006     1   110.1100470 384.091200
   2988   2989   3003     1   109.5600471 388.275200
   2988   2989   3004     1   109.5600471 388.275200
   2989   2988   3001     1   110.5600475 386.601600
   2989   2988   3002     1   110.5600475 386.601600
   2989   2990   3005     1   117.6800502 383.254400
   2990   2989   3003     1   108.8800464 416.726400
   2990   2989   3004     1   108.8800464 416.726400
   2993   2982   2994     1   109.7500473 328.025600
   2995   2983   2996     1   109.7500473 328.025600
   2997   2984   2998     1   107.5800459 329.699200
   2999   2986   3000     1   107.5800459 329.699200
   3001   2988   3002     1   109.7500473 328.025600
   3003   2989   3004     1   108.4600466 328.025600
   3007   3008   3019     1   108.0100461 406.684800
   3007   3008   3020     1   108.0100461 406.684800
   3007   3009   3021     1   108.0100461 406.684800
   3007   3009   3022     1   108.0100461 406.684800
   3007   3014   3027     1   108.0100461 406.684800
   3007   3014   3028     1   108.0100461 406.684800
   3008   3007   3032     1   110.1100470 384.091200
   3008   3010   3023     1   109.8000471 387.438400
   3008   3010   3024     1   109.8000471 387.438400
   3009   3007   3032     1   110.1100470 384.091200
   3009   3012   3025     1   109.8000471 387.438400
   3009   3012   3026     1   109.8000471 387.438400
   3010   3008   3019     1   110.5600475 386.601600
   3010   3008   3020     1   110.5600475 386.601600
   3011   3010   3023     1   108.7700466 392.459200
   3011   3010   3024     1   108.7700466 392.459200
   3011  11259  11260     1   117.5500507 404.174400
   3012   3009   3021     1   110.5600475 386.601600
   3012   3009   3022     1   110.5600475 386.601600
   3013   3012   3025     1   108.7700466 392.459200
   3013   3012   3026     1   108.7700466 392.459200
   3013  11333  11334     1   117.5500507 404.174400
   3014   3007   3032     1   110.1100470 384.091200
   3014   3015   3029     1   109.5600471 388.275200
   3014   3015   3030     1   109.5600471 388.275200
   3015   3014   3027     1   110.5600475 386.601600
   3015   3014   3028     1   110.5600475 386.601600
   3015   3016   3031     1   117.6800502 383.254400
   3016   3015   3029     1   108.8800464 416.726400
   3016   3015   3030     1   108.8800464 416.726400
   3019   3008   3020     1   109.7500473 328.025600
   3021   3009   3022     1   109.7500473 328.025600
   3023   3010   3024     1   107.5800459 329.699200
   3025   3012   3026     1   107.5800459 329.699200
   3027   3014   3028     1   109.7500473 328.025600
   3029   3015   3030     1   108.4600466 328.025600
   3033   3034   3045     1   108.0100461 406.684800
   3033   3034   3046     1   108.0100461 406.684800
   3033   3035   3047     1   108.0100461 406.684800
   3033   3035   3048     1   108.0100461 406.684800
   3033   3040   3053     1   108.0100461 406.684800
   3033   3040   3054     1   108.0100461 406.684800
   3034   3033   3058     1   110.1100470 384.091200
   3034   3036   3049     1   109.8000471 387.438400
   3034   3036   3050     1   109.8000471 387.438400
   3035   3033   3058     1   110.1100470 384.091200
   3035   3038   3051     1   109.8000471 387.438400
   3035   3038   3052     1   109.8000471 387.438400
   3036   3034   3045     1   110.5600475 386.601600
   3036   3034   3046     1   110.5600475 386.601600
   3037   3036   3049     1   108.7700466 392.459200
   3037   3036   3050     1   108.7700466 392.459200
   3037  11407  11408     1   117.5500507 404.174400
   3038   3035   3047     1   110.5600475 386.601600
   3038   3035   3048     1   110.5600475 386.601600
   3039   3038   3051     1   108.7700466 392.459200
   3039   3038   3052     1   108.7700466 392.459200
   3039  11481  11482     1   117.5500507 404.174400
   3040   3033   3058     1   110.1100470 384.091200
   3040   3041   3055     1   109.5600471 388.275200
   3040   3041   3056     1   109.5600471 388.275200
   3041   3040   3053     1   110.5600475 386.601600
   3041   3040   3054     1   110.5600475 386.601600
   3041   3042   3057     1   117.6800502 383.254400
   3042   3041   3055     1   108.8800464 416.726400
   3042   3041   3056     1   108.8800464 416.726400
   3045   3034   3046     1   109.7500473 328.025600
   3047   3035   3048     1   109.7500473 328.025600
   3049   3036   3050     1   107.5800459 329.699200
   3051   3038   3052     1   107.5800459 329.699200
   3053   3040   3054     1   109.7500473 328.025600
   3055   3041   3056     1   108.4600466 328.025600
   3059   3060   3071     1   108.0100461 406.684800
   3059   3060   3072     1   108.0100461 406.684800
   3059   3061   3073     1   108.0100461 406.684800
   3059   3061   3074     1   108.0100461 406.684800
   3059   3066   3079     1   108.0100461 406.684800
   3059   3066   3080     1   108.0100461 406.684800
   3060   3059   3084     1   110.1100470 384.091200
   3060   3062   3075     1   109.8000471 387.438400
   3060   3062   3076     1   109.8000471 387.438400
   3061   3059   3084     1   110.1100470 384.091200
   3061   3064   3077     1   109.8000471 387.438400
   3061   3064   3078     1   109.8000471 387.438400
   3062   3060   3071     1   110.5600475 386.601600
   3062   3060   3072     1   110.5600475 386.601600
   3063   3062   3075     1   108.7700466 392.459200
   3063   3062   3076     1   108.7700466 392.459200
   3063  11555  11556     1   117.5500507 404.174400
   3064   3061   3073     1   110.5600475 386.601600
   3064   3061   3074     1   110.5600475 386.601600
   3065   3064   3077     1   108.7700466 392.459200
   3065   3064   3078     1   108.7700466 392.459200
   3065  11629  11630     1   117.5500507 404.174400
   3066   3059   3084     1   110.1100470 384.091200
   3066   3067   3081     1   109.5600471 388.275200
   3066   3067   3082     1   109.5600471 388.275200
   3067   3066   3079     1   110.5600475 386.601600
   3067   3066   3080     1   110.5600475 386.601600
   3067   3068   3083     1   117.6800502 383.254400
   3068   3067   3081     1   108.8800464 416.726400
   3068   3067   3082     1   108.8800464 416.726400
   3071   3060   3072     1   109.7500473 328.025600
   3073   3061   3074     1   109.7500473 328.025600
   3075   3062   3076     1   107.5800459 329.699200
   3077   3064   3078     1   107.5800459 329.699200
   3079   3066   3080     1   109.7500473 328.025600
   3081   3067   3082     1   108.4600466 328.025600
   3085   3086   3097     1   108.0100461 406.684800
   3085   3086   3098     1   108.0100461 406.684800
   3085   3087   3099     1   108.0100461 406.684800
   3085   3087   3100     1   108.0100461 406.684800
   3085   3092   3105     1   108.0100461 406.684800
   3085   3092   3106     1   108.0100461 406.684800
   3086   3085   3110     1   110.1100470 384.091200
   3086   3088   3101     1   109.8000471 387.438400
   3086   3088   3102     1   109.8000471 387.438400
   3087   3085   3110     1   110.1100470 384.091200
   3087   3090   3103     1   109.8000471 387.438400
   3087   3090   3104     1   109.8000471 387.438400
   3088   3086   3097     1   110.5600475 386.601600
   3088   3086   3098     1   110.5600475 386.601600
   3089   3088   3101     1   108.7700466 392.459200
   3089   3088   3102     1   108.7700466 392.459200
   3089  11703  11704     1   117.5500507 404.174400
   3090   3087   3099     1   110.5600475 386.601600
   3090   3087   3100     1   110.5600475 386.601600
   3091   3090   3103     1   108.7700466 392.459200
   3091   3090   3104     1   108.7700466 392.459200
   3091  11777  11778     1   117.5500507 404.174400
   3092   3085   3110     1   110.1100470 384.091200
   3092   3093   3107     1   109.5600471 388.275200
   3092   3093   3108     1   109.5600471 388.275200
   3093   3092   3105     1   110.5600475 386.601600
   3093   3092   3106     1   110.5600475 386.601600
   3093   3094   3109     1   117.6800502 383.254400
   3094   3093   3107     1   108.8800464 416.726400
   3094   3093   3108     1   108.8800464 416.726400
   3097   3086   3098     1   109.7500473 328.025600
   3099   3087   3100     1   109.7500473 328.025600
   3101   3088   3102     1   107.5800459 329.699200
   3103   3090   3104     1   107.5800459 329.699200
   3105   3092   3106     1   109.7500473 328.025600
   3107   3093   3108     1   108.4600466 328.025600
   3111   3112   3123     1   108.0100461 406.684800
   3111   3112   3124     1   108.0100461 406.684800
   3111   3113   3125     1   108.0100461 406.684800
   3111   3113   3126     1   108.0100461 406.684800
   3111   3118   3131     1   108.0100461 406.684800
   3111   3118   3132     1   108.0100461 406.684800
   3112   3111   3136     1   110.1100470 384.091200
   3112   3114   3127     1   109.8000471 387.438400
   3112   3114   3128     1   109.8000471 387.438400
   3113   3111   3136     1   110.1100470 384.091200
   3113   3116   3129     1   109.8000471 387.438400
   3113   3116   3130     1   109.8000471 387.438400
   3114   3112   3123     1   110.5600475 386.601600
   3114   3112   3124     1   110.5600475 386.601600
   3115   3114   3127     1   108.7700466 392.459200
   3115   3114   3128     1   108.7700466 392.459200
   3115  11851  11852     1   117.5500507 404.174400
   3116   3113   3125     1   110.5600475 386.601600
   3116   3113   3126     1   110.5600475 386.601600
   3117   3116   3129     1   108.7700466 392.459200
   3117   3116   3130     1   108.7700466 392.459200
   3117  11925  11926     1   117.5500507 404.174400
   3118   3111   3136     1   110.1100470 384.091200
   3118   3119   3133     1   109.5600471 388.275200
   3118   3119   3134     1   109.5600471 388.275200
   3119   3118   3131     1   110.5600475 386.601600
   3119   3118   3132     1   110.5600475 386.601600
   3119   3120   3135     1   117.6800502 383.254400
   3120   3119   3133     1   108.8800464 416.726400
   3120   3119   3134     1   108.8800464 416.726400
   3123   3112   3124     1   109.7500473 328.025600
   3125   3113   3126     1   109.7500473 328.025600
   3127   3114   3128     1   107.5800459 329.699200
   3129   3116   3130     1   107.5800459 329.699200
   3131   3118   3132     1   109.7500473 328.025600
   3133   3119   3134     1   108.4600466 328.025600
   3137   3138   3149     1   108.0100461 406.684800
   3137   3138   3150     1   108.0100461 406.684800
   3137   3139   3151     1   108.0100461 406.684800
   3137   3139   3152     1   108.0100461 406.684800
   3137   3144   3157     1   108.0100461 406.684800
   3137   3144   3158     1   108.0100461 406.684800
   3138   3137   3162     1   110.1100470 384.091200
   3138   3140   3153     1   109.8000471 387.438400
   3138   3140   3154     1   109.8000471 387.438400
   3139   3137   3162     1   110.1100470 384.091200
   3139   3142   3155     1   109.8000471 387.438400
   3139   3142   3156     1   109.8000471 387.438400
   3140   3138   3149     1   110.5600475 386.601600
   3140   3138   3150     1   110.5600475 386.601600
   3141   3140   3153     1   108.7700466 392.459200
   3141   3140   3154     1   108.7700466 392.459200
   3141  11999  12000     1   117.5500507 404.174400
   3142   3139   3151     1   110.5600475 386.601600
   3142   3139   3152     1   110.5600475 386.601600
   3143   3142   3155     1   108.7700466 392.459200
   3143   3142   3156     1   108.7700466 392.459200
   3143  12073  12074     1   117.5500507 404.174400
   3144   3137   3162     1   110.1100470 384.091200
   3144   3145   3159     1   109.5600471 388.275200
   3144   3145   3160     1   109.5600471 388.275200
   3145   3144   3157     1   110.5600475 386.601600
   3145   3144   3158     1   110.5600475 386.601600
   3145   3146   3161     1   117.6800502 383.254400
   3146   3145   3159     1   108.8800464 416.726400
   3146   3145   3160     1   108.8800464 416.726400
   3149   3138   3150     1   109.7500473 328.025600
   3151   3139   3152     1   109.7500473 328.025600
   3153   3140   3154     1   107.5800459 329.699200
   3155   3142   3156     1   107.5800459 329.699200
   3157   3144   3158     1   109.7500473 328.025600
   3159   3145   3160     1   108.4600466 328.025600
   3163   3164   3175     1   108.0100461 406.684800
   3163   3164   3176     1   108.0100461 406.684800
   3163   3165   3177     1   108.0100461 406.684800
   3163   3165   3178     1   108.0100461 406.684800
   3163   3170   3183     1   108.0100461 406.684800
   3163   3170   3184     1   108.0100461 406.684800
   3164   3163   3188     1   110.1100470 384.091200
   3164   3166   3179     1   109.8000471 387.438400
   3164   3166   3180     1   109.8000471 387.438400
   3165   3163   3188     1   110.1100470 384.091200
   3165   3168   3181     1   109.8000471 387.438400
   3165   3168   3182     1   109.8000471 387.438400
   3166   3164   3175     1   110.5600475 386.601600
   3166   3164   3176     1   110.5600475 386.601600
   3167   3166   3179     1   108.7700466 392.459200
   3167   3166   3180     1   108.7700466 392.459200
   3167  12147  12148     1   117.5500507 404.174400
   3168   3165   3177     1   110.5600475 386.601600
   3168   3165   3178     1   110.5600475 386.601600
   3169   3168   3181     1   108.7700466 392.459200
   3169   3168   3182     1   108.7700466 392.459200
   3169  12221  12222     1   117.5500507 404.174400
   3170   3163   3188     1   110.1100470 384.091200
   3170   3171   3185     1   109.5600471 388.275200
   3170   3171   3186     1   109.5600471 388.275200
   3171   3170   3183     1   110.5600475 386.601600
   3171   3170   3184     1   110.5600475 386.601600
   3171   3172   3187     1   117.6800502 383.254400
   3172   3171   3185     1   108.8800464 416.726400
   3172   3171   3186     1   108.8800464 416.726400
   3175   3164   3176     1   109.7500473 328.025600
   3177   3165   3178     1   109.7500473 328.025600
   3179   3166   3180     1   107.5800459 329.699200
   3181   3168   3182     1   107.5800459 329.699200
   3183   3170   3184     1   109.7500473 328.025600
   3185   3171   3186     1   108.4600466 328.025600
   3189   3190   3201     1   108.0100461 406.684800
   3189   3190   3202     1   108.0100461 406.684800
   3189   3191   3203     1   108.0100461 406.684800
   3189   3191   3204     1   108.0100461 406.684800
   3189   3196   3209     1   108.0100461 406.684800
   3189   3196   3210     1   108.0100461 406.684800
   3190   3189   3214     1   110.1100470 384.091200
   3190   3192   3205     1   109.8000471 387.438400
   3190   3192   3206     1   109.8000471 387.438400
   3191   3189   3214     1   110.1100470 384.091200
   3191   3194   3207     1   109.8000471 387.438400
   3191   3194   3208     1   109.8000471 387.438400
   3192   3190   3201     1   110.5600475 386.601600
   3192   3190   3202     1   110.5600475 386.601600
   3193   3192   3205     1   108.7700466 392.459200
   3193   3192   3206     1   108.7700466 392.459200
   3193  12295  12296     1   117.5500507 404.174400
   3194   3191   3203     1   110.5600475 386.601600
   3194   3191   3204     1   110.5600475 386.601600
   3195   3194   3207     1   108.7700466 392.459200
   3195   3194   3208     1   108.7700466 392.459200
   3195  12369  12370     1   117.5500507 404.174400
   3196   3189   3214     1   110.1100470 384.091200
   3196   3197   3211     1   109.5600471 388.275200
   3196   3197   3212     1   109.5600471 388.275200
   3197   3196   3209     1   110.5600475 386.601600
   3197   3196   3210     1   110.5600475 386.601600
   3197   3198   3213     1   117.6800502 383.254400
   3198   3197   3211     1   108.8800464 416.726400
   3198   3197   3212     1   108.8800464 416.726400
   3201   3190   3202     1   109.7500473 328.025600
   3203   3191   3204     1   109.7500473 328.025600
   3205   3192   3206     1   107.5800459 329.699200
   3207   3194   3208     1   107.5800459 329.699200
   3209   3196   3210     1   109.7500473 328.025600
   3211   3197   3212     1   108.4600466 328.025600
   3215   3216   3227     1   108.0100461 406.684800
   3215   3216   3228     1   108.0100461 406.684800
   3215   3217   3229     1   108.0100461 406.684800
   3215   3217   3230     1   108.0100461 406.684800
   3215   3222   3235     1   108.0100461 406.684800
   3215   3222   3236     1   108.0100461 406.684800
   3216   3215   3240     1   110.1100470 384.091200
   3216   3218   3231     1   109.8000471 387.438400
   3216   3218   3232     1   109.8000471 387.438400
   3217   3215   3240     1   110.1100470 384.091200
   3217   3220   3233     1   109.8000471 387.438400
   3217   3220   3234     1   109.8000471 387.438400
   3218   3216   3227     1   110.5600475 386.601600
   3218   3216   3228     1   110.5600475 386.601600
   3219   3218   3231     1   108.7700466 392.459200
   3219   3218   3232     1   108.7700466 392.459200
   3219  12443  12444     1   117.5500507 404.174400
   3220   3217   3229     1   110.5600475 386.601600
   3220   3217   3230     1   110.5600475 386.601600
   3221   3220   3233     1   108.7700466 392.459200
   3221   3220   3234     1   108.7700466 392.459200
   3221  12517  12518     1   117.5500507 404.174400
   3222   3215   3240     1   110.1100470 384.091200
   3222   3223   3237     1   109.5600471 388.275200
   3222   3223   3238     1   109.5600471 388.275200
   3223   3222   3235     1   110.5600475 386.601600
   3223   3222   3236     1   110.5600475 386.601600
   3223   3224   3239     1   117.6800502 383.254400
   3224   3223   3237     1   108.8800464 416.726400
   3224   3223   3238     1   108.8800464 416.726400
   3227   3216   3228     1   109.7500473 328.025600
   3229   3217   3230     1   109.7500473 328.025600
   3231   3218   3232     1   107.5800459 329.699200
   3233   3220   3234     1   107.5800459 329.699200
   3235   3222   3236     1   109.7500473 328.025600
   3237   3223   3238     1   108.4600466 328.025600
   3241   3242   3253     1   108.0100461 406.684800
   3241   3242   3254     1   108.0100461 406.684800
   3241   3243   3255     1   108.0100461 406.684800
   3241   3243   3256     1   108.0100461 406.684800
   3241   3248   3261     1   108.0100461 406.684800
   3241   3248   3262     1   108.0100461 406.684800
   3242   3241   3266     1   110.1100470 384.091200
   3242   3244   3257     1   109.8000471 387.438400
   3242   3244   3258     1   109.8000471 387.438400
   3243   3241   3266     1   110.1100470 384.091200
   3243   3246   3259     1   109.8000471 387.438400
   3243   3246   3260     1   109.8000471 387.438400
   3244   3242   3253     1   110.5600475 386.601600
   3244   3242   3254     1   110.5600475 386.601600
   3245   3244   3257     1   108.7700466 392.459200
   3245   3244   3258     1   108.7700466 392.459200
   3245  12591  12592     1   117.5500507 404.174400
   3246   3243   3255     1   110.5600475 386.601600
   3246   3243   3256     1   110.5600475 386.601600
   3247   3246   3259     1   108.7700466 392.459200
   3247   3246   3260     1   108.7700466 392.459200
   3247  12665  12666     1   117.5500507 404.174400
   3248   3241   3266     1   110.1100470 384.091200
   3248   3249   3263     1   109.5600471 388.275200
   3248   3249   3264     1   109.5600471 388.275200
   3249   3248   3261     1   110.5600475 386.601600
   3249   3248   3262     1   110.5600475 386.601600
   3249   3250   3265     1   117.6800502 383.254400
   3250   3249   3263     1   108.8800464 416.726400
   3250   3249   3264     1   108.8800464 416.726400
   3253   3242   3254     1   109.7500473 328.025600
   3255   3243   3256     1   109.7500473 328.025600
   3257   3244   3258     1   107.5800459 329.699200
   3259   3246   3260     1   107.5800459 329.699200
   3261   3248   3262     1   109.7500473 328.025600
   3263   3249   3264     1   108.4600466 328.025600
   3267   3269   3270     1   108.8800464 416.726400
   3267   3269   3272     1   108.8800464 416.726400
   3268   3267   3269     1   117.6800502 383.254400
   3269   3271   3273     1   109.5600471 388.275200
   3269   3271   3274     1   109.5600471 388.275200
   3270   3269   3271     1   109.5600471 388.275200
   3270   3269   3272     1   108.4600466 328.025600
   3271   3269   3272     1   109.5600471 388.275200
   3271   3275   3340     1   110.1100470 384.091200
   3273   3271   3275     1   107.9000462 406.684800
   3273   3271   3274     1   108.4600466 328.025600
   3274   3271   3275     1   107.9000462 406.684800
   3275   3276   3285     1   107.9000462 406.684800
   3275   3276   3286     1   107.9000462 406.684800
   3275   3277   3278     1   107.9000462 406.684800
   3275   3277   3280     1   107.9000462 406.684800
   3276   3275   3340     1   110.1100470 384.091200
   3276   3287   3288     1   109.8000471 387.438400
   3276   3287   3289     1   109.8000471 387.438400
   3277   3275   3340     1   110.1100470 384.091200
   3277   3279   3281     1   109.8000471 387.438400
   3277   3279   3282     1   109.8000471 387.438400
   3278   3277   3279     1   109.5600471 388.275200
   3278   3277   3280     1   108.4600466 328.025600
   3279   3277   3280     1   109.5600471 388.275200
   3281   3279   3283     1   108.7700466 392.459200
   3281   3279   3282     1   107.5800459 329.699200
   3282   3279   3283     1   108.7700466 392.459200
   3283   3315   3305     1   119.3800509 410.868800
   3285   3276   3287     1   109.5600471 388.275200
   3285   3276   3286     1   108.4600466 328.025600
   3286   3276   3287     1   109.5600471 388.275200
   3288   3287   3290     1   108.7700466 392.459200
   3288   3287   3289     1   107.5800459 329.699200
   3289   3287   3290     1   108.7700466 392.459200
   3290   3339   3329     1   119.3800509 410.868800
   3292   3293   3312     1   109.5600471 388.275200
   3292   3303   3306     1   109.5600471 388.275200
   3292   3303   3307     1   109.5600471 388.275200
   3293   3292   3294     1   109.5600471 388.275200
   3293   3295   3299     1   109.5600471 388.275200
   3293   3313   3314     1   107.2600461 396.643200
   3294   3292   3303     1   109.5600471 388.275200
   3294   3292   3310     1   109.7800468 425.094400
   3295   3293   3312     1   109.5600471 388.275200
   3295   3296   3298     1   109.5600471 388.275200
   3295   3302   3304     1   107.2600461 396.643200
   3296   3295   3299     1   109.5600471 388.275200
   3296   3297   3300     1   110.2200475 386.601600
   3296   3315   3305     1   109.2900470 396.643200
   3297   3296   3298     1   109.5600471 388.275200
   3297   3301   3311     1   107.2600461 396.643200
   3298   3296   3315     1   109.8800469 414.216000
   3299   3295   3302     1   110.2600474 425.931200
   3300   3297   3301     1   109.4300470 427.604800
   3300   3297   3310     1   109.5800467 425.931200
   3303   3308   3309     1   107.2600461 396.643200
   3306   3303   3308     1   110.2600474 425.931200
   3306   3303   3307     1   108.4600466 328.025600
   3307   3303   3308     1   110.2600474 425.931200
   3312   3293   3313     1   110.2600474 425.931200
   3316   3317   3336     1   109.5600471 388.275200
   3316   3327   3330     1   109.5600471 388.275200
   3316   3327   3331     1   109.5600471 388.275200
   3317   3316   3318     1   109.5600471 388.275200
   3317   3319   3323     1   109.5600471 388.275200
   3317   3337   3338     1   107.2600461 396.643200
   3318   3316   3327     1   109.5600471 388.275200
   3318   3316   3334     1   109.7800468 425.094400
   3319   3317   3336     1   109.5600471 388.275200
   3319   3320   3322     1   109.5600471 388.275200
   3319   3326   3328     1   107.2600461 396.643200
   3320   3319   3323     1   109.5600471 388.275200
   3320   3321   3324     1   110.2200475 386.601600
   3320   3339   3329     1   109.2900470 396.643200
   3321   3320   3322     1   109.5600471 388.275200
   3321   3325   3335     1   107.2600461 396.643200
   3322   3320   3339     1   109.8800469 414.216000
   3323   3319   3326     1   110.2600474 425.931200
   3324   3321   3325     1   109.4300470 427.604800
   3324   3321   3334     1   109.5800467 425.931200
   3327   3332   3333     1   107.2600461 396.643200
   3330   3327   3332     1   110.2600474 425.931200
   3330   3327   3331     1   108.4600466 328.025600
   3331   3327   3332     1   110.2600474 425.931200
   3336   3317   3337     1   110.2600474 425.931200
   3341   3343   3344     1   108.8800464 416.726400
   3341   3343   3346     1   108.8800464 416.726400
   3342   3341   3343     1   117.6800502 383.254400
   3343   3345   3347     1   109.5600471 388.275200
   3343   3345   3348     1   109.5600471 388.275200
   3344   3343   3345     1   109.5600471 388.275200
   3344   3343   3346     1   108.4600466 328.025600
   3345   3349   3414     1   110.1100470 384.091200
   3345   3343   3346     1   109.5600471 388.275200
   3347   3345   3349     1   107.9000462 406.684800
   3347   3345   3348     1   108.4600466 328.025600
   3348   3345   3349     1   107.9000462 406.684800
   3349   3350   3359     1   107.9000462 406.684800
   3349   3350   3360     1   107.9000462 406.684800
   3349   3351   3352     1   107.9000462 406.684800
   3349   3351   3354     1   107.9000462 406.684800
   3350   3361   3362     1   109.8000471 387.438400
   3350   3361   3363     1   109.8000471 387.438400
   3350   3349   3414     1   110.1100470 384.091200
   3351   3353   3355     1   109.8000471 387.438400
   3351   3353   3356     1   109.8000471 387.438400
   3351   3349   3414     1   110.1100470 384.091200
   3352   3351   3353     1   109.5600471 388.275200
   3352   3351   3354     1   108.4600466 328.025600
   3353   3351   3354     1   109.5600471 388.275200
   3355   3353   3357     1   108.7700466 392.459200
   3355   3353   3356     1   107.5800459 329.699200
   3356   3353   3357     1   108.7700466 392.459200
   3357   3389   3379     1   119.3800509 410.868800
   3359   3350   3361     1   109.5600471 388.275200
   3359   3350   3360     1   108.4600466 328.025600
   3360   3350   3361     1   109.5600471 388.275200
   3362   3361   3364     1   108.7700466 392.459200
   3362   3361   3363     1   107.5800459 329.699200
   3363   3361   3364     1   108.7700466 392.459200
   3364   3413   3403     1   119.3800509 410.868800
   3366   3367   3386     1   109.5600471 388.275200
   3366   3377   3380     1   109.5600471 388.275200
   3366   3377   3381     1   109.5600471 388.275200
   3367   3369   3373     1   109.5600471 388.275200
   3367   3387   3388     1   107.2600461 396.643200
   3367   3366   3368     1   109.5600471 388.275200
   3368   3366   3377     1   109.5600471 388.275200
   3368   3366   3384     1   109.7800468 425.094400
   3369   3370   3372     1   109.5600471 388.275200
   3369   3376   3378     1   107.2600461 396.643200
   3369   3367   3386     1   109.5600471 388.275200
   3370   3371   3374     1   110.2200475 386.601600
   3370   3389   3379     1   109.2900470 396.643200
   3370   3369   3373     1   109.5600471 388.275200
   3371   3375   3385     1   107.2600461 396.643200
   3371   3370   3372     1   109.5600471 388.275200
   3372   3370   3389     1   109.8800469 414.216000
   3373   3369   3376     1   110.2600474 425.931200
   3374   3371   3375     1   109.4300470 427.604800
   3374   3371   3384     1   109.5800467 425.931200
   3377   3382   3383     1   107.2600461 396.643200
   3380   3377   3382     1   110.2600474 425.931200
   3380   3377   3381     1   108.4600466 328.025600
   3381   3377   3382     1   110.2600474 425.931200
   3386   3367   3387     1   110.2600474 425.931200
   3390   3391   3410     1   109.5600471 388.275200
   3390   3401   3404     1   109.5600471 388.275200
   3390   3401   3405     1   109.5600471 388.275200
   3391   3393   3397     1   109.5600471 388.275200
   3391   3411   3412     1   107.2600461 396.643200
   3391   3390   3392     1   109.5600471 388.275200
   3392   3390   3401     1   109.5600471 388.275200
   3392   3390   3408     1   109.7800468 425.094400
   3393   3394   3396     1   109.5600471 388.275200
   3393   3400   3402     1   107.2600461 396.643200
   3393   3391   3410     1   109.5600471 388.275200
   3394   3395   3398     1   110.2200475 386.601600
   3394   3413   3403     1   109.2900470 396.643200
   3394   3393   3397     1   109.5600471 388.275200
   3395   3399   3409     1   107.2600461 396.643200
   3395   3394   3396     1   109.5600471 388.275200
   3396   3394   3413     1   109.8800469 414.216000
   3397   3393   3400     1   110.2600474 425.931200
   3398   3395   3399     1   109.4300470 427.604800
   3398   3395   3408     1   109.5800467 425.931200
   3401   3406   3407     1   107.2600461 396.643200
   3404   3401   3406     1   110.2600474 425.931200
   3404   3401   3405     1   108.4600466 328.025600
   3405   3401   3406     1   110.2600474 425.931200
   3410   3391   3411     1   110.2600474 425.931200
   3415   3417   3418     1   108.8800464 416.726400
   3415   3417   3420     1   108.8800464 416.726400
   3416   3415   3417     1   117.6800502 383.254400
   3417   3419   3421     1   109.5600471 388.275200
   3417   3419   3422     1   109.5600471 388.275200
   3418   3417   3419     1   109.5600471 388.275200
   3418   3417   3420     1   108.4600466 328.025600
   3419   3417   3420     1   109.5600471 388.275200
   3419   3423   3488     1   110.1100470 384.091200
   3421   3419   3423     1   107.9000462 406.684800
   3421   3419   3422     1   108.4600466 328.025600
   3422   3419   3423     1   107.9000462 406.684800
   3423   3424   3433     1   107.9000462 406.684800
   3423   3424   3434     1   107.9000462 406.684800
   3423   3425   3426     1   107.9000462 406.684800
   3423   3425   3428     1   107.9000462 406.684800
   3424   3423   3488     1   110.1100470 384.091200
   3424   3435   3436     1   109.8000471 387.438400
   3424   3435   3437     1   109.8000471 387.438400
   3425   3423   3488     1   110.1100470 384.091200
   3425   3427   3429     1   109.8000471 387.438400
   3425   3427   3430     1   109.8000471 387.438400
   3426   3425   3427     1   109.5600471 388.275200
   3426   3425   3428     1   108.4600466 328.025600
   3427   3425   3428     1   109.5600471 388.275200
   3429   3427   3431     1   108.7700466 392.459200
   3429   3427   3430     1   107.5800459 329.699200
   3430   3427   3431     1   108.7700466 392.459200
   3431   3463   3453     1   119.3800509 410.868800
   3433   3424   3435     1   109.5600471 388.275200
   3433   3424   3434     1   108.4600466 328.025600
   3434   3424   3435     1   109.5600471 388.275200
   3436   3435   3438     1   108.7700466 392.459200
   3436   3435   3437     1   107.5800459 329.699200
   3437   3435   3438     1   108.7700466 392.459200
   3438   3487   3477     1   119.3800509 410.868800
   3440   3441   3460     1   109.5600471 388.275200
   3440   3451   3454     1   109.5600471 388.275200
   3440   3451   3455     1   109.5600471 388.275200
   3441   3440   3442     1   109.5600471 388.275200
   3441   3443   3447     1   109.5600471 388.275200
   3441   3461   3462     1   107.2600461 396.643200
   3442   3440   3451     1   109.5600471 388.275200
   3442   3440   3458     1   109.7800468 425.094400
   3443   3441   3460     1   109.5600471 388.275200
   3443   3444   3446     1   109.5600471 388.275200
   3443   3450   3452     1   107.2600461 396.643200
   3444   3443   3447     1   109.5600471 388.275200
   3444   3445   3448     1   110.2200475 386.601600
   3444   3463   3453     1   109.2900470 396.643200
   3445   3444   3446     1   109.5600471 388.275200
   3445   3449   3459     1   107.2600461 396.643200
   3446   3444   3463     1   109.8800469 414.216000
   3447   3443   3450     1   110.2600474 425.931200
   3448   3445   3449     1   109.4300470 427.604800
   3448   3445   3458     1   109.5800467 425.931200
   3451   3456   3457     1   107.2600461 396.643200
   3454   3451   3456     1   110.2600474 425.931200
   3454   3451   3455     1   108.4600466 328.025600
   3455   3451   3456     1   110.2600474 425.931200
   3460   3441   3461     1   110.2600474 425.931200
   3464   3465   3484     1   109.5600471 388.275200
   3464   3475   3478     1   109.5600471 388.275200
   3464   3475   3479     1   109.5600471 388.275200
   3465   3464   3466     1   109.5600471 388.275200
   3465   3467   3471     1   109.5600471 388.275200
   3465   3485   3486     1   107.2600461 396.643200
   3466   3464   3475     1   109.5600471 388.275200
   3466   3464   3482     1   109.7800468 425.094400
   3467   3465   3484     1   109.5600471 388.275200
   3467   3468   3470     1   109.5600471 388.275200
   3467   3474   3476     1   107.2600461 396.643200
   3468   3467   3471     1   109.5600471 388.275200
   3468   3469   3472     1   110.2200475 386.601600
   3468   3487   3477     1   109.2900470 396.643200
   3469   3468   3470     1   109.5600471 388.275200
   3469   3473   3483     1   107.2600461 396.643200
   3470   3468   3487     1   109.8800469 414.216000
   3471   3467   3474     1   110.2600474 425.931200
   3472   3469   3473     1   109.4300470 427.604800
   3472   3469   3482     1   109.5800467 425.931200
   3475   3480   3481     1   107.2600461 396.643200
   3478   3475   3480     1   110.2600474 425.931200
   3478   3475   3479     1   108.4600466 328.025600
   3479   3475   3480     1   110.2600474 425.931200
   3484   3465   3485     1   110.2600474 425.931200
   3489   3491   3492     1   108.8800464 416.726400
   3489   3491   3494     1   108.8800464 416.726400
   3490   3489   3491     1   117.6800502 383.254400
   3491   3493   3495     1   109.5600471 388.275200
   3491   3493   3496     1   109.5600471 388.275200
   3492   3491   3493     1   109.5600471 388.275200
   3492   3491   3494     1   108.4600466 328.025600
   3493   3497   3562     1   110.1100470 384.091200
   3493   3491   3494     1   109.5600471 388.275200
   3495   3493   3497     1   107.9000462 406.684800
   3495   3493   3496     1   108.4600466 328.025600
   3496   3493   3497     1   107.9000462 406.684800
   3497   3498   3507     1   107.9000462 406.684800
   3497   3498   3508     1   107.9000462 406.684800
   3497   3499   3500     1   107.9000462 406.684800
   3497   3499   3502     1   107.9000462 406.684800
   3498   3509   3510     1   109.8000471 387.438400
   3498   3509   3511     1   109.8000471 387.438400
   3498   3497   3562     1   110.1100470 384.091200
   3499   3501   3503     1   109.8000471 387.438400
   3499   3501   3504     1   109.8000471 387.438400
   3499   3497   3562     1   110.1100470 384.091200
   3500   3499   3501     1   109.5600471 388.275200
   3500   3499   3502     1   108.4600466 328.025600
   3501   3499   3502     1   109.5600471 388.275200
   3503   3501   3505     1   108.7700466 392.459200
   3503   3501   3504     1   107.5800459 329.699200
   3504   3501   3505     1   108.7700466 392.459200
   3505   3537   3527     1   119.3800509 410.868800
   3507   3498   3509     1   109.5600471 388.275200
   3507   3498   3508     1   108.4600466 328.025600
   3508   3498   3509     1   109.5600471 388.275200
   3510   3509   3512     1   108.7700466 392.459200
   3510   3509   3511     1   107.5800459 329.699200
   3511   3509   3512     1   108.7700466 392.459200
   3512   3561   3551     1   119.3800509 410.868800
   3514   3515   3534     1   109.5600471 388.275200
   3514   3525   3528     1   109.5600471 388.275200
   3514   3525   3529     1   109.5600471 388.275200
   3515   3517   3521     1   109.5600471 388.275200
   3515   3535   3536     1   107.2600461 396.643200
   3515   3514   3516     1   109.5600471 388.275200
   3516   3514   3525     1   109.5600471 388.275200
   3516   3514   3532     1   109.7800468 425.094400
   3517   3518   3520     1   109.5600471 388.275200
   3517   3524   3526     1   107.2600461 396.643200
   3517   3515   3534     1   109.5600471 388.275200
   3518   3519   3522     1   110.2200475 386.601600
   3518   3537   3527     1   109.2900470 396.643200
   3518   3517   3521     1   109.5600471 388.275200
   3519   3523   3533     1   107.2600461 396.643200
   3519   3518   3520     1   109.5600471 388.275200
   3520   3518   3537     1   109.8800469 414.216000
   3521   3517   3524     1   110.2600474 425.931200
   3522   3519   3523     1   109.4300470 427.604800
   3522   3519   3532     1   109.5800467 425.931200
   3525   3530   3531     1   107.2600461 396.643200
   3528   3525   3530     1   110.2600474 425.931200
   3528   3525   3529     1   108.4600466 328.025600
   3529   3525   3530     1   110.2600474 425.931200
   3534   3515   3535     1   110.2600474 425.931200
   3538   3539   3558     1   109.5600471 388.275200
   3538   3549   3552     1   109.5600471 388.275200
   3538   3549   3553     1   109.5600471 388.275200
   3539   3541   3545     1   109.5600471 388.275200
   3539   3559   3560     1   107.2600461 396.643200
   3539   3538   3540     1   109.5600471 388.275200
   3540   3538   3549     1   109.5600471 388.275200
   3540   3538   3556     1   109.7800468 425.094400
   3541   3542   3544     1   109.5600471 388.275200
   3541   3548   3550     1   107.2600461 396.643200
   3541   3539   3558     1   109.5600471 388.275200
   3542   3543   3546     1   110.2200475 386.601600
   3542   3561   3551     1   109.2900470 396.643200
   3542   3541   3545     1   109.5600471 388.275200
   3543   3547   3557     1   107.2600461 396.643200
   3543   3542   3544     1   109.5600471 388.275200
   3544   3542   3561     1   109.8800469 414.216000
   3545   3541   3548     1   110.2600474 425.931200
   3546   3543   3547     1   109.4300470 427.604800
   3546   3543   3556     1   109.5800467 425.931200
   3549   3554   3555     1   107.2600461 396.643200
   3552   3549   3554     1   110.2600474 425.931200
   3552   3549   3553     1   108.4600466 328.025600
   3553   3549   3554     1   110.2600474 425.931200
   3558   3539   3559     1   110.2600474 425.931200
   3563   3565   3566     1   108.8800464 416.726400
   3563   3565   3568     1   108.8800464 416.726400
   3564   3563   3565     1   117.6800502 383.254400
   3565   3567   3569     1   109.5600471 388.275200
   3565   3567   3570     1   109.5600471 388.275200
   3566   3565   3567     1   109.5600471 388.275200
   3566   3565   3568     1   108.4600466 328.025600
   3567   3565   3568     1   109.5600471 388.275200
   3567   3571   3636     1   110.1100470 384.091200
   3569   3567   3571     1   107.9000462 406.684800
   3569   3567   3570     1   108.4600466 328.025600
   3570   3567   3571     1   107.9000462 406.684800
   3571   3572   3581     1   107.9000462 406.684800
   3571   3572   3582     1   107.9000462 406.684800
   3571   3573   3574     1   107.9000462 406.684800
   3571   3573   3576     1   107.9000462 406.684800
   3572   3571   3636     1   110.1100470 384.091200
   3572   3583   3584     1   109.8000471 387.438400
   3572   3583   3585     1   109.8000471 387.438400
   3573   3571   3636     1   110.1100470 384.091200
   3573   3575   3577     1   109.8000471 387.438400
   3573   3575   3578     1   109.8000471 387.438400
   3574   3573   3575     1   109.5600471 388.275200
   3574   3573   3576     1   108.4600466 328.025600
   3575   3573   3576     1   109.5600471 388.275200
   3577   3575   3579     1   108.7700466 392.459200
   3577   3575   3578     1   107.5800459 329.699200
   3578   3575   3579     1   108.7700466 392.459200
   3579   3611   3601     1   119.3800509 410.868800
   3581   3572   3583     1   109.5600471 388.275200
   3581   3572   3582     1   108.4600466 328.025600
   3582   3572   3583     1   109.5600471 388.275200
   3584   3583   3586     1   108.7700466 392.459200
   3584   3583   3585     1   107.5800459 329.699200
   3585   3583   3586     1   108.7700466 392.459200
   3586   3635   3625     1   119.3800509 410.868800
   3588   3589   3608     1   109.5600471 388.275200
   3588   3599   3602     1   109.5600471 388.275200
   3588   3599   3603     1   109.5600471 388.275200
   3589   3588   3590     1   109.5600471 388.275200
   3589   3591   3595     1   109.5600471 388.275200
   3589   3609   3610     1   107.2600461 396.643200
   3590   3588   3599     1   109.5600471 388.275200
   3590   3588   3606     1   109.7800468 425.094400
   3591   3589   3608     1   109.5600471 388.275200
   3591   3592   3594     1   109.5600471 388.275200
   3591   3598   3600     1   107.2600461 396.643200
   3592   3591   3595     1   109.5600471 388.275200
   3592   3593   3596     1   110.2200475 386.601600
   3592   3611   3601     1   109.2900470 396.643200
   3593   3592   3594     1   109.5600471 388.275200
   3593   3597   3607     1   107.2600461 396.643200
   3594   3592   3611     1   109.8800469 414.216000
   3595   3591   3598     1   110.2600474 425.931200
   3596   3593   3597     1   109.4300470 427.604800
   3596   3593   3606     1   109.5800467 425.931200
   3599   3604   3605     1   107.2600461 396.643200
   3602   3599   3604     1   110.2600474 425.931200
   3602   3599   3603     1   108.4600466 328.025600
   3603   3599   3604     1   110.2600474 425.931200
   3608   3589   3609     1   110.2600474 425.931200
   3612   3613   3632     1   109.5600471 388.275200
   3612   3623   3626     1   109.5600471 388.275200
   3612   3623   3627     1   109.5600471 388.275200
   3613   3612   3614     1   109.5600471 388.275200
   3613   3615   3619     1   109.5600471 388.275200
   3613   3633   3634     1   107.2600461 396.643200
   3614   3612   3623     1   109.5600471 388.275200
   3614   3612   3630     1   109.7800468 425.094400
   3615   3613   3632     1   109.5600471 388.275200
   3615   3616   3618     1   109.5600471 388.275200
   3615   3622   3624     1   107.2600461 396.643200
   3616   3615   3619     1   109.5600471 388.275200
   3616   3617   3620     1   110.2200475 386.601600
   3616   3635   3625     1   109.2900470 396.643200
   3617   3616   3618     1   109.5600471 388.275200
   3617   3621   3631     1   107.2600461 396.643200
   3618   3616   3635     1   109.8800469 414.216000
   3619   3615   3622     1   110.2600474 425.931200
   3620   3617   3621     1   109.4300470 427.604800
   3620   3617   3630     1   109.5800467 425.931200
   3623   3628   3629     1   107.2600461 396.643200
   3626   3623   3628     1   110.2600474 425.931200
   3626   3623   3627     1   108.4600466 328.025600
   3627   3623   3628     1   110.2600474 425.931200
   3632   3613   3633     1   110.2600474 425.931200
   3637   3639   3640     1   108.8800464 416.726400
   3637   3639   3642     1   108.8800464 416.726400
   3638   3637   3639     1   117.6800502 383.254400
   3639   3641   3643     1   109.5600471 388.275200
   3639   3641   3644     1   109.5600471 388.275200
   3640   3639   3641     1   109.5600471 388.275200
   3640   3639   3642     1   108.4600466 328.025600
   3641   3645   3710     1   110.1100470 384.091200
   3641   3639   3642     1   109.5600471 388.275200
   3643   3641   3645     1   107.9000462 406.684800
   3643   3641   3644     1   108.4600466 328.025600
   3644   3641   3645     1   107.9000462 406.684800
   3645   3646   3655     1   107.9000462 406.684800
   3645   3646   3656     1   107.9000462 406.684800
   3645   3647   3648     1   107.9000462 406.684800
   3645   3647   3650     1   107.9000462 406.684800
   3646   3657   3658     1   109.8000471 387.438400
   3646   3657   3659     1   109.8000471 387.438400
   3646   3645   3710     1   110.1100470 384.091200
   3647   3649   3651     1   109.8000471 387.438400
   3647   3649   3652     1   109.8000471 387.438400
   3647   3645   3710     1   110.1100470 384.091200
   3648   3647   3649     1   109.5600471 388.275200
   3648   3647   3650     1   108.4600466 328.025600
   3649   3647   3650     1   109.5600471 388.275200
   3651   3649   3653     1   108.7700466 392.459200
   3651   3649   3652     1   107.5800459 329.699200
   3652   3649   3653     1   108.7700466 392.459200
   3653   3685   3675     1   119.3800509 410.868800
   3655   3646   3657     1   109.5600471 388.275200
   3655   3646   3656     1   108.4600466 328.025600
   3656   3646   3657     1   109.5600471 388.275200
   3658   3657   3660     1   108.7700466 392.459200
   3658   3657   3659     1   107.5800459 329.699200
   3659   3657   3660     1   108.7700466 392.459200
   3660   3709   3699     1   119.3800509 410.868800
   3662   3663   3682     1   109.5600471 388.275200
   3662   3673   3676     1   109.5600471 388.275200
   3662   3673   3677     1   109.5600471 388.275200
   3663   3665   3669     1   109.5600471 388.275200
   3663   3683   3684     1   107.2600461 396.643200
   3663   3662   3664     1   109.5600471 388.275200
   3664   3662   3673     1   109.5600471 388.275200
   3664   3662   3680     1   109.7800468 425.094400
   3665   3666   3668     1   109.5600471 388.275200
   3665   3672   3674     1   107.2600461 396.643200
   3665   3663   3682     1   109.5600471 388.275200
   3666   3667   3670     1   110.2200475 386.601600
   3666   3685   3675     1   109.2900470 396.643200
   3666   3665   3669     1   109.5600471 388.275200
   3667   3671   3681     1   107.2600461 396.643200
   3667   3666   3668     1   109.5600471 388.275200
   3668   3666   3685     1   109.8800469 414.216000
   3669   3665   3672     1   110.2600474 425.931200
   3670   3667   3671     1   109.4300470 427.604800
   3670   3667   3680     1   109.5800467 425.931200
   3673   3678   3679     1   107.2600461 396.643200
   3676   3673   3678     1   110.2600474 425.931200
   3676   3673   3677     1   108.4600466 328.025600
   3677   3673   3678     1   110.2600474 425.931200
   3682   3663   3683     1   110.2600474 425.931200
   3686   3687   3706     1   109.5600471 388.275200
   3686   3697   3700     1   109.5600471 388.275200
   3686   3697   3701     1   109.5600471 388.275200
   3687   3689   3693     1   109.5600471 388.275200
   3687   3707   3708     1   107.2600461 396.643200
   3687   3686   3688     1   109.5600471 388.275200
   3688   3686   3697     1   109.5600471 388.275200
   3688   3686   3704     1   109.7800468 425.094400
   3689   3690   3692     1   109.5600471 388.275200
   3689   3696   3698     1   107.2600461 396.643200
   3689   3687   3706     1   109.5600471 388.275200
   3690   3691   3694     1   110.2200475 386.601600
   3690   3709   3699     1   109.2900470 396.643200
   3690   3689   3693     1   109.5600471 388.275200
   3691   3695   3705     1   107.2600461 396.643200
   3691   3690   3692     1   109.5600471 388.275200
   3692   3690   3709     1   109.8800469 414.216000
   3693   3689   3696     1   110.2600474 425.931200
   3694   3691   3695     1   109.4300470 427.604800
   3694   3691   3704     1   109.5800467 425.931200
   3697   3702   3703     1   107.2600461 396.643200
   3700   3697   3702     1   110.2600474 425.931200
   3700   3697   3701     1   108.4600466 328.025600
   3701   3697   3702     1   110.2600474 425.931200
   3706   3687   3707     1   110.2600474 425.931200
   3711   3713   3714     1   108.8800464 416.726400
   3711   3713   3716     1   108.8800464 416.726400
   3712   3711   3713     1   117.6800502 383.254400
   3713   3715   3717     1   109.5600471 388.275200
   3713   3715   3718     1   109.5600471 388.275200
   3714   3713   3715     1   109.5600471 388.275200
   3714   3713   3716     1   108.4600466 328.025600
   3715   3713   3716     1   109.5600471 388.275200
   3715   3719   3784     1   110.1100470 384.091200
   3717   3715   3719     1   107.9000462 406.684800
   3717   3715   3718     1   108.4600466 328.025600
   3718   3715   3719     1   107.9000462 406.684800
   3719   3720   3729     1   107.9000462 406.684800
   3719   3720   3730     1   107.9000462 406.684800
   3719   3721   3722     1   107.9000462 406.684800
   3719   3721   3724     1   107.9000462 406.684800
   3720   3719   3784     1   110.1100470 384.091200
   3720   3731   3732     1   109.8000471 387.438400
   3720   3731   3733     1   109.8000471 387.438400
   3721   3719   3784     1   110.1100470 384.091200
   3721   3723   3725     1   109.8000471 387.438400
   3721   3723   3726     1   109.8000471 387.438400
   3722   3721   3723     1   109.5600471 388.275200
   3722   3721   3724     1   108.4600466 328.025600
   3723   3721   3724     1   109.5600471 388.275200
   3725   3723   3727     1   108.7700466 392.459200
   3725   3723   3726     1   107.5800459 329.699200
   3726   3723   3727     1   108.7700466 392.459200
   3727   3759   3749     1   119.3800509 410.868800
   3729   3720   3731     1   109.5600471 388.275200
   3729   3720   3730     1   108.4600466 328.025600
   3730   3720   3731     1   109.5600471 388.275200
   3732   3731   3734     1   108.7700466 392.459200
   3732   3731   3733     1   107.5800459 329.699200
   3733   3731   3734     1   108.7700466 392.459200
   3734   3783   3773     1   119.3800509 410.868800
   3736   3737   3756     1   109.5600471 388.275200
   3736   3747   3750     1   109.5600471 388.275200
   3736   3747   3751     1   109.5600471 388.275200
   3737   3736   3738     1   109.5600471 388.275200
   3737   3739   3743     1   109.5600471 388.275200
   3737   3757   3758     1   107.2600461 396.643200
   3738   3736   3747     1   109.5600471 388.275200
   3738   3736   3754     1   109.7800468 425.094400
   3739   3737   3756     1   109.5600471 388.275200
   3739   3740   3742     1   109.5600471 388.275200
   3739   3746   3748     1   107.2600461 396.643200
   3740   3739   3743     1   109.5600471 388.275200
   3740   3741   3744     1   110.2200475 386.601600
   3740   3759   3749     1   109.2900470 396.643200
   3741   3740   3742     1   109.5600471 388.275200
   3741   3745   3755     1   107.2600461 396.643200
   3742   3740   3759     1   109.8800469 414.216000
   3743   3739   3746     1   110.2600474 425.931200
   3744   3741   3745     1   109.4300470 427.604800
   3744   3741   3754     1   109.5800467 425.931200
   3747   3752   3753     1   107.2600461 396.643200
   3750   3747   3752     1   110.2600474 425.931200
   3750   3747   3751     1   108.4600466 328.025600
   3751   3747   3752     1   110.2600474 425.931200
   3756   3737   3757     1   110.2600474 425.931200
   3760   3761   3780     1   109.5600471 388.275200
   3760   3771   3774     1   109.5600471 388.275200
   3760   3771   3775     1   109.5600471 388.275200
   3761   3760   3762     1   109.5600471 388.275200
   3761   3763   3767     1   109.5600471 388.275200
   3761   3781   3782     1   107.2600461 396.643200
   3762   3760   3771     1   109.5600471 388.275200
   3762   3760   3778     1   109.7800468 425.094400
   3763   3761   3780     1   109.5600471 388.275200
   3763   3764   3766     1   109.5600471 388.275200
   3763   3770   3772     1   107.2600461 396.643200
   3764   3763   3767     1   109.5600471 388.275200
   3764   3765   3768     1   110.2200475 386.601600
   3764   3783   3773     1   109.2900470 396.643200
   3765   3764   3766     1   109.5600471 388.275200
   3765   3769   3779     1   107.2600461 396.643200
   3766   3764   3783     1   109.8800469 414.216000
   3767   3763   3770     1   110.2600474 425.931200
   3768   3765   3769     1   109.4300470 427.604800
   3768   3765   3778     1   109.5800467 425.931200
   3771   3776   3777     1   107.2600461 396.643200
   3774   3771   3776     1   110.2600474 425.931200
   3774   3771   3775     1   108.4600466 328.025600
   3775   3771   3776     1   110.2600474 425.931200
   3780   3761   3781     1   110.2600474 425.931200
   3785   3787   3788     1   108.8800464 416.726400
   3785   3787   3790     1   108.8800464 416.726400
   3786   3785   3787     1   117.6800502 383.254400
   3787   3789   3791     1   109.5600471 388.275200
   3787   3789   3792     1   109.5600471 388.275200
   3788   3787   3789     1   109.5600471 388.275200
   3788   3787   3790     1   108.4600466 328.025600
   3789   3793   3858     1   110.1100470 384.091200
   3789   3787   3790     1   109.5600471 388.275200
   3791   3789   3793     1   107.9000462 406.684800
   3791   3789   3792     1   108.4600466 328.025600
   3792   3789   3793     1   107.9000462 406.684800
   3793   3794   3803     1   107.9000462 406.684800
   3793   3794   3804     1   107.9000462 406.684800
   3793   3795   3796     1   107.9000462 406.684800
   3793   3795   3798     1   107.9000462 406.684800
   3794   3805   3806     1   109.8000471 387.438400
   3794   3805   3807     1   109.8000471 387.438400
   3794   3793   3858     1   110.1100470 384.091200
   3795   3797   3799     1   109.8000471 387.438400
   3795   3797   3800     1   109.8000471 387.438400
   3795   3793   3858     1   110.1100470 384.091200
   3796   3795   3797     1   109.5600471 388.275200
   3796   3795   3798     1   108.4600466 328.025600
   3797   3795   3798     1   109.5600471 388.275200
   3799   3797   3801     1   108.7700466 392.459200
   3799   3797   3800     1   107.5800459 329.699200
   3800   3797   3801     1   108.7700466 392.459200
   3801   3833   3823     1   119.3800509 410.868800
   3803   3794   3805     1   109.5600471 388.275200
   3803   3794   3804     1   108.4600466 328.025600
   3804   3794   3805     1   109.5600471 388.275200
   3806   3805   3808     1   108.7700466 392.459200
   3806   3805   3807     1   107.5800459 329.699200
   3807   3805   3808     1   108.7700466 392.459200
   3808   3857   3847     1   119.3800509 410.868800
   3810   3811   3830     1   109.5600471 388.275200
   3810   3821   3824     1   109.5600471 388.275200
   3810   3821   3825     1   109.5600471 388.275200
   3811   3813   3817     1   109.5600471 388.275200
   3811   3831   3832     1   107.2600461 396.643200
   3811   3810   3812     1   109.5600471 388.275200
   3812   3810   3821     1   109.5600471 388.275200
   3812   3810   3828     1   109.7800468 425.094400
   3813   3814   3816     1   109.5600471 388.275200
   3813   3820   3822     1   107.2600461 396.643200
   3813   3811   3830     1   109.5600471 388.275200
   3814   3815   3818     1   110.2200475 386.601600
   3814   3833   3823     1   109.2900470 396.643200
   3814   3813   3817     1   109.5600471 388.275200
   3815   3819   3829     1   107.2600461 396.643200
   3815   3814   3816     1   109.5600471 388.275200
   3816   3814   3833     1   109.8800469 414.216000
   3817   3813   3820     1   110.2600474 425.931200
   3818   3815   3819     1   109.4300470 427.604800
   3818   3815   3828     1   109.5800467 425.931200
   3821   3826   3827     1   107.2600461 396.643200
   3824   3821   3826     1   110.2600474 425.931200
   3824   3821   3825     1   108.4600466 328.025600
   3825   3821   3826     1   110.2600474 425.931200
   3830   3811   3831     1   110.2600474 425.931200
   3834   3835   3854     1   109.5600471 388.275200
   3834   3845   3848     1   109.5600471 388.275200
   3834   3845   3849     1   109.5600471 388.275200
   3835   3837   3841     1   109.5600471 388.275200
   3835   3855   3856     1   107.2600461 396.643200
   3835   3834   3836     1   109.5600471 388.275200
   3836   3834   3845     1   109.5600471 388.275200
   3836   3834   3852     1   109.7800468 425.094400
   3837   3838   3840     1   109.5600471 388.275200
   3837   3844   3846     1   107.2600461 396.643200
   3837   3835   3854     1   109.5600471 388.275200
   3838   3839   3842     1   110.2200475 386.601600
   3838   3857   3847     1   109.2900470 396.643200
   3838   3837   3841     1   109.5600471 388.275200
   3839   3843   3853     1   107.2600461 396.643200
   3839   3838   3840     1   109.5600471 388.275200
   3840   3838   3857     1   109.8800469 414.216000
   3841   3837   3844     1   110.2600474 425.931200
   3842   3839   3843     1   109.4300470 427.604800
   3842   3839   3852     1   109.5800467 425.931200
   3845   3850   3851     1   107.2600461 396.643200
   3848   3845   3850     1   110.2600474 425.931200
   3848   3845   3849     1   108.4600466 328.025600
   3849   3845   3850     1   110.2600474 425.931200
   3854   3835   3855     1   110.2600474 425.931200
   3859   3861   3862     1   108.8800464 416.726400
   3859   3861   3864     1   108.8800464 416.726400
   3860   3859   3861     1   117.6800502 383.254400
   3861   3863   3865     1   109.5600471 388.275200
   3861   3863   3866     1   109.5600471 388.275200
   3862   3861   3863     1   109.5600471 388.275200
   3862   3861   3864     1   108.4600466 328.025600
   3863   3861   3864     1   109.5600471 388.275200
   3863   3867   3932     1   110.1100470 384.091200
   3865   3863   3867     1   107.9000462 406.684800
   3865   3863   3866     1   108.4600466 328.025600
   3866   3863   3867     1   107.9000462 406.684800
   3867   3868   3877     1   107.9000462 406.684800
   3867   3868   3878     1   107.9000462 406.684800
   3867   3869   3870     1   107.9000462 406.684800
   3867   3869   3872     1   107.9000462 406.684800
   3868   3867   3932     1   110.1100470 384.091200
   3868   3879   3880     1   109.8000471 387.438400
   3868   3879   3881     1   109.8000471 387.438400
   3869   3867   3932     1   110.1100470 384.091200
   3869   3871   3873     1   109.8000471 387.438400
   3869   3871   3874     1   109.8000471 387.438400
   3870   3869   3871     1   109.5600471 388.275200
   3870   3869   3872     1   108.4600466 328.025600
   3871   3869   3872     1   109.5600471 388.275200
   3873   3871   3875     1   108.7700466 392.459200
   3873   3871   3874     1   107.5800459 329.699200
   3874   3871   3875     1   108.7700466 392.459200
   3875   3907   3897     1   119.3800509 410.868800
   3877   3868   3879     1   109.5600471 388.275200
   3877   3868   3878     1   108.4600466 328.025600
   3878   3868   3879     1   109.5600471 388.275200
   3880   3879   3882     1   108.7700466 392.459200
   3880   3879   3881     1   107.5800459 329.699200
   3881   3879   3882     1   108.7700466 392.459200
   3882   3931   3921     1   119.3800509 410.868800
   3884   3885   3904     1   109.5600471 388.275200
   3884   3895   3898     1   109.5600471 388.275200
   3884   3895   3899     1   109.5600471 388.275200
   3885   3884   3886     1   109.5600471 388.275200
   3885   3887   3891     1   109.5600471 388.275200
   3885   3905   3906     1   107.2600461 396.643200
   3886   3884   3895     1   109.5600471 388.275200
   3886   3884   3902     1   109.7800468 425.094400
   3887   3885   3904     1   109.5600471 388.275200
   3887   3888   3890     1   109.5600471 388.275200
   3887   3894   3896     1   107.2600461 396.643200
   3888   3887   3891     1   109.5600471 388.275200
   3888   3889   3892     1   110.2200475 386.601600
   3888   3907   3897     1   109.2900470 396.643200
   3889   3888   3890     1   109.5600471 388.275200
   3889   3893   3903     1   107.2600461 396.643200
   3890   3888   3907     1   109.8800469 414.216000
   3891   3887   3894     1   110.2600474 425.931200
   3892   3889   3893     1   109.4300470 427.604800
   3892   3889   3902     1   109.5800467 425.931200
   3895   3900   3901     1   107.2600461 396.643200
   3898   3895   3900     1   110.2600474 425.931200
   3898   3895   3899     1   108.4600466 328.025600
   3899   3895   3900     1   110.2600474 425.931200
   3904   3885   3905     1   110.2600474 425.931200
   3908   3909   3928     1   109.5600471 388.275200
   3908   3919   3922     1   109.5600471 388.275200
   3908   3919   3923     1   109.5600471 388.275200
   3909   3908   3910     1   109.5600471 388.275200
   3909   3911   3915     1   109.5600471 388.275200
   3909   3929   3930     1   107.2600461 396.643200
   3910   3908   3919     1   109.5600471 388.275200
   3910   3908   3926     1   109.7800468 425.094400
   3911   3909   3928     1   109.5600471 388.275200
   3911   3912   3914     1   109.5600471 388.275200
   3911   3918   3920     1   107.2600461 396.643200
   3912   3911   3915     1   109.5600471 388.275200
   3912   3913   3916     1   110.2200475 386.601600
   3912   3931   3921     1   109.2900470 396.643200
   3913   3912   3914     1   109.5600471 388.275200
   3913   3917   3927     1   107.2600461 396.643200
   3914   3912   3931     1   109.8800469 414.216000
   3915   3911   3918     1   110.2600474 425.931200
   3916   3913   3917     1   109.4300470 427.604800
   3916   3913   3926     1   109.5800467 425.931200
   3919   3924   3925     1   107.2600461 396.643200
   3922   3919   3924     1   110.2600474 425.931200
   3922   3919   3923     1   108.4600466 328.025600
   3923   3919   3924     1   110.2600474 425.931200
   3928   3909   3929     1   110.2600474 425.931200
   3933   3935   3936     1   108.8800464 416.726400
   3933   3935   3938     1   108.8800464 416.726400
   3934   3933   3935     1   117.6800502 383.254400
   3935   3937   3939     1   109.5600471 388.275200
   3935   3937   3940     1   109.5600471 388.275200
   3936   3935   3937     1   109.5600471 388.275200
   3936   3935   3938     1   108.4600466 328.025600
   3937   3941   4006     1   110.1100470 384.091200
   3937   3935   3938     1   109.5600471 388.275200
   3939   3937   3941     1   107.9000462 406.684800
   3939   3937   3940     1   108.4600466 328.025600
   3940   3937   3941     1   107.9000462 406.684800
   3941   3942   3951     1   107.9000462 406.684800
   3941   3942   3952     1   107.9000462 406.684800
   3941   3943   3944     1   107.9000462 406.684800
   3941   3943   3946     1   107.9000462 406.684800
   3942   3953   3954     1   109.8000471 387.438400
   3942   3953   3955     1   109.8000471 387.438400
   3942   3941   4006     1   110.1100470 384.091200
   3943   3945   3947     1   109.8000471 387.438400
   3943   3945   3948     1   109.8000471 387.438400
   3943   3941   4006     1   110.1100470 384.091200
   3944   3943   3945     1   109.5600471 388.275200
   3944   3943   3946     1   108.4600466 328.025600
   3945   3943   3946     1   109.5600471 388.275200
   3947   3945   3949     1   108.7700466 392.459200
   3947   3945   3948     1   107.5800459 329.699200
   3948   3945   3949     1   108.7700466 392.459200
   3949   3981   3971     1   119.3800509 410.868800
   3951   3942   3953     1   109.5600471 388.275200
   3951   3942   3952     1   108.4600466 328.025600
   3952   3942   3953     1   109.5600471 388.275200
   3954   3953   3956     1   108.7700466 392.459200
   3954   3953   3955     1   107.5800459 329.699200
   3955   3953   3956     1   108.7700466 392.459200
   3956   4005   3995     1   119.3800509 410.868800
   3958   3959   3978     1   109.5600471 388.275200
   3958   3969   3972     1   109.5600471 388.275200
   3958   3969   3973     1   109.5600471 388.275200
   3959   3961   3965     1   109.5600471 388.275200
   3959   3979   3980     1   107.2600461 396.643200
   3959   3958   3960     1   109.5600471 388.275200
   3960   3958   3969     1   109.5600471 388.275200
   3960   3958   3976     1   109.7800468 425.094400
   3961   3962   3964     1   109.5600471 388.275200
   3961   3968   3970     1   107.2600461 396.643200
   3961   3959   3978     1   109.5600471 388.275200
   3962   3963   3966     1   110.2200475 386.601600
   3962   3981   3971     1   109.2900470 396.643200
   3962   3961   3965     1   109.5600471 388.275200
   3963   3967   3977     1   107.2600461 396.643200
   3963   3962   3964     1   109.5600471 388.275200
   3964   3962   3981     1   109.8800469 414.216000
   3965   3961   3968     1   110.2600474 425.931200
   3966   3963   3967     1   109.4300470 427.604800
   3966   3963   3976     1   109.5800467 425.931200
   3969   3974   3975     1   107.2600461 396.643200
   3972   3969   3974     1   110.2600474 425.931200
   3972   3969   3973     1   108.4600466 328.025600
   3973   3969   3974     1   110.2600474 425.931200
   3978   3959   3979     1   110.2600474 425.931200
   3982   3983   4002     1   109.5600471 388.275200
   3982   3993   3996     1   109.5600471 388.275200
   3982   3993   3997     1   109.5600471 388.275200
   3983   3985   3989     1   109.5600471 388.275200
   3983   4003   4004     1   107.2600461 396.643200
   3983   3982   3984     1   109.5600471 388.275200
   3984   3982   3993     1   109.5600471 388.275200
   3984   3982   4000     1   109.7800468 425.094400
   3985   3986   3988     1   109.5600471 388.275200
   3985   3992   3994     1   107.2600461 396.643200
   3985   3983   4002     1   109.5600471 388.275200
   3986   3987   3990     1   110.2200475 386.601600
   3986   4005   3995     1   109.2900470 396.643200
   3986   3985   3989     1   109.5600471 388.275200
   3987   3991   4001     1   107.2600461 396.643200
   3987   3986   3988     1   109.5600471 388.275200
   3988   3986   4005     1   109.8800469 414.216000
   3989   3985   3992     1   110.2600474 425.931200
   3990   3987   3991     1   109.4300470 427.604800
   3990   3987   4000     1   109.5800467 425.931200
   3993   3998   3999     1   107.2600461 396.643200
   3996   3993   3998     1   110.2600474 425.931200
   3996   3993   3997     1   108.4600466 328.025600
   3997   3993   3998     1   110.2600474 425.931200
   4002   3983   4003     1   110.2600474 425.931200
   4007   4009   4010     1   108.8800464 416.726400
   4007   4009   4012     1   108.8800464 416.726400
   4008   4007   4009     1   117.6800502 383.254400
   4009   4011   4013     1   109.5600471 388.275200
   4009   4011   4014     1   109.5600471 388.275200
   4010   4009   4011     1   109.5600471 388.275200
   4010   4009   4012     1   108.4600466 328.025600
   4011   4009   4012     1   109.5600471 388.275200
   4011   4015   4080     1   110.1100470 384.091200
   4013   4011   4015     1   107.9000462 406.684800
   4013   4011   4014     1   108.4600466 328.025600
   4014   4011   4015     1   107.9000462 406.684800
   4015   4016   4025     1   107.9000462 406.684800
   4015   4016   4026     1   107.9000462 406.684800
   4015   4017   4018     1   107.9000462 406.684800
   4015   4017   4020     1   107.9000462 406.684800
   4016   4015   4080     1   110.1100470 384.091200
   4016   4027   4028     1   109.8000471 387.438400
   4016   4027   4029     1   109.8000471 387.438400
   4017   4015   4080     1   110.1100470 384.091200
   4017   4019   4021     1   109.8000471 387.438400
   4017   4019   4022     1   109.8000471 387.438400
   4018   4017   4019     1   109.5600471 388.275200
   4018   4017   4020     1   108.4600466 328.025600
   4019   4017   4020     1   109.5600471 388.275200
   4021   4019   4023     1   108.7700466 392.459200
   4021   4019   4022     1   107.5800459 329.699200
   4022   4019   4023     1   108.7700466 392.459200
   4023   4055   4045     1   119.3800509 410.868800
   4025   4016   4027     1   109.5600471 388.275200
   4025   4016   4026     1   108.4600466 328.025600
   4026   4016   4027     1   109.5600471 388.275200
   4028   4027   4030     1   108.7700466 392.459200
   4028   4027   4029     1   107.5800459 329.699200
   4029   4027   4030     1   108.7700466 392.459200
   4030   4079   4069     1   119.3800509 410.868800
   4032   4033   4052     1   109.5600471 388.275200
   4032   4043   4046     1   109.5600471 388.275200
   4032   4043   4047     1   109.5600471 388.275200
   4033   4032   4034     1   109.5600471 388.275200
   4033   4035   4039     1   109.5600471 388.275200
   4033   4053   4054     1   107.2600461 396.643200
   4034   4032   4043     1   109.5600471 388.275200
   4034   4032   4050     1   109.7800468 425.094400
   4035   4033   4052     1   109.5600471 388.275200
   4035   4036   4038     1   109.5600471 388.275200
   4035   4042   4044     1   107.2600461 396.643200
   4036   4035   4039     1   109.5600471 388.275200
   4036   4037   4040     1   110.2200475 386.601600
   4036   4055   4045     1   109.2900470 396.643200
   4037   4036   4038     1   109.5600471 388.275200
   4037   4041   4051     1   107.2600461 396.643200
   4038   4036   4055     1   109.8800469 414.216000
   4039   4035   4042     1   110.2600474 425.931200
   4040   4037   4041     1   109.4300470 427.604800
   4040   4037   4050     1   109.5800467 425.931200
   4043   4048   4049     1   107.2600461 396.643200
   4046   4043   4048     1   110.2600474 425.931200
   4046   4043   4047     1   108.4600466 328.025600
   4047   4043   4048     1   110.2600474 425.931200
   4052   4033   4053     1   110.2600474 425.931200
   4056   4057   4076     1   109.5600471 388.275200
   4056   4067   4070     1   109.5600471 388.275200
   4056   4067   4071     1   109.5600471 388.275200
   4057   4056   4058     1   109.5600471 388.275200
   4057   4059   4063     1   109.5600471 388.275200
   4057   4077   4078     1   107.2600461 396.643200
   4058   4056   4067     1   109.5600471 388.275200
   4058   4056   4074     1   109.7800468 425.094400
   4059   4057   4076     1   109.5600471 388.275200
   4059   4060   4062     1   109.5600471 388.275200
   4059   4066   4068     1   107.2600461 396.643200
   4060   4059   4063     1   109.5600471 388.275200
   4060   4061   4064     1   110.2200475 386.601600
   4060   4079   4069     1   109.2900470 396.643200
   4061   4060   4062     1   109.5600471 388.275200
   4061   4065   4075     1   107.2600461 396.643200
   4062   4060   4079     1   109.8800469 414.216000
   4063   4059   4066     1   110.2600474 425.931200
   4064   4061   4065     1   109.4300470 427.604800
   4064   4061   4074     1   109.5800467 425.931200
   4067   4072   4073     1   107.2600461 396.643200
   4070   4067   4072     1   110.2600474 425.931200
   4070   4067   4071     1   108.4600466 328.025600
   4071   4067   4072     1   110.2600474 425.931200
   4076   4057   4077     1   110.2600474 425.931200
   4081   4083   4084     1   108.8800464 416.726400
   4081   4083   4086     1   108.8800464 416.726400
   4082   4081   4083     1   117.6800502 383.254400
   4083   4085   4087     1   109.5600471 388.275200
   4083   4085   4088     1   109.5600471 388.275200
   4084   4083   4085     1   109.5600471 388.275200
   4084   4083   4086     1   108.4600466 328.025600
   4085   4089   4154     1   110.1100470 384.091200
   4085   4083   4086     1   109.5600471 388.275200
   4087   4085   4089     1   107.9000462 406.684800
   4087   4085   4088     1   108.4600466 328.025600
   4088   4085   4089     1   107.9000462 406.684800
   4089   4090   4099     1   107.9000462 406.684800
   4089   4090   4100     1   107.9000462 406.684800
   4089   4091   4092     1   107.9000462 406.684800
   4089   4091   4094     1   107.9000462 406.684800
   4090   4101   4102     1   109.8000471 387.438400
   4090   4101   4103     1   109.8000471 387.438400
   4090   4089   4154     1   110.1100470 384.091200
   4091   4093   4095     1   109.8000471 387.438400
   4091   4093   4096     1   109.8000471 387.438400
   4091   4089   4154     1   110.1100470 384.091200
   4092   4091   4093     1   109.5600471 388.275200
   4092   4091   4094     1   108.4600466 328.025600
   4093   4091   4094     1   109.5600471 388.275200
   4095   4093   4097     1   108.7700466 392.459200
   4095   4093   4096     1   107.5800459 329.699200
   4096   4093   4097     1   108.7700466 392.459200
   4097   4129   4119     1   119.3800509 410.868800
   4099   4090   4101     1   109.5600471 388.275200
   4099   4090   4100     1   108.4600466 328.025600
   4100   4090   4101     1   109.5600471 388.275200
   4102   4101   4104     1   108.7700466 392.459200
   4102   4101   4103     1   107.5800459 329.699200
   4103   4101   4104     1   108.7700466 392.459200
   4104   4153   4143     1   119.3800509 410.868800
   4106   4107   4126     1   109.5600471 388.275200
   4106   4117   4120     1   109.5600471 388.275200
   4106   4117   4121     1   109.5600471 388.275200
   4107   4109   4113     1   109.5600471 388.275200
   4107   4127   4128     1   107.2600461 396.643200
   4107   4106   4108     1   109.5600471 388.275200
   4108   4106   4117     1   109.5600471 388.275200
   4108   4106   4124     1   109.7800468 425.094400
   4109   4110   4112     1   109.5600471 388.275200
   4109   4116   4118     1   107.2600461 396.643200
   4109   4107   4126     1   109.5600471 388.275200
   4110   4111   4114     1   110.2200475 386.601600
   4110   4129   4119     1   109.2900470 396.643200
   4110   4109   4113     1   109.5600471 388.275200
   4111   4115   4125     1   107.2600461 396.643200
   4111   4110   4112     1   109.5600471 388.275200
   4112   4110   4129     1   109.8800469 414.216000
   4113   4109   4116     1   110.2600474 425.931200
   4114   4111   4115     1   109.4300470 427.604800
   4114   4111   4124     1   109.5800467 425.931200
   4117   4122   4123     1   107.2600461 396.643200
   4120   4117   4122     1   110.2600474 425.931200
   4120   4117   4121     1   108.4600466 328.025600
   4121   4117   4122     1   110.2600474 425.931200
   4126   4107   4127     1   110.2600474 425.931200
   4130   4131   4150     1   109.5600471 388.275200
   4130   4141   4144     1   109.5600471 388.275200
   4130   4141   4145     1   109.5600471 388.275200
   4131   4133   4137     1   109.5600471 388.275200
   4131   4151   4152     1   107.2600461 396.643200
   4131   4130   4132     1   109.5600471 388.275200
   4132   4130   4141     1   109.5600471 388.275200
   4132   4130   4148     1   109.7800468 425.094400
   4133   4134   4136     1   109.5600471 388.275200
   4133   4140   4142     1   107.2600461 396.643200
   4133   4131   4150     1   109.5600471 388.275200
   4134   4135   4138     1   110.2200475 386.601600
   4134   4153   4143     1   109.2900470 396.643200
   4134   4133   4137     1   109.5600471 388.275200
   4135   4139   4149     1   107.2600461 396.643200
   4135   4134   4136     1   109.5600471 388.275200
   4136   4134   4153     1   109.8800469 414.216000
   4137   4133   4140     1   110.2600474 425.931200
   4138   4135   4139     1   109.4300470 427.604800
   4138   4135   4148     1   109.5800467 425.931200
   4141   4146   4147     1   107.2600461 396.643200
   4144   4141   4146     1   110.2600474 425.931200
   4144   4141   4145     1   108.4600466 328.025600
   4145   4141   4146     1   110.2600474 425.931200
   4150   4131   4151     1   110.2600474 425.931200
   4155   4157   4158     1   108.8800464 416.726400
   4155   4157   4160     1   108.8800464 416.726400
   4156   4155   4157     1   117.6800502 383.254400
   4157   4159   4161     1   109.5600471 388.275200
   4157   4159   4162     1   109.5600471 388.275200
   4158   4157   4159     1   109.5600471 388.275200
   4158   4157   4160     1   108.4600466 328.025600
   4159   4157   4160     1   109.5600471 388.275200
   4159   4163   4228     1   110.1100470 384.091200
   4161   4159   4163     1   107.9000462 406.684800
   4161   4159   4162     1   108.4600466 328.025600
   4162   4159   4163     1   107.9000462 406.684800
   4163   4164   4173     1   107.9000462 406.684800
   4163   4164   4174     1   107.9000462 406.684800
   4163   4165   4166     1   107.9000462 406.684800
   4163   4165   4168     1   107.9000462 406.684800
   4164   4163   4228     1   110.1100470 384.091200
   4164   4175   4176     1   109.8000471 387.438400
   4164   4175   4177     1   109.8000471 387.438400
   4165   4163   4228     1   110.1100470 384.091200
   4165   4167   4169     1   109.8000471 387.438400
   4165   4167   4170     1   109.8000471 387.438400
   4166   4165   4167     1   109.5600471 388.275200
   4166   4165   4168     1   108.4600466 328.025600
   4167   4165   4168     1   109.5600471 388.275200
   4169   4167   4171     1   108.7700466 392.459200
   4169   4167   4170     1   107.5800459 329.699200
   4170   4167   4171     1   108.7700466 392.459200
   4171   4203   4193     1   119.3800509 410.868800
   4173   4164   4175     1   109.5600471 388.275200
   4173   4164   4174     1   108.4600466 328.025600
   4174   4164   4175     1   109.5600471 388.275200
   4176   4175   4178     1   108.7700466 392.459200
   4176   4175   4177     1   107.5800459 329.699200
   4177   4175   4178     1   108.7700466 392.459200
   4178   4227   4217     1   119.3800509 410.868800
   4180   4181   4200     1   109.5600471 388.275200
   4180   4191   4194     1   109.5600471 388.275200
   4180   4191   4195     1   109.5600471 388.275200
   4181   4180   4182     1   109.5600471 388.275200
   4181   4183   4187     1   109.5600471 388.275200
   4181   4201   4202     1   107.2600461 396.643200
   4182   4180   4191     1   109.5600471 388.275200
   4182   4180   4198     1   109.7800468 425.094400
   4183   4181   4200     1   109.5600471 388.275200
   4183   4184   4186     1   109.5600471 388.275200
   4183   4190   4192     1   107.2600461 396.643200
   4184   4183   4187     1   109.5600471 388.275200
   4184   4185   4188     1   110.2200475 386.601600
   4184   4203   4193     1   109.2900470 396.643200
   4185   4184   4186     1   109.5600471 388.275200
   4185   4189   4199     1   107.2600461 396.643200
   4186   4184   4203     1   109.8800469 414.216000
   4187   4183   4190     1   110.2600474 425.931200
   4188   4185   4189     1   109.4300470 427.604800
   4188   4185   4198     1   109.5800467 425.931200
   4191   4196   4197     1   107.2600461 396.643200
   4194   4191   4196     1   110.2600474 425.931200
   4194   4191   4195     1   108.4600466 328.025600
   4195   4191   4196     1   110.2600474 425.931200
   4200   4181   4201     1   110.2600474 425.931200
   4204   4205   4224     1   109.5600471 388.275200
   4204   4215   4218     1   109.5600471 388.275200
   4204   4215   4219     1   109.5600471 388.275200
   4205   4204   4206     1   109.5600471 388.275200
   4205   4207   4211     1   109.5600471 388.275200
   4205   4225   4226     1   107.2600461 396.643200
   4206   4204   4215     1   109.5600471 388.275200
   4206   4204   4222     1   109.7800468 425.094400
   4207   4205   4224     1   109.5600471 388.275200
   4207   4208   4210     1   109.5600471 388.275200
   4207   4214   4216     1   107.2600461 396.643200
   4208   4207   4211     1   109.5600471 388.275200
   4208   4209   4212     1   110.2200475 386.601600
   4208   4227   4217     1   109.2900470 396.643200
   4209   4208   4210     1   109.5600471 388.275200
   4209   4213   4223     1   107.2600461 396.643200
   4210   4208   4227     1   109.8800469 414.216000
   4211   4207   4214     1   110.2600474 425.931200
   4212   4209   4213     1   109.4300470 427.604800
   4212   4209   4222     1   109.5800467 425.931200
   4215   4220   4221     1   107.2600461 396.643200
   4218   4215   4220     1   110.2600474 425.931200
   4218   4215   4219     1   108.4600466 328.025600
   4219   4215   4220     1   110.2600474 425.931200
   4224   4205   4225     1   110.2600474 425.931200
   4229   4231   4232     1   108.8800464 416.726400
   4229   4231   4234     1   108.8800464 416.726400
   4230   4229   4231     1   117.6800502 383.254400
   4231   4233   4235     1   109.5600471 388.275200
   4231   4233   4236     1   109.5600471 388.275200
   4232   4231   4233     1   109.5600471 388.275200
   4232   4231   4234     1   108.4600466 328.025600
   4233   4237   4302     1   110.1100470 384.091200
   4233   4231   4234     1   109.5600471 388.275200
   4235   4233   4237     1   107.9000462 406.684800
   4235   4233   4236     1   108.4600466 328.025600
   4236   4233   4237     1   107.9000462 406.684800
   4237   4238   4247     1   107.9000462 406.684800
   4237   4238   4248     1   107.9000462 406.684800
   4237   4239   4240     1   107.9000462 406.684800
   4237   4239   4242     1   107.9000462 406.684800
   4238   4249   4250     1   109.8000471 387.438400
   4238   4249   4251     1   109.8000471 387.438400
   4238   4237   4302     1   110.1100470 384.091200
   4239   4241   4243     1   109.8000471 387.438400
   4239   4241   4244     1   109.8000471 387.438400
   4239   4237   4302     1   110.1100470 384.091200
   4240   4239   4241     1   109.5600471 388.275200
   4240   4239   4242     1   108.4600466 328.025600
   4241   4239   4242     1   109.5600471 388.275200
   4243   4241   4245     1   108.7700466 392.459200
   4243   4241   4244     1   107.5800459 329.699200
   4244   4241   4245     1   108.7700466 392.459200
   4245   4277   4267     1   119.3800509 410.868800
   4247   4238   4249     1   109.5600471 388.275200
   4247   4238   4248     1   108.4600466 328.025600
   4248   4238   4249     1   109.5600471 388.275200
   4250   4249   4252     1   108.7700466 392.459200
   4250   4249   4251     1   107.5800459 329.699200
   4251   4249   4252     1   108.7700466 392.459200
   4252   4301   4291     1   119.3800509 410.868800
   4254   4255   4274     1   109.5600471 388.275200
   4254   4265   4268     1   109.5600471 388.275200
   4254   4265   4269     1   109.5600471 388.275200
   4255   4257   4261     1   109.5600471 388.275200
   4255   4275   4276     1   107.2600461 396.643200
   4255   4254   4256     1   109.5600471 388.275200
   4256   4254   4265     1   109.5600471 388.275200
   4256   4254   4272     1   109.7800468 425.094400
   4257   4258   4260     1   109.5600471 388.275200
   4257   4264   4266     1   107.2600461 396.643200
   4257   4255   4274     1   109.5600471 388.275200
   4258   4259   4262     1   110.2200475 386.601600
   4258   4277   4267     1   109.2900470 396.643200
   4258   4257   4261     1   109.5600471 388.275200
   4259   4263   4273     1   107.2600461 396.643200
   4259   4258   4260     1   109.5600471 388.275200
   4260   4258   4277     1   109.8800469 414.216000
   4261   4257   4264     1   110.2600474 425.931200
   4262   4259   4263     1   109.4300470 427.604800
   4262   4259   4272     1   109.5800467 425.931200
   4265   4270   4271     1   107.2600461 396.643200
   4268   4265   4270     1   110.2600474 425.931200
   4268   4265   4269     1   108.4600466 328.025600
   4269   4265   4270     1   110.2600474 425.931200
   4274   4255   4275     1   110.2600474 425.931200
   4278   4279   4298     1   109.5600471 388.275200
   4278   4289   4292     1   109.5600471 388.275200
   4278   4289   4293     1   109.5600471 388.275200
   4279   4281   4285     1   109.5600471 388.275200
   4279   4299   4300     1   107.2600461 396.643200
   4279   4278   4280     1   109.5600471 388.275200
   4280   4278   4289     1   109.5600471 388.275200
   4280   4278   4296     1   109.7800468 425.094400
   4281   4282   4284     1   109.5600471 388.275200
   4281   4288   4290     1   107.2600461 396.643200
   4281   4279   4298     1   109.5600471 388.275200
   4282   4283   4286     1   110.2200475 386.601600
   4282   4301   4291     1   109.2900470 396.643200
   4282   4281   4285     1   109.5600471 388.275200
   4283   4287   4297     1   107.2600461 396.643200
   4283   4282   4284     1   109.5600471 388.275200
   4284   4282   4301     1   109.8800469 414.216000
   4285   4281   4288     1   110.2600474 425.931200
   4286   4283   4287     1   109.4300470 427.604800
   4286   4283   4296     1   109.5800467 425.931200
   4289   4294   4295     1   107.2600461 396.643200
   4292   4289   4294     1   110.2600474 425.931200
   4292   4289   4293     1   108.4600466 328.025600
   4293   4289   4294     1   110.2600474 425.931200
   4298   4279   4299     1   110.2600474 425.931200
   4303   4305   4306     1   108.8800464 416.726400
   4303   4305   4308     1   108.8800464 416.726400
   4304   4303   4305     1   117.6800502 383.254400
   4305   4307   4309     1   109.5600471 388.275200
   4305   4307   4310     1   109.5600471 388.275200
   4306   4305   4307     1   109.5600471 388.275200
   4306   4305   4308     1   108.4600466 328.025600
   4307   4305   4308     1   109.5600471 388.275200
   4307   4311   4376     1   110.1100470 384.091200
   4309   4307   4311     1   107.9000462 406.684800
   4309   4307   4310     1   108.4600466 328.025600
   4310   4307   4311     1   107.9000462 406.684800
   4311   4312   4321     1   107.9000462 406.684800
   4311   4312   4322     1   107.9000462 406.684800
   4311   4313   4314     1   107.9000462 406.684800
   4311   4313   4316     1   107.9000462 406.684800
   4312   4311   4376     1   110.1100470 384.091200
   4312   4323   4324     1   109.8000471 387.438400
   4312   4323   4325     1   109.8000471 387.438400
   4313   4311   4376     1   110.1100470 384.091200
   4313   4315   4317     1   109.8000471 387.438400
   4313   4315   4318     1   109.8000471 387.438400
   4314   4313   4315     1   109.5600471 388.275200
   4314   4313   4316     1   108.4600466 328.025600
   4315   4313   4316     1   109.5600471 388.275200
   4317   4315   4319     1   108.7700466 392.459200
   4317   4315   4318     1   107.5800459 329.699200
   4318   4315   4319     1   108.7700466 392.459200
   4319   4351   4341     1   119.3800509 410.868800
   4321   4312   4323     1   109.5600471 388.275200
   4321   4312   4322     1   108.4600466 328.025600
   4322   4312   4323     1   109.5600471 388.275200
   4324   4323   4326     1   108.7700466 392.459200
   4324   4323   4325     1   107.5800459 329.699200
   4325   4323   4326     1   108.7700466 392.459200
   4326   4375   4365     1   119.3800509 410.868800
   4328   4329   4348     1   109.5600471 388.275200
   4328   4339   4342     1   109.5600471 388.275200
   4328   4339   4343     1   109.5600471 388.275200
   4329   4328   4330     1   109.5600471 388.275200
   4329   4331   4335     1   109.5600471 388.275200
   4329   4349   4350     1   107.2600461 396.643200
   4330   4328   4339     1   109.5600471 388.275200
   4330   4328   4346     1   109.7800468 425.094400
   4331   4329   4348     1   109.5600471 388.275200
   4331   4332   4334     1   109.5600471 388.275200
   4331   4338   4340     1   107.2600461 396.643200
   4332   4331   4335     1   109.5600471 388.275200
   4332   4333   4336     1   110.2200475 386.601600
   4332   4351   4341     1   109.2900470 396.643200
   4333   4332   4334     1   109.5600471 388.275200
   4333   4337   4347     1   107.2600461 396.643200
   4334   4332   4351     1   109.8800469 414.216000
   4335   4331   4338     1   110.2600474 425.931200
   4336   4333   4337     1   109.4300470 427.604800
   4336   4333   4346     1   109.5800467 425.931200
   4339   4344   4345     1   107.2600461 396.643200
   4342   4339   4344     1   110.2600474 425.931200
   4342   4339   4343     1   108.4600466 328.025600
   4343   4339   4344     1   110.2600474 425.931200
   4348   4329   4349     1   110.2600474 425.931200
   4352   4353   4372     1   109.5600471 388.275200
   4352   4363   4366     1   109.5600471 388.275200
   4352   4363   4367     1   109.5600471 388.275200
   4353   4352   4354     1   109.5600471 388.275200
   4353   4355   4359     1   109.5600471 388.275200
   4353   4373   4374     1   107.2600461 396.643200
   4354   4352   4363     1   109.5600471 388.275200
   4354   4352   4370     1   109.7800468 425.094400
   4355   4353   4372     1   109.5600471 388.275200
   4355   4356   4358     1   109.5600471 388.275200
   4355   4362   4364     1   107.2600461 396.643200
   4356   4355   4359     1   109.5600471 388.275200
   4356   4357   4360     1   110.2200475 386.601600
   4356   4375   4365     1   109.2900470 396.643200
   4357   4356   4358     1   109.5600471 388.275200
   4357   4361   4371     1   107.2600461 396.643200
   4358   4356   4375     1   109.8800469 414.216000
   4359   4355   4362     1   110.2600474 425.931200
   4360   4357   4361     1   109.4300470 427.604800
   4360   4357   4370     1   109.5800467 425.931200
   4363   4368   4369     1   107.2600461 396.643200
   4366   4363   4368     1   110.2600474 425.931200
   4366   4363   4367     1   108.4600466 328.025600
   4367   4363   4368     1   110.2600474 425.931200
   4372   4353   4373     1   110.2600474 425.931200
   4377   4379   4380     1   108.8800464 416.726400
   4377   4379   4382     1   108.8800464 416.726400
   4378   4377   4379     1   117.6800502 383.254400
   4379   4381   4383     1   109.5600471 388.275200
   4379   4381   4384     1   109.5600471 388.275200
   4380   4379   4381     1   109.5600471 388.275200
   4380   4379   4382     1   108.4600466 328.025600
   4381   4385   4450     1   110.1100470 384.091200
   4381   4379   4382     1   109.5600471 388.275200
   4383   4381   4385     1   107.9000462 406.684800
   4383   4381   4384     1   108.4600466 328.025600
   4384   4381   4385     1   107.9000462 406.684800
   4385   4386   4395     1   107.9000462 406.684800
   4385   4386   4396     1   107.9000462 406.684800
   4385   4387   4388     1   107.9000462 406.684800
   4385   4387   4390     1   107.9000462 406.684800
   4386   4397   4398     1   109.8000471 387.438400
   4386   4397   4399     1   109.8000471 387.438400
   4386   4385   4450     1   110.1100470 384.091200
   4387   4389   4391     1   109.8000471 387.438400
   4387   4389   4392     1   109.8000471 387.438400
   4387   4385   4450     1   110.1100470 384.091200
   4388   4387   4389     1   109.5600471 388.275200
   4388   4387   4390     1   108.4600466 328.025600
   4389   4387   4390     1   109.5600471 388.275200
   4391   4389   4393     1   108.7700466 392.459200
   4391   4389   4392     1   107.5800459 329.699200
   4392   4389   4393     1   108.7700466 392.459200
   4393   4425   4415     1   119.3800509 410.868800
   4395   4386   4397     1   109.5600471 388.275200
   4395   4386   4396     1   108.4600466 328.025600
   4396   4386   4397     1   109.5600471 388.275200
   4398   4397   4400     1   108.7700466 392.459200
   4398   4397   4399     1   107.5800459 329.699200
   4399   4397   4400     1   108.7700466 392.459200
   4400   4449   4439     1   119.3800509 410.868800
   4402   4403   4422     1   109.5600471 388.275200
   4402   4413   4416     1   109.5600471 388.275200
   4402   4413   4417     1   109.5600471 388.275200
   4403   4405   4409     1   109.5600471 388.275200
   4403   4423   4424     1   107.2600461 396.643200
   4403   4402   4404     1   109.5600471 388.275200
   4404   4402   4413     1   109.5600471 388.275200
   4404   4402   4420     1   109.7800468 425.094400
   4405   4406   4408     1   109.5600471 388.275200
   4405   4412   4414     1   107.2600461 396.643200
   4405   4403   4422     1   109.5600471 388.275200
   4406   4407   4410     1   110.2200475 386.601600
   4406   4425   4415     1   109.2900470 396.643200
   4406   4405   4409     1   109.5600471 388.275200
   4407   4411   4421     1   107.2600461 396.643200
   4407   4406   4408     1   109.5600471 388.275200
   4408   4406   4425     1   109.8800469 414.216000
   4409   4405   4412     1   110.2600474 425.931200
   4410   4407   4411     1   109.4300470 427.604800
   4410   4407   4420     1   109.5800467 425.931200
   4413   4418   4419     1   107.2600461 396.643200
   4416   4413   4418     1   110.2600474 425.931200
   4416   4413   4417     1   108.4600466 328.025600
   4417   4413   4418     1   110.2600474 425.931200
   4422   4403   4423     1   110.2600474 425.931200
   4426   4427   4446     1   109.5600471 388.275200
   4426   4437   4440     1   109.5600471 388.275200
   4426   4437   4441     1   109.5600471 388.275200
   4427   4429   4433     1   109.5600471 388.275200
   4427   4447   4448     1   107.2600461 396.643200
   4427   4426   4428     1   109.5600471 388.275200
   4428   4426   4437     1   109.5600471 388.275200
   4428   4426   4444     1   109.7800468 425.094400
   4429   4430   4432     1   109.5600471 388.275200
   4429   4436   4438     1   107.2600461 396.643200
   4429   4427   4446     1   109.5600471 388.275200
   4430   4431   4434     1   110.2200475 386.601600
   4430   4449   4439     1   109.2900470 396.643200
   4430   4429   4433     1   109.5600471 388.275200
   4431   4435   4445     1   107.2600461 396.643200
   4431   4430   4432     1   109.5600471 388.275200
   4432   4430   4449     1   109.8800469 414.216000
   4433   4429   4436     1   110.2600474 425.931200
   4434   4431   4435     1   109.4300470 427.604800
   4434   4431   4444     1   109.5800467 425.931200
   4437   4442   4443     1   107.2600461 396.643200
   4440   4437   4442     1   110.2600474 425.931200
   4440   4437   4441     1   108.4600466 328.025600
   4441   4437   4442     1   110.2600474 425.931200
   4446   4427   4447     1   110.2600474 425.931200
   4451   4453   4454     1   108.8800464 416.726400
   4451   4453   4456     1   108.8800464 416.726400
   4452   4451   4453     1   117.6800502 383.254400
   4453   4455   4457     1   109.5600471 388.275200
   4453   4455   4458     1   109.5600471 388.275200
   4454   4453   4455     1   109.5600471 388.275200
   4454   4453   4456     1   108.4600466 328.025600
   4455   4453   4456     1   109.5600471 388.275200
   4455   4459   4524     1   110.1100470 384.091200
   4457   4455   4459     1   107.9000462 406.684800
   4457   4455   4458     1   108.4600466 328.025600
   4458   4455   4459     1   107.9000462 406.684800
   4459   4460   4469     1   107.9000462 406.684800
   4459   4460   4470     1   107.9000462 406.684800
   4459   4461   4462     1   107.9000462 406.684800
   4459   4461   4464     1   107.9000462 406.684800
   4460   4459   4524     1   110.1100470 384.091200
   4460   4471   4472     1   109.8000471 387.438400
   4460   4471   4473     1   109.8000471 387.438400
   4461   4459   4524     1   110.1100470 384.091200
   4461   4463   4465     1   109.8000471 387.438400
   4461   4463   4466     1   109.8000471 387.438400
   4462   4461   4463     1   109.5600471 388.275200
   4462   4461   4464     1   108.4600466 328.025600
   4463   4461   4464     1   109.5600471 388.275200
   4465   4463   4467     1   108.7700466 392.459200
   4465   4463   4466     1   107.5800459 329.699200
   4466   4463   4467     1   108.7700466 392.459200
   4467   4499   4489     1   119.3800509 410.868800
   4469   4460   4471     1   109.5600471 388.275200
   4469   4460   4470     1   108.4600466 328.025600
   4470   4460   4471     1   109.5600471 388.275200
   4472   4471   4474     1   108.7700466 392.459200
   4472   4471   4473     1   107.5800459 329.699200
   4473   4471   4474     1   108.7700466 392.459200
   4474   4523   4513     1   119.3800509 410.868800
   4476   4477   4496     1   109.5600471 388.275200
   4476   4487   4490     1   109.5600471 388.275200
   4476   4487   4491     1   109.5600471 388.275200
   4477   4476   4478     1   109.5600471 388.275200
   4477   4479   4483     1   109.5600471 388.275200
   4477   4497   4498     1   107.2600461 396.643200
   4478   4476   4487     1   109.5600471 388.275200
   4478   4476   4494     1   109.7800468 425.094400
   4479   4477   4496     1   109.5600471 388.275200
   4479   4480   4482     1   109.5600471 388.275200
   4479   4486   4488     1   107.2600461 396.643200
   4480   4479   4483     1   109.5600471 388.275200
   4480   4481   4484     1   110.2200475 386.601600
   4480   4499   4489     1   109.2900470 396.643200
   4481   4480   4482     1   109.5600471 388.275200
   4481   4485   4495     1   107.2600461 396.643200
   4482   4480   4499     1   109.8800469 414.216000
   4483   4479   4486     1   110.2600474 425.931200
   4484   4481   4485     1   109.4300470 427.604800
   4484   4481   4494     1   109.5800467 425.931200
   4487   4492   4493     1   107.2600461 396.643200
   4490   4487   4492     1   110.2600474 425.931200
   4490   4487   4491     1   108.4600466 328.025600
   4491   4487   4492     1   110.2600474 425.931200
   4496   4477   4497     1   110.2600474 425.931200
   4500   4501   4520     1   109.5600471 388.275200
   4500   4511   4514     1   109.5600471 388.275200
   4500   4511   4515     1   109.5600471 388.275200
   4501   4500   4502     1   109.5600471 388.275200
   4501   4503   4507     1   109.5600471 388.275200
   4501   4521   4522     1   107.2600461 396.643200
   4502   4500   4511     1   109.5600471 388.275200
   4502   4500   4518     1   109.7800468 425.094400
   4503   4501   4520     1   109.5600471 388.275200
   4503   4504   4506     1   109.5600471 388.275200
   4503   4510   4512     1   107.2600461 396.643200
   4504   4503   4507     1   109.5600471 388.275200
   4504   4505   4508     1   110.2200475 386.601600
   4504   4523   4513     1   109.2900470 396.643200
   4505   4504   4506     1   109.5600471 388.275200
   4505   4509   4519     1   107.2600461 396.643200
   4506   4504   4523     1   109.8800469 414.216000
   4507   4503   4510     1   110.2600474 425.931200
   4508   4505   4509     1   109.4300470 427.604800
   4508   4505   4518     1   109.5800467 425.931200
   4511   4516   4517     1   107.2600461 396.643200
   4514   4511   4516     1   110.2600474 425.931200
   4514   4511   4515     1   108.4600466 328.025600
   4515   4511   4516     1   110.2600474 425.931200
   4520   4501   4521     1   110.2600474 425.931200
   4525   4527   4528     1   108.8800464 416.726400
   4525   4527   4530     1   108.8800464 416.726400
   4526   4525   4527     1   117.6800502 383.254400
   4527   4529   4531     1   109.5600471 388.275200
   4527   4529   4532     1   109.5600471 388.275200
   4528   4527   4529     1   109.5600471 388.275200
   4528   4527   4530     1   108.4600466 328.025600
   4529   4533   4598     1   110.1100470 384.091200
   4529   4527   4530     1   109.5600471 388.275200
   4531   4529   4533     1   107.9000462 406.684800
   4531   4529   4532     1   108.4600466 328.025600
   4532   4529   4533     1   107.9000462 406.684800
   4533   4534   4543     1   107.9000462 406.684800
   4533   4534   4544     1   107.9000462 406.684800
   4533   4535   4536     1   107.9000462 406.684800
   4533   4535   4538     1   107.9000462 406.684800
   4534   4545   4546     1   109.8000471 387.438400
   4534   4545   4547     1   109.8000471 387.438400
   4534   4533   4598     1   110.1100470 384.091200
   4535   4537   4539     1   109.8000471 387.438400
   4535   4537   4540     1   109.8000471 387.438400
   4535   4533   4598     1   110.1100470 384.091200
   4536   4535   4537     1   109.5600471 388.275200
   4536   4535   4538     1   108.4600466 328.025600
   4537   4535   4538     1   109.5600471 388.275200
   4539   4537   4541     1   108.7700466 392.459200
   4539   4537   4540     1   107.5800459 329.699200
   4540   4537   4541     1   108.7700466 392.459200
   4541   4573   4563     1   119.3800509 410.868800
   4543   4534   4545     1   109.5600471 388.275200
   4543   4534   4544     1   108.4600466 328.025600
   4544   4534   4545     1   109.5600471 388.275200
   4546   4545   4548     1   108.7700466 392.459200
   4546   4545   4547     1   107.5800459 329.699200
   4547   4545   4548     1   108.7700466 392.459200
   4548   4597   4587     1   119.3800509 410.868800
   4550   4551   4570     1   109.5600471 388.275200
   4550   4561   4564     1   109.5600471 388.275200
   4550   4561   4565     1   109.5600471 388.275200
   4551   4553   4557     1   109.5600471 388.275200
   4551   4571   4572     1   107.2600461 396.643200
   4551   4550   4552     1   109.5600471 388.275200
   4552   4550   4561     1   109.5600471 388.275200
   4552   4550   4568     1   109.7800468 425.094400
   4553   4554   4556     1   109.5600471 388.275200
   4553   4560   4562     1   107.2600461 396.643200
   4553   4551   4570     1   109.5600471 388.275200
   4554   4555   4558     1   110.2200475 386.601600
   4554   4573   4563     1   109.2900470 396.643200
   4554   4553   4557     1   109.5600471 388.275200
   4555   4559   4569     1   107.2600461 396.643200
   4555   4554   4556     1   109.5600471 388.275200
   4556   4554   4573     1   109.8800469 414.216000
   4557   4553   4560     1   110.2600474 425.931200
   4558   4555   4559     1   109.4300470 427.604800
   4558   4555   4568     1   109.5800467 425.931200
   4561   4566   4567     1   107.2600461 396.643200
   4564   4561   4566     1   110.2600474 425.931200
   4564   4561   4565     1   108.4600466 328.025600
   4565   4561   4566     1   110.2600474 425.931200
   4570   4551   4571     1   110.2600474 425.931200
   4574   4575   4594     1   109.5600471 388.275200
   4574   4585   4588     1   109.5600471 388.275200
   4574   4585   4589     1   109.5600471 388.275200
   4575   4577   4581     1   109.5600471 388.275200
   4575   4595   4596     1   107.2600461 396.643200
   4575   4574   4576     1   109.5600471 388.275200
   4576   4574   4585     1   109.5600471 388.275200
   4576   4574   4592     1   109.7800468 425.094400
   4577   4578   4580     1   109.5600471 388.275200
   4577   4584   4586     1   107.2600461 396.643200
   4577   4575   4594     1   109.5600471 388.275200
   4578   4579   4582     1   110.2200475 386.601600
   4578   4597   4587     1   109.2900470 396.643200
   4578   4577   4581     1   109.5600471 388.275200
   4579   4583   4593     1   107.2600461 396.643200
   4579   4578   4580     1   109.5600471 388.275200
   4580   4578   4597     1   109.8800469 414.216000
   4581   4577   4584     1   110.2600474 425.931200
   4582   4579   4583     1   109.4300470 427.604800
   4582   4579   4592     1   109.5800467 425.931200
   4585   4590   4591     1   107.2600461 396.643200
   4588   4585   4590     1   110.2600474 425.931200
   4588   4585   4589     1   108.4600466 328.025600
   4589   4585   4590     1   110.2600474 425.931200
   4594   4575   4595     1   110.2600474 425.931200
   4599   4601   4602     1   108.8800464 416.726400
   4599   4601   4604     1   108.8800464 416.726400
   4600   4599   4601     1   117.6800502 383.254400
   4601   4603   4605     1   109.5600471 388.275200
   4601   4603   4606     1   109.5600471 388.275200
   4602   4601   4603     1   109.5600471 388.275200
   4602   4601   4604     1   108.4600466 328.025600
   4603   4601   4604     1   109.5600471 388.275200
   4603   4607   4672     1   110.1100470 384.091200
   4605   4603   4607     1   107.9000462 406.684800
   4605   4603   4606     1   108.4600466 328.025600
   4606   4603   4607     1   107.9000462 406.684800
   4607   4608   4617     1   107.9000462 406.684800
   4607   4608   4618     1   107.9000462 406.684800
   4607   4609   4610     1   107.9000462 406.684800
   4607   4609   4612     1   107.9000462 406.684800
   4608   4607   4672     1   110.1100470 384.091200
   4608   4619   4620     1   109.8000471 387.438400
   4608   4619   4621     1   109.8000471 387.438400
   4609   4607   4672     1   110.1100470 384.091200
   4609   4611   4613     1   109.8000471 387.438400
   4609   4611   4614     1   109.8000471 387.438400
   4610   4609   4611     1   109.5600471 388.275200
   4610   4609   4612     1   108.4600466 328.025600
   4611   4609   4612     1   109.5600471 388.275200
   4613   4611   4615     1   108.7700466 392.459200
   4613   4611   4614     1   107.5800459 329.699200
   4614   4611   4615     1   108.7700466 392.459200
   4615   4647   4637     1   119.3800509 410.868800
   4617   4608   4619     1   109.5600471 388.275200
   4617   4608   4618     1   108.4600466 328.025600
   4618   4608   4619     1   109.5600471 388.275200
   4620   4619   4622     1   108.7700466 392.459200
   4620   4619   4621     1   107.5800459 329.699200
   4621   4619   4622     1   108.7700466 392.459200
   4622   4671   4661     1   119.3800509 410.868800
   4624   4625   4644     1   109.5600471 388.275200
   4624   4635   4638     1   109.5600471 388.275200
   4624   4635   4639     1   109.5600471 388.275200
   4625   4624   4626     1   109.5600471 388.275200
   4625   4627   4631     1   109.5600471 388.275200
   4625   4645   4646     1   107.2600461 396.643200
   4626   4624   4635     1   109.5600471 388.275200
   4626   4624   4642     1   109.7800468 425.094400
   4627   4625   4644     1   109.5600471 388.275200
   4627   4628   4630     1   109.5600471 388.275200
   4627   4634   4636     1   107.2600461 396.643200
   4628   4627   4631     1   109.5600471 388.275200
   4628   4629   4632     1   110.2200475 386.601600
   4628   4647   4637     1   109.2900470 396.643200
   4629   4628   4630     1   109.5600471 388.275200
   4629   4633   4643     1   107.2600461 396.643200
   4630   4628   4647     1   109.8800469 414.216000
   4631   4627   4634     1   110.2600474 425.931200
   4632   4629   4633     1   109.4300470 427.604800
   4632   4629   4642     1   109.5800467 425.931200
   4635   4640   4641     1   107.2600461 396.643200
   4638   4635   4640     1   110.2600474 425.931200
   4638   4635   4639     1   108.4600466 328.025600
   4639   4635   4640     1   110.2600474 425.931200
   4644   4625   4645     1   110.2600474 425.931200
   4648   4649   4668     1   109.5600471 388.275200
   4648   4659   4662     1   109.5600471 388.275200
   4648   4659   4663     1   109.5600471 388.275200
   4649   4648   4650     1   109.5600471 388.275200
   4649   4651   4655     1   109.5600471 388.275200
   4649   4669   4670     1   107.2600461 396.643200
   4650   4648   4659     1   109.5600471 388.275200
   4650   4648   4666     1   109.7800468 425.094400
   4651   4649   4668     1   109.5600471 388.275200
   4651   4652   4654     1   109.5600471 388.275200
   4651   4658   4660     1   107.2600461 396.643200
   4652   4651   4655     1   109.5600471 388.275200
   4652   4653   4656     1   110.2200475 386.601600
   4652   4671   4661     1   109.2900470 396.643200
   4653   4652   4654     1   109.5600471 388.275200
   4653   4657   4667     1   107.2600461 396.643200
   4654   4652   4671     1   109.8800469 414.216000
   4655   4651   4658     1   110.2600474 425.931200
   4656   4653   4657     1   109.4300470 427.604800
   4656   4653   4666     1   109.5800467 425.931200
   4659   4664   4665     1   107.2600461 396.643200
   4662   4659   4664     1   110.2600474 425.931200
   4662   4659   4663     1   108.4600466 328.025600
   4663   4659   4664     1   110.2600474 425.931200
   4668   4649   4669     1   110.2600474 425.931200
   4673   4675   4676     1   108.8800464 416.726400
   4673   4675   4678     1   108.8800464 416.726400
   4674   4673   4675     1   117.6800502 383.254400
   4675   4677   4679     1   109.5600471 388.275200
   4675   4677   4680     1   109.5600471 388.275200
   4676   4675   4677     1   109.5600471 388.275200
   4676   4675   4678     1   108.4600466 328.025600
   4677   4681   4746     1   110.1100470 384.091200
   4677   4675   4678     1   109.5600471 388.275200
   4679   4677   4681     1   107.9000462 406.684800
   4679   4677   4680     1   108.4600466 328.025600
   4680   4677   4681     1   107.9000462 406.684800
   4681   4682   4691     1   107.9000462 406.684800
   4681   4682   4692     1   107.9000462 406.684800
   4681   4683   4684     1   107.9000462 406.684800
   4681   4683   4686     1   107.9000462 406.684800
   4682   4693   4694     1   109.8000471 387.438400
   4682   4693   4695     1   109.8000471 387.438400
   4682   4681   4746     1   110.1100470 384.091200
   4683   4685   4687     1   109.8000471 387.438400
   4683   4685   4688     1   109.8000471 387.438400
   4683   4681   4746     1   110.1100470 384.091200
   4684   4683   4685     1   109.5600471 388.275200
   4684   4683   4686     1   108.4600466 328.025600
   4685   4683   4686     1   109.5600471 388.275200
   4687   4685   4689     1   108.7700466 392.459200
   4687   4685   4688     1   107.5800459 329.699200
   4688   4685   4689     1   108.7700466 392.459200
   4689   4721   4711     1   119.3800509 410.868800
   4691   4682   4693     1   109.5600471 388.275200
   4691   4682   4692     1   108.4600466 328.025600
   4692   4682   4693     1   109.5600471 388.275200
   4694   4693   4696     1   108.7700466 392.459200
   4694   4693   4695     1   107.5800459 329.699200
   4695   4693   4696     1   108.7700466 392.459200
   4696   4745   4735     1   119.3800509 410.868800
   4698   4699   4718     1   109.5600471 388.275200
   4698   4709   4712     1   109.5600471 388.275200
   4698   4709   4713     1   109.5600471 388.275200
   4699   4701   4705     1   109.5600471 388.275200
   4699   4719   4720     1   107.2600461 396.643200
   4699   4698   4700     1   109.5600471 388.275200
   4700   4698   4709     1   109.5600471 388.275200
   4700   4698   4716     1   109.7800468 425.094400
   4701   4702   4704     1   109.5600471 388.275200
   4701   4708   4710     1   107.2600461 396.643200
   4701   4699   4718     1   109.5600471 388.275200
   4702   4703   4706     1   110.2200475 386.601600
   4702   4721   4711     1   109.2900470 396.643200
   4702   4701   4705     1   109.5600471 388.275200
   4703   4707   4717     1   107.2600461 396.643200
   4703   4702   4704     1   109.5600471 388.275200
   4704   4702   4721     1   109.8800469 414.216000
   4705   4701   4708     1   110.2600474 425.931200
   4706   4703   4707     1   109.4300470 427.604800
   4706   4703   4716     1   109.5800467 425.931200
   4709   4714   4715     1   107.2600461 396.643200
   4712   4709   4714     1   110.2600474 425.931200
   4712   4709   4713     1   108.4600466 328.025600
   4713   4709   4714     1   110.2600474 425.931200
   4718   4699   4719     1   110.2600474 425.931200
   4722   4723   4742     1   109.5600471 388.275200
   4722   4733   4736     1   109.5600471 388.275200
   4722   4733   4737     1   109.5600471 388.275200
   4723   4725   4729     1   109.5600471 388.275200
   4723   4743   4744     1   107.2600461 396.643200
   4723   4722   4724     1   109.5600471 388.275200
   4724   4722   4733     1   109.5600471 388.275200
   4724   4722   4740     1   109.7800468 425.094400
   4725   4726   4728     1   109.5600471 388.275200
   4725   4732   4734     1   107.2600461 396.643200
   4725   4723   4742     1   109.5600471 388.275200
   4726   4727   4730     1   110.2200475 386.601600
   4726   4745   4735     1   109.2900470 396.643200
   4726   4725   4729     1   109.5600471 388.275200
   4727   4731   4741     1   107.2600461 396.643200
   4727   4726   4728     1   109.5600471 388.275200
   4728   4726   4745     1   109.8800469 414.216000
   4729   4725   4732     1   110.2600474 425.931200
   4730   4727   4731     1   109.4300470 427.604800
   4730   4727   4740     1   109.5800467 425.931200
   4733   4738   4739     1   107.2600461 396.643200
   4736   4733   4738     1   110.2600474 425.931200
   4736   4733   4737     1   108.4600466 328.025600
   4737   4733   4738     1   110.2600474 425.931200
   4742   4723   4743     1   110.2600474 425.931200
   4747   4749   4750     1   108.8800464 416.726400
   4747   4749   4752     1   108.8800464 416.726400
   4748   4747   4749     1   117.6800502 383.254400
   4749   4751   4753     1   109.5600471 388.275200
   4749   4751   4754     1   109.5600471 388.275200
   4750   4749   4751     1   109.5600471 388.275200
   4750   4749   4752     1   108.4600466 328.025600
   4751   4749   4752     1   109.5600471 388.275200
   4751   4755   4820     1   110.1100470 384.091200
   4753   4751   4755     1   107.9000462 406.684800
   4753   4751   4754     1   108.4600466 328.025600
   4754   4751   4755     1   107.9000462 406.684800
   4755   4756   4765     1   107.9000462 406.684800
   4755   4756   4766     1   107.9000462 406.684800
   4755   4757   4758     1   107.9000462 406.684800
   4755   4757   4760     1   107.9000462 406.684800
   4756   4755   4820     1   110.1100470 384.091200
   4756   4767   4768     1   109.8000471 387.438400
   4756   4767   4769     1   109.8000471 387.438400
   4757   4755   4820     1   110.1100470 384.091200
   4757   4759   4761     1   109.8000471 387.438400
   4757   4759   4762     1   109.8000471 387.438400
   4758   4757   4759     1   109.5600471 388.275200
   4758   4757   4760     1   108.4600466 328.025600
   4759   4757   4760     1   109.5600471 388.275200
   4761   4759   4763     1   108.7700466 392.459200
   4761   4759   4762     1   107.5800459 329.699200
   4762   4759   4763     1   108.7700466 392.459200
   4763   4795   4785     1   119.3800509 410.868800
   4765   4756   4767     1   109.5600471 388.275200
   4765   4756   4766     1   108.4600466 328.025600
   4766   4756   4767     1   109.5600471 388.275200
   4768   4767   4770     1   108.7700466 392.459200
   4768   4767   4769     1   107.5800459 329.699200
   4769   4767   4770     1   108.7700466 392.459200
   4770   4819   4809     1   119.3800509 410.868800
   4772   4773   4792     1   109.5600471 388.275200
   4772   4783   4786     1   109.5600471 388.275200
   4772   4783   4787     1   109.5600471 388.275200
   4773   4772   4774     1   109.5600471 388.275200
   4773   4775   4779     1   109.5600471 388.275200
   4773   4793   4794     1   107.2600461 396.643200
   4774   4772   4783     1   109.5600471 388.275200
   4774   4772   4790     1   109.7800468 425.094400
   4775   4773   4792     1   109.5600471 388.275200
   4775   4776   4778     1   109.5600471 388.275200
   4775   4782   4784     1   107.2600461 396.643200
   4776   4775   4779     1   109.5600471 388.275200
   4776   4777   4780     1   110.2200475 386.601600
   4776   4795   4785     1   109.2900470 396.643200
   4777   4776   4778     1   109.5600471 388.275200
   4777   4781   4791     1   107.2600461 396.643200
   4778   4776   4795     1   109.8800469 414.216000
   4779   4775   4782     1   110.2600474 425.931200
   4780   4777   4781     1   109.4300470 427.604800
   4780   4777   4790     1   109.5800467 425.931200
   4783   4788   4789     1   107.2600461 396.643200
   4786   4783   4788     1   110.2600474 425.931200
   4786   4783   4787     1   108.4600466 328.025600
   4787   4783   4788     1   110.2600474 425.931200
   4792   4773   4793     1   110.2600474 425.931200
   4796   4797   4816     1   109.5600471 388.275200
   4796   4807   4810     1   109.5600471 388.275200
   4796   4807   4811     1   109.5600471 388.275200
   4797   4796   4798     1   109.5600471 388.275200
   4797   4799   4803     1   109.5600471 388.275200
   4797   4817   4818     1   107.2600461 396.643200
   4798   4796   4807     1   109.5600471 388.275200
   4798   4796   4814     1   109.7800468 425.094400
   4799   4797   4816     1   109.5600471 388.275200
   4799   4800   4802     1   109.5600471 388.275200
   4799   4806   4808     1   107.2600461 396.643200
   4800   4799   4803     1   109.5600471 388.275200
   4800   4801   4804     1   110.2200475 386.601600
   4800   4819   4809     1   109.2900470 396.643200
   4801   4800   4802     1   109.5600471 388.275200
   4801   4805   4815     1   107.2600461 396.643200
   4802   4800   4819     1   109.8800469 414.216000
   4803   4799   4806     1   110.2600474 425.931200
   4804   4801   4805     1   109.4300470 427.604800
   4804   4801   4814     1   109.5800467 425.931200
   4807   4812   4813     1   107.2600461 396.643200
   4810   4807   4812     1   110.2600474 425.931200
   4810   4807   4811     1   108.4600466 328.025600
   4811   4807   4812     1   110.2600474 425.931200
   4816   4797   4817     1   110.2600474 425.931200
   4821   4823   4824     1   108.8800464 416.726400
   4821   4823   4826     1   108.8800464 416.726400
   4822   4821   4823     1   117.6800502 383.254400
   4823   4825   4827     1   109.5600471 388.275200
   4823   4825   4828     1   109.5600471 388.275200
   4824   4823   4825     1   109.5600471 388.275200
   4824   4823   4826     1   108.4600466 328.025600
   4825   4829   4894     1   110.1100470 384.091200
   4825   4823   4826     1   109.5600471 388.275200
   4827   4825   4829     1   107.9000462 406.684800
   4827   4825   4828     1   108.4600466 328.025600
   4828   4825   4829     1   107.9000462 406.684800
   4829   4830   4839     1   107.9000462 406.684800
   4829   4830   4840     1   107.9000462 406.684800
   4829   4831   4832     1   107.9000462 406.684800
   4829   4831   4834     1   107.9000462 406.684800
   4830   4841   4842     1   109.8000471 387.438400
   4830   4841   4843     1   109.8000471 387.438400
   4830   4829   4894     1   110.1100470 384.091200
   4831   4833   4835     1   109.8000471 387.438400
   4831   4833   4836     1   109.8000471 387.438400
   4831   4829   4894     1   110.1100470 384.091200
   4832   4831   4833     1   109.5600471 388.275200
   4832   4831   4834     1   108.4600466 328.025600
   4833   4831   4834     1   109.5600471 388.275200
   4835   4833   4837     1   108.7700466 392.459200
   4835   4833   4836     1   107.5800459 329.699200
   4836   4833   4837     1   108.7700466 392.459200
   4837   4869   4859     1   119.3800509 410.868800
   4839   4830   4841     1   109.5600471 388.275200
   4839   4830   4840     1   108.4600466 328.025600
   4840   4830   4841     1   109.5600471 388.275200
   4842   4841   4844     1   108.7700466 392.459200
   4842   4841   4843     1   107.5800459 329.699200
   4843   4841   4844     1   108.7700466 392.459200
   4844   4893   4883     1   119.3800509 410.868800
   4846   4847   4866     1   109.5600471 388.275200
   4846   4857   4860     1   109.5600471 388.275200
   4846   4857   4861     1   109.5600471 388.275200
   4847   4849   4853     1   109.5600471 388.275200
   4847   4867   4868     1   107.2600461 396.643200
   4847   4846   4848     1   109.5600471 388.275200
   4848   4846   4857     1   109.5600471 388.275200
   4848   4846   4864     1   109.7800468 425.094400
   4849   4850   4852     1   109.5600471 388.275200
   4849   4856   4858     1   107.2600461 396.643200
   4849   4847   4866     1   109.5600471 388.275200
   4850   4851   4854     1   110.2200475 386.601600
   4850   4869   4859     1   109.2900470 396.643200
   4850   4849   4853     1   109.5600471 388.275200
   4851   4855   4865     1   107.2600461 396.643200
   4851   4850   4852     1   109.5600471 388.275200
   4852   4850   4869     1   109.8800469 414.216000
   4853   4849   4856     1   110.2600474 425.931200
   4854   4851   4855     1   109.4300470 427.604800
   4854   4851   4864     1   109.5800467 425.931200
   4857   4862   4863     1   107.2600461 396.643200
   4860   4857   4862     1   110.2600474 425.931200
   4860   4857   4861     1   108.4600466 328.025600
   4861   4857   4862     1   110.2600474 425.931200
   4866   4847   4867     1   110.2600474 425.931200
   4870   4871   4890     1   109.5600471 388.275200
   4870   4881   4884     1   109.5600471 388.275200
   4870   4881   4885     1   109.5600471 388.275200
   4871   4873   4877     1   109.5600471 388.275200
   4871   4891   4892     1   107.2600461 396.643200
   4871   4870   4872     1   109.5600471 388.275200
   4872   4870   4881     1   109.5600471 388.275200
   4872   4870   4888     1   109.7800468 425.094400
   4873   4874   4876     1   109.5600471 388.275200
   4873   4880   4882     1   107.2600461 396.643200
   4873   4871   4890     1   109.5600471 388.275200
   4874   4875   4878     1   110.2200475 386.601600
   4874   4893   4883     1   109.2900470 396.643200
   4874   4873   4877     1   109.5600471 388.275200
   4875   4879   4889     1   107.2600461 396.643200
   4875   4874   4876     1   109.5600471 388.275200
   4876   4874   4893     1   109.8800469 414.216000
   4877   4873   4880     1   110.2600474 425.931200
   4878   4875   4879     1   109.4300470 427.604800
   4878   4875   4888     1   109.5800467 425.931200
   4881   4886   4887     1   107.2600461 396.643200
   4884   4881   4886     1   110.2600474 425.931200
   4884   4881   4885     1   108.4600466 328.025600
   4885   4881   4886     1   110.2600474 425.931200
   4890   4871   4891     1   110.2600474 425.931200
   4895   4897   4898     1   108.8800464 416.726400
   4895   4897   4900     1   108.8800464 416.726400
   4896   4895   4897     1   117.6800502 383.254400
   4897   4899   4901     1   109.5600471 388.275200
   4897   4899   4902     1   109.5600471 388.275200
   4898   4897   4899     1   109.5600471 388.275200
   4898   4897   4900     1   108.4600466 328.025600
   4899   4897   4900     1   109.5600471 388.275200
   4899   4903   4968     1   110.1100470 384.091200
   4901   4899   4903     1   107.9000462 406.684800
   4901   4899   4902     1   108.4600466 328.025600
   4902   4899   4903     1   107.9000462 406.684800
   4903   4904   4913     1   107.9000462 406.684800
   4903   4904   4914     1   107.9000462 406.684800
   4903   4905   4906     1   107.9000462 406.684800
   4903   4905   4908     1   107.9000462 406.684800
   4904   4903   4968     1   110.1100470 384.091200
   4904   4915   4916     1   109.8000471 387.438400
   4904   4915   4917     1   109.8000471 387.438400
   4905   4903   4968     1   110.1100470 384.091200
   4905   4907   4909     1   109.8000471 387.438400
   4905   4907   4910     1   109.8000471 387.438400
   4906   4905   4907     1   109.5600471 388.275200
   4906   4905   4908     1   108.4600466 328.025600
   4907   4905   4908     1   109.5600471 388.275200
   4909   4907   4911     1   108.7700466 392.459200
   4909   4907   4910     1   107.5800459 329.699200
   4910   4907   4911     1   108.7700466 392.459200
   4911   4943   4933     1   119.3800509 410.868800
   4913   4904   4915     1   109.5600471 388.275200
   4913   4904   4914     1   108.4600466 328.025600
   4914   4904   4915     1   109.5600471 388.275200
   4916   4915   4918     1   108.7700466 392.459200
   4916   4915   4917     1   107.5800459 329.699200
   4917   4915   4918     1   108.7700466 392.459200
   4918   4967   4957     1   119.3800509 410.868800
   4920   4921   4940     1   109.5600471 388.275200
   4920   4931   4934     1   109.5600471 388.275200
   4920   4931   4935     1   109.5600471 388.275200
   4921   4920   4922     1   109.5600471 388.275200
   4921   4923   4927     1   109.5600471 388.275200
   4921   4941   4942     1   107.2600461 396.643200
   4922   4920   4931     1   109.5600471 388.275200
   4922   4920   4938     1   109.7800468 425.094400
   4923   4921   4940     1   109.5600471 388.275200
   4923   4924   4926     1   109.5600471 388.275200
   4923   4930   4932     1   107.2600461 396.643200
   4924   4923   4927     1   109.5600471 388.275200
   4924   4925   4928     1   110.2200475 386.601600
   4924   4943   4933     1   109.2900470 396.643200
   4925   4924   4926     1   109.5600471 388.275200
   4925   4929   4939     1   107.2600461 396.643200
   4926   4924   4943     1   109.8800469 414.216000
   4927   4923   4930     1   110.2600474 425.931200
   4928   4925   4929     1   109.4300470 427.604800
   4928   4925   4938     1   109.5800467 425.931200
   4931   4936   4937     1   107.2600461 396.643200
   4934   4931   4936     1   110.2600474 425.931200
   4934   4931   4935     1   108.4600466 328.025600
   4935   4931   4936     1   110.2600474 425.931200
   4940   4921   4941     1   110.2600474 425.931200
   4944   4945   4964     1   109.5600471 388.275200
   4944   4955   4958     1   109.5600471 388.275200
   4944   4955   4959     1   109.5600471 388.275200
   4945   4944   4946     1   109.5600471 388.275200
   4945   4947   4951     1   109.5600471 388.275200
   4945   4965   4966     1   107.2600461 396.643200
   4946   4944   4955     1   109.5600471 388.275200
   4946   4944   4962     1   109.7800468 425.094400
   4947   4945   4964     1   109.5600471 388.275200
   4947   4948   4950     1   109.5600471 388.275200
   4947   4954   4956     1   107.2600461 396.643200
   4948   4947   4951     1   109.5600471 388.275200
   4948   4949   4952     1   110.2200475 386.601600
   4948   4967   4957     1   109.2900470 396.643200
   4949   4948   4950     1   109.5600471 388.275200
   4949   4953   4963     1   107.2600461 396.643200
   4950   4948   4967     1   109.8800469 414.216000
   4951   4947   4954     1   110.2600474 425.931200
   4952   4949   4953     1   109.4300470 427.604800
   4952   4949   4962     1   109.5800467 425.931200
   4955   4960   4961     1   107.2600461 396.643200
   4958   4955   4960     1   110.2600474 425.931200
   4958   4955   4959     1   108.4600466 328.025600
   4959   4955   4960     1   110.2600474 425.931200
   4964   4945   4965     1   110.2600474 425.931200
   4969   4971   4972     1   108.8800464 416.726400
   4969   4971   4974     1   108.8800464 416.726400
   4970   4969   4971     1   117.6800502 383.254400
   4971   4973   4975     1   109.5600471 388.275200
   4971   4973   4976     1   109.5600471 388.275200
   4972   4971   4973     1   109.5600471 388.275200
   4972   4971   4974     1   108.4600466 328.025600
   4973   4977   5042     1   110.1100470 384.091200
   4973   4971   4974     1   109.5600471 388.275200
   4975   4973   4977     1   107.9000462 406.684800
   4975   4973   4976     1   108.4600466 328.025600
   4976   4973   4977     1   107.9000462 406.684800
   4977   4978   4987     1   107.9000462 406.684800
   4977   4978   4988     1   107.9000462 406.684800
   4977   4979   4980     1   107.9000462 406.684800
   4977   4979   4982     1   107.9000462 406.684800
   4978   4989   4990     1   109.8000471 387.438400
   4978   4989   4991     1   109.8000471 387.438400
   4978   4977   5042     1   110.1100470 384.091200
   4979   4981   4983     1   109.8000471 387.438400
   4979   4981   4984     1   109.8000471 387.438400
   4979   4977   5042     1   110.1100470 384.091200
   4980   4979   4981     1   109.5600471 388.275200
   4980   4979   4982     1   108.4600466 328.025600
   4981   4979   4982     1   109.5600471 388.275200
   4983   4981   4985     1   108.7700466 392.459200
   4983   4981   4984     1   107.5800459 329.699200
   4984   4981   4985     1   108.7700466 392.459200
   4985   5017   5007     1   119.3800509 410.868800
   4987   4978   4989     1   109.5600471 388.275200
   4987   4978   4988     1   108.4600466 328.025600
   4988   4978   4989     1   109.5600471 388.275200
   4990   4989   4992     1   108.7700466 392.459200
   4990   4989   4991     1   107.5800459 329.699200
   4991   4989   4992     1   108.7700466 392.459200
   4992   5041   5031     1   119.3800509 410.868800
   4994   4995   5014     1   109.5600471 388.275200
   4994   5005   5008     1   109.5600471 388.275200
   4994   5005   5009     1   109.5600471 388.275200
   4995   4997   5001     1   109.5600471 388.275200
   4995   5015   5016     1   107.2600461 396.643200
   4995   4994   4996     1   109.5600471 388.275200
   4996   4994   5005     1   109.5600471 388.275200
   4996   4994   5012     1   109.7800468 425.094400
   4997   4998   5000     1   109.5600471 388.275200
   4997   5004   5006     1   107.2600461 396.643200
   4997   4995   5014     1   109.5600471 388.275200
   4998   4999   5002     1   110.2200475 386.601600
   4998   5017   5007     1   109.2900470 396.643200
   4998   4997   5001     1   109.5600471 388.275200
   4999   5003   5013     1   107.2600461 396.643200
   4999   4998   5000     1   109.5600471 388.275200
   5000   4998   5017     1   109.8800469 414.216000
   5001   4997   5004     1   110.2600474 425.931200
   5002   4999   5003     1   109.4300470 427.604800
   5002   4999   5012     1   109.5800467 425.931200
   5005   5010   5011     1   107.2600461 396.643200
   5008   5005   5010     1   110.2600474 425.931200
   5008   5005   5009     1   108.4600466 328.025600
   5009   5005   5010     1   110.2600474 425.931200
   5014   4995   5015     1   110.2600474 425.931200
   5018   5019   5038     1   109.5600471 388.275200
   5018   5029   5032     1   109.5600471 388.275200
   5018   5029   5033     1   109.5600471 388.275200
   5019   5021   5025     1   109.5600471 388.275200
   5019   5039   5040     1   107.2600461 396.643200
   5019   5018   5020     1   109.5600471 388.275200
   5020   5018   5029     1   109.5600471 388.275200
   5020   5018   5036     1   109.7800468 425.094400
   5021   5022   5024     1   109.5600471 388.275200
   5021   5028   5030     1   107.2600461 396.643200
   5021   5019   5038     1   109.5600471 388.275200
   5022   5023   5026     1   110.2200475 386.601600
   5022   5041   5031     1   109.2900470 396.643200
   5022   5021   5025     1   109.5600471 388.275200
   5023   5027   5037     1   107.2600461 396.643200
   5023   5022   5024     1   109.5600471 388.275200
   5024   5022   5041     1   109.8800469 414.216000
   5025   5021   5028     1   110.2600474 425.931200
   5026   5023   5027     1   109.4300470 427.604800
   5026   5023   5036     1   109.5800467 425.931200
   5029   5034   5035     1   107.2600461 396.643200
   5032   5029   5034     1   110.2600474 425.931200
   5032   5029   5033     1   108.4600466 328.025600
   5033   5029   5034     1   110.2600474 425.931200
   5038   5019   5039     1   110.2600474 425.931200
   5043   5045   5046     1   108.8800464 416.726400
   5043   5045   5048     1   108.8800464 416.726400
   5044   5043   5045     1   117.6800502 383.254400
   5045   5047   5049     1   109.5600471 388.275200
   5045   5047   5050     1   109.5600471 388.275200
   5046   5045   5047     1   109.5600471 388.275200
   5046   5045   5048     1   108.4600466 328.025600
   5047   5045   5048     1   109.5600471 388.275200
   5047   5051   5116     1   110.1100470 384.091200
   5049   5047   5051     1   107.9000462 406.684800
   5049   5047   5050     1   108.4600466 328.025600
   5050   5047   5051     1   107.9000462 406.684800
   5051   5052   5061     1   107.9000462 406.684800
   5051   5052   5062     1   107.9000462 406.684800
   5051   5053   5054     1   107.9000462 406.684800
   5051   5053   5056     1   107.9000462 406.684800
   5052   5051   5116     1   110.1100470 384.091200
   5052   5063   5064     1   109.8000471 387.438400
   5052   5063   5065     1   109.8000471 387.438400
   5053   5051   5116     1   110.1100470 384.091200
   5053   5055   5057     1   109.8000471 387.438400
   5053   5055   5058     1   109.8000471 387.438400
   5054   5053   5055     1   109.5600471 388.275200
   5054   5053   5056     1   108.4600466 328.025600
   5055   5053   5056     1   109.5600471 388.275200
   5057   5055   5059     1   108.7700466 392.459200
   5057   5055   5058     1   107.5800459 329.699200
   5058   5055   5059     1   108.7700466 392.459200
   5059   5091   5081     1   119.3800509 410.868800
   5061   5052   5063     1   109.5600471 388.275200
   5061   5052   5062     1   108.4600466 328.025600
   5062   5052   5063     1   109.5600471 388.275200
   5064   5063   5066     1   108.7700466 392.459200
   5064   5063   5065     1   107.5800459 329.699200
   5065   5063   5066     1   108.7700466 392.459200
   5066   5115   5105     1   119.3800509 410.868800
   5068   5069   5088     1   109.5600471 388.275200
   5068   5079   5082     1   109.5600471 388.275200
   5068   5079   5083     1   109.5600471 388.275200
   5069   5068   5070     1   109.5600471 388.275200
   5069   5071   5075     1   109.5600471 388.275200
   5069   5089   5090     1   107.2600461 396.643200
   5070   5068   5079     1   109.5600471 388.275200
   5070   5068   5086     1   109.7800468 425.094400
   5071   5069   5088     1   109.5600471 388.275200
   5071   5072   5074     1   109.5600471 388.275200
   5071   5078   5080     1   107.2600461 396.643200
   5072   5071   5075     1   109.5600471 388.275200
   5072   5073   5076     1   110.2200475 386.601600
   5072   5091   5081     1   109.2900470 396.643200
   5073   5072   5074     1   109.5600471 388.275200
   5073   5077   5087     1   107.2600461 396.643200
   5074   5072   5091     1   109.8800469 414.216000
   5075   5071   5078     1   110.2600474 425.931200
   5076   5073   5077     1   109.4300470 427.604800
   5076   5073   5086     1   109.5800467 425.931200
   5079   5084   5085     1   107.2600461 396.643200
   5082   5079   5084     1   110.2600474 425.931200
   5082   5079   5083     1   108.4600466 328.025600
   5083   5079   5084     1   110.2600474 425.931200
   5088   5069   5089     1   110.2600474 425.931200
   5092   5093   5112     1   109.5600471 388.275200
   5092   5103   5106     1   109.5600471 388.275200
   5092   5103   5107     1   109.5600471 388.275200
   5093   5092   5094     1   109.5600471 388.275200
   5093   5095   5099     1   109.5600471 388.275200
   5093   5113   5114     1   107.2600461 396.643200
   5094   5092   5103     1   109.5600471 388.275200
   5094   5092   5110     1   109.7800468 425.094400
   5095   5093   5112     1   109.5600471 388.275200
   5095   5096   5098     1   109.5600471 388.275200
   5095   5102   5104     1   107.2600461 396.643200
   5096   5095   5099     1   109.5600471 388.275200
   5096   5097   5100     1   110.2200475 386.601600
   5096   5115   5105     1   109.2900470 396.643200
   5097   5096   5098     1   109.5600471 388.275200
   5097   5101   5111     1   107.2600461 396.643200
   5098   5096   5115     1   109.8800469 414.216000
   5099   5095   5102     1   110.2600474 425.931200
   5100   5097   5101     1   109.4300470 427.604800
   5100   5097   5110     1   109.5800467 425.931200
   5103   5108   5109     1   107.2600461 396.643200
   5106   5103   5108     1   110.2600474 425.931200
   5106   5103   5107     1   108.4600466 328.025600
   5107   5103   5108     1   110.2600474 425.931200
   5112   5093   5113     1   110.2600474 425.931200
   5117   5119   5120     1   108.8800464 416.726400
   5117   5119   5122     1   108.8800464 416.726400
   5118   5117   5119     1   117.6800502 383.254400
   5119   5121   5123     1   109.5600471 388.275200
   5119   5121   5124     1   109.5600471 388.275200
   5120   5119   5121     1   109.5600471 388.275200
   5120   5119   5122     1   108.4600466 328.025600
   5121   5125   5190     1   110.1100470 384.091200
   5121   5119   5122     1   109.5600471 388.275200
   5123   5121   5125     1   107.9000462 406.684800
   5123   5121   5124     1   108.4600466 328.025600
   5124   5121   5125     1   107.9000462 406.684800
   5125   5126   5135     1   107.9000462 406.684800
   5125   5126   5136     1   107.9000462 406.684800
   5125   5127   5128     1   107.9000462 406.684800
   5125   5127   5130     1   107.9000462 406.684800
   5126   5137   5138     1   109.8000471 387.438400
   5126   5137   5139     1   109.8000471 387.438400
   5126   5125   5190     1   110.1100470 384.091200
   5127   5129   5131     1   109.8000471 387.438400
   5127   5129   5132     1   109.8000471 387.438400
   5127   5125   5190     1   110.1100470 384.091200
   5128   5127   5129     1   109.5600471 388.275200
   5128   5127   5130     1   108.4600466 328.025600
   5129   5127   5130     1   109.5600471 388.275200
   5131   5129   5133     1   108.7700466 392.459200
   5131   5129   5132     1   107.5800459 329.699200
   5132   5129   5133     1   108.7700466 392.459200
   5133   5165   5155     1   119.3800509 410.868800
   5135   5126   5137     1   109.5600471 388.275200
   5135   5126   5136     1   108.4600466 328.025600
   5136   5126   5137     1   109.5600471 388.275200
   5138   5137   5140     1   108.7700466 392.459200
   5138   5137   5139     1   107.5800459 329.699200
   5139   5137   5140     1   108.7700466 392.459200
   5140   5189   5179     1   119.3800509 410.868800
   5142   5143   5162     1   109.5600471 388.275200
   5142   5153   5156     1   109.5600471 388.275200
   5142   5153   5157     1   109.5600471 388.275200
   5143   5145   5149     1   109.5600471 388.275200
   5143   5163   5164     1   107.2600461 396.643200
   5143   5142   5144     1   109.5600471 388.275200
   5144   5142   5153     1   109.5600471 388.275200
   5144   5142   5160     1   109.7800468 425.094400
   5145   5146   5148     1   109.5600471 388.275200
   5145   5152   5154     1   107.2600461 396.643200
   5145   5143   5162     1   109.5600471 388.275200
   5146   5147   5150     1   110.2200475 386.601600
   5146   5165   5155     1   109.2900470 396.643200
   5146   5145   5149     1   109.5600471 388.275200
   5147   5151   5161     1   107.2600461 396.643200
   5147   5146   5148     1   109.5600471 388.275200
   5148   5146   5165     1   109.8800469 414.216000
   5149   5145   5152     1   110.2600474 425.931200
   5150   5147   5151     1   109.4300470 427.604800
   5150   5147   5160     1   109.5800467 425.931200
   5153   5158   5159     1   107.2600461 396.643200
   5156   5153   5158     1   110.2600474 425.931200
   5156   5153   5157     1   108.4600466 328.025600
   5157   5153   5158     1   110.2600474 425.931200
   5162   5143   5163     1   110.2600474 425.931200
   5166   5167   5186     1   109.5600471 388.275200
   5166   5177   5180     1   109.5600471 388.275200
   5166   5177   5181     1   109.5600471 388.275200
   5167   5169   5173     1   109.5600471 388.275200
   5167   5187   5188     1   107.2600461 396.643200
   5167   5166   5168     1   109.5600471 388.275200
   5168   5166   5177     1   109.5600471 388.275200
   5168   5166   5184     1   109.7800468 425.094400
   5169   5170   5172     1   109.5600471 388.275200
   5169   5176   5178     1   107.2600461 396.643200
   5169   5167   5186     1   109.5600471 388.275200
   5170   5171   5174     1   110.2200475 386.601600
   5170   5189   5179     1   109.2900470 396.643200
   5170   5169   5173     1   109.5600471 388.275200
   5171   5175   5185     1   107.2600461 396.643200
   5171   5170   5172     1   109.5600471 388.275200
   5172   5170   5189     1   109.8800469 414.216000
   5173   5169   5176     1   110.2600474 425.931200
   5174   5171   5175     1   109.4300470 427.604800
   5174   5171   5184     1   109.5800467 425.931200
   5177   5182   5183     1   107.2600461 396.643200
   5180   5177   5182     1   110.2600474 425.931200
   5180   5177   5181     1   108.4600466 328.025600
   5181   5177   5182     1   110.2600474 425.931200
   5186   5167   5187     1   110.2600474 425.931200
   5191   5193   5194     1   108.8800464 416.726400
   5191   5193   5196     1   108.8800464 416.726400
   5192   5191   5193     1   117.6800502 383.254400
   5193   5195   5197     1   109.5600471 388.275200
   5193   5195   5198     1   109.5600471 388.275200
   5194   5193   5195     1   109.5600471 388.275200
   5194   5193   5196     1   108.4600466 328.025600
   5195   5193   5196     1   109.5600471 388.275200
   5195   5199   5264     1   110.1100470 384.091200
   5197   5195   5199     1   107.9000462 406.684800
   5197   5195   5198     1   108.4600466 328.025600
   5198   5195   5199     1   107.9000462 406.684800
   5199   5200   5209     1   107.9000462 406.684800
   5199   5200   5210     1   107.9000462 406.684800
   5199   5201   5202     1   107.9000462 406.684800
   5199   5201   5204     1   107.9000462 406.684800
   5200   5199   5264     1   110.1100470 384.091200
   5200   5211   5212     1   109.8000471 387.438400
   5200   5211   5213     1   109.8000471 387.438400
   5201   5199   5264     1   110.1100470 384.091200
   5201   5203   5205     1   109.8000471 387.438400
   5201   5203   5206     1   109.8000471 387.438400
   5202   5201   5203     1   109.5600471 388.275200
   5202   5201   5204     1   108.4600466 328.025600
   5203   5201   5204     1   109.5600471 388.275200
   5205   5203   5207     1   108.7700466 392.459200
   5205   5203   5206     1   107.5800459 329.699200
   5206   5203   5207     1   108.7700466 392.459200
   5207   5239   5229     1   119.3800509 410.868800
   5209   5200   5211     1   109.5600471 388.275200
   5209   5200   5210     1   108.4600466 328.025600
   5210   5200   5211     1   109.5600471 388.275200
   5212   5211   5214     1   108.7700466 392.459200
   5212   5211   5213     1   107.5800459 329.699200
   5213   5211   5214     1   108.7700466 392.459200
   5214   5263   5253     1   119.3800509 410.868800
   5216   5217   5236     1   109.5600471 388.275200
   5216   5227   5230     1   109.5600471 388.275200
   5216   5227   5231     1   109.5600471 388.275200
   5217   5216   5218     1   109.5600471 388.275200
   5217   5219   5223     1   109.5600471 388.275200
   5217   5237   5238     1   107.2600461 396.643200
   5218   5216   5227     1   109.5600471 388.275200
   5218   5216   5234     1   109.7800468 425.094400
   5219   5217   5236     1   109.5600471 388.275200
   5219   5220   5222     1   109.5600471 388.275200
   5219   5226   5228     1   107.2600461 396.643200
   5220   5219   5223     1   109.5600471 388.275200
   5220   5221   5224     1   110.2200475 386.601600
   5220   5239   5229     1   109.2900470 396.643200
   5221   5220   5222     1   109.5600471 388.275200
   5221   5225   5235     1   107.2600461 396.643200
   5222   5220   5239     1   109.8800469 414.216000
   5223   5219   5226     1   110.2600474 425.931200
   5224   5221   5225     1   109.4300470 427.604800
   5224   5221   5234     1   109.5800467 425.931200
   5227   5232   5233     1   107.2600461 396.643200
   5230   5227   5232     1   110.2600474 425.931200
   5230   5227   5231     1   108.4600466 328.025600
   5231   5227   5232     1   110.2600474 425.931200
   5236   5217   5237     1   110.2600474 425.931200
   5240   5241   5260     1   109.5600471 388.275200
   5240   5251   5254     1   109.5600471 388.275200
   5240   5251   5255     1   109.5600471 388.275200
   5241   5240   5242     1   109.5600471 388.275200
   5241   5243   5247     1   109.5600471 388.275200
   5241   5261   5262     1   107.2600461 396.643200
   5242   5240   5251     1   109.5600471 388.275200
   5242   5240   5258     1   109.7800468 425.094400
   5243   5241   5260     1   109.5600471 388.275200
   5243   5244   5246     1   109.5600471 388.275200
   5243   5250   5252     1   107.2600461 396.643200
   5244   5243   5247     1   109.5600471 388.275200
   5244   5245   5248     1   110.2200475 386.601600
   5244   5263   5253     1   109.2900470 396.643200
   5245   5244   5246     1   109.5600471 388.275200
   5245   5249   5259     1   107.2600461 396.643200
   5246   5244   5263     1   109.8800469 414.216000
   5247   5243   5250     1   110.2600474 425.931200
   5248   5245   5249     1   109.4300470 427.604800
   5248   5245   5258     1   109.5800467 425.931200
   5251   5256   5257     1   107.2600461 396.643200
   5254   5251   5256     1   110.2600474 425.931200
   5254   5251   5255     1   108.4600466 328.025600
   5255   5251   5256     1   110.2600474 425.931200
   5260   5241   5261     1   110.2600474 425.931200
   5265   5267   5268     1   108.8800464 416.726400
   5265   5267   5270     1   108.8800464 416.726400
   5266   5265   5267     1   117.6800502 383.254400
   5267   5269   5271     1   109.5600471 388.275200
   5267   5269   5272     1   109.5600471 388.275200
   5268   5267   5269     1   109.5600471 388.275200
   5268   5267   5270     1   108.4600466 328.025600
   5269   5273   5338     1   110.1100470 384.091200
   5269   5267   5270     1   109.5600471 388.275200
   5271   5269   5273     1   107.9000462 406.684800
   5271   5269   5272     1   108.4600466 328.025600
   5272   5269   5273     1   107.9000462 406.684800
   5273   5274   5283     1   107.9000462 406.684800
   5273   5274   5284     1   107.9000462 406.684800
   5273   5275   5276     1   107.9000462 406.684800
   5273   5275   5278     1   107.9000462 406.684800
   5274   5285   5286     1   109.8000471 387.438400
   5274   5285   5287     1   109.8000471 387.438400
   5274   5273   5338     1   110.1100470 384.091200
   5275   5277   5279     1   109.8000471 387.438400
   5275   5277   5280     1   109.8000471 387.438400
   5275   5273   5338     1   110.1100470 384.091200
   5276   5275   5277     1   109.5600471 388.275200
   5276   5275   5278     1   108.4600466 328.025600
   5277   5275   5278     1   109.5600471 388.275200
   5279   5277   5281     1   108.7700466 392.459200
   5279   5277   5280     1   107.5800459 329.699200
   5280   5277   5281     1   108.7700466 392.459200
   5281   5313   5303     1   119.3800509 410.868800
   5283   5274   5285     1   109.5600471 388.275200
   5283   5274   5284     1   108.4600466 328.025600
   5284   5274   5285     1   109.5600471 388.275200
   5286   5285   5288     1   108.7700466 392.459200
   5286   5285   5287     1   107.5800459 329.699200
   5287   5285   5288     1   108.7700466 392.459200
   5288   5337   5327     1   119.3800509 410.868800
   5290   5291   5310     1   109.5600471 388.275200
   5290   5301   5304     1   109.5600471 388.275200
   5290   5301   5305     1   109.5600471 388.275200
   5291   5293   5297     1   109.5600471 388.275200
   5291   5311   5312     1   107.2600461 396.643200
   5291   5290   5292     1   109.5600471 388.275200
   5292   5290   5301     1   109.5600471 388.275200
   5292   5290   5308     1   109.7800468 425.094400
   5293   5294   5296     1   109.5600471 388.275200
   5293   5300   5302     1   107.2600461 396.643200
   5293   5291   5310     1   109.5600471 388.275200
   5294   5295   5298     1   110.2200475 386.601600
   5294   5313   5303     1   109.2900470 396.643200
   5294   5293   5297     1   109.5600471 388.275200
   5295   5299   5309     1   107.2600461 396.643200
   5295   5294   5296     1   109.5600471 388.275200
   5296   5294   5313     1   109.8800469 414.216000
   5297   5293   5300     1   110.2600474 425.931200
   5298   5295   5299     1   109.4300470 427.604800
   5298   5295   5308     1   109.5800467 425.931200
   5301   5306   5307     1   107.2600461 396.643200
   5304   5301   5306     1   110.2600474 425.931200
   5304   5301   5305     1   108.4600466 328.025600
   5305   5301   5306     1   110.2600474 425.931200
   5310   5291   5311     1   110.2600474 425.931200
   5314   5315   5334     1   109.5600471 388.275200
   5314   5325   5328     1   109.5600471 388.275200
   5314   5325   5329     1   109.5600471 388.275200
   5315   5317   5321     1   109.5600471 388.275200
   5315   5335   5336     1   107.2600461 396.643200
   5315   5314   5316     1   109.5600471 388.275200
   5316   5314   5325     1   109.5600471 388.275200
   5316   5314   5332     1   109.7800468 425.094400
   5317   5318   5320     1   109.5600471 388.275200
   5317   5324   5326     1   107.2600461 396.643200
   5317   5315   5334     1   109.5600471 388.275200
   5318   5319   5322     1   110.2200475 386.601600
   5318   5337   5327     1   109.2900470 396.643200
   5318   5317   5321     1   109.5600471 388.275200
   5319   5323   5333     1   107.2600461 396.643200
   5319   5318   5320     1   109.5600471 388.275200
   5320   5318   5337     1   109.8800469 414.216000
   5321   5317   5324     1   110.2600474 425.931200
   5322   5319   5323     1   109.4300470 427.604800
   5322   5319   5332     1   109.5800467 425.931200
   5325   5330   5331     1   107.2600461 396.643200
   5328   5325   5330     1   110.2600474 425.931200
   5328   5325   5329     1   108.4600466 328.025600
   5329   5325   5330     1   110.2600474 425.931200
   5334   5315   5335     1   110.2600474 425.931200
   5339   5341   5342     1   108.8800464 416.726400
   5339   5341   5344     1   108.8800464 416.726400
   5340   5339   5341     1   117.6800502 383.254400
   5341   5343   5345     1   109.5600471 388.275200
   5341   5343   5346     1   109.5600471 388.275200
   5342   5341   5343     1   109.5600471 388.275200
   5342   5341   5344     1   108.4600466 328.025600
   5343   5341   5344     1   109.5600471 388.275200
   5343   5347   5412     1   110.1100470 384.091200
   5345   5343   5347     1   107.9000462 406.684800
   5345   5343   5346     1   108.4600466 328.025600
   5346   5343   5347     1   107.9000462 406.684800
   5347   5348   5357     1   107.9000462 406.684800
   5347   5348   5358     1   107.9000462 406.684800
   5347   5349   5350     1   107.9000462 406.684800
   5347   5349   5352     1   107.9000462 406.684800
   5348   5347   5412     1   110.1100470 384.091200
   5348   5359   5360     1   109.8000471 387.438400
   5348   5359   5361     1   109.8000471 387.438400
   5349   5347   5412     1   110.1100470 384.091200
   5349   5351   5353     1   109.8000471 387.438400
   5349   5351   5354     1   109.8000471 387.438400
   5350   5349   5351     1   109.5600471 388.275200
   5350   5349   5352     1   108.4600466 328.025600
   5351   5349   5352     1   109.5600471 388.275200
   5353   5351   5355     1   108.7700466 392.459200
   5353   5351   5354     1   107.5800459 329.699200
   5354   5351   5355     1   108.7700466 392.459200
   5355   5387   5377     1   119.3800509 410.868800
   5357   5348   5359     1   109.5600471 388.275200
   5357   5348   5358     1   108.4600466 328.025600
   5358   5348   5359     1   109.5600471 388.275200
   5360   5359   5362     1   108.7700466 392.459200
   5360   5359   5361     1   107.5800459 329.699200
   5361   5359   5362     1   108.7700466 392.459200
   5362   5411   5401     1   119.3800509 410.868800
   5364   5365   5384     1   109.5600471 388.275200
   5364   5375   5378     1   109.5600471 388.275200
   5364   5375   5379     1   109.5600471 388.275200
   5365   5364   5366     1   109.5600471 388.275200
   5365   5367   5371     1   109.5600471 388.275200
   5365   5385   5386     1   107.2600461 396.643200
   5366   5364   5375     1   109.5600471 388.275200
   5366   5364   5382     1   109.7800468 425.094400
   5367   5365   5384     1   109.5600471 388.275200
   5367   5368   5370     1   109.5600471 388.275200
   5367   5374   5376     1   107.2600461 396.643200
   5368   5367   5371     1   109.5600471 388.275200
   5368   5369   5372     1   110.2200475 386.601600
   5368   5387   5377     1   109.2900470 396.643200
   5369   5368   5370     1   109.5600471 388.275200
   5369   5373   5383     1   107.2600461 396.643200
   5370   5368   5387     1   109.8800469 414.216000
   5371   5367   5374     1   110.2600474 425.931200
   5372   5369   5373     1   109.4300470 427.604800
   5372   5369   5382     1   109.5800467 425.931200
   5375   5380   5381     1   107.2600461 396.643200
   5378   5375   5380     1   110.2600474 425.931200
   5378   5375   5379     1   108.4600466 328.025600
   5379   5375   5380     1   110.2600474 425.931200
   5384   5365   5385     1   110.2600474 425.931200
   5388   5389   5408     1   109.5600471 388.275200
   5388   5399   5402     1   109.5600471 388.275200
   5388   5399   5403     1   109.5600471 388.275200
   5389   5388   5390     1   109.5600471 388.275200
   5389   5391   5395     1   109.5600471 388.275200
   5389   5409   5410     1   107.2600461 396.643200
   5390   5388   5399     1   109.5600471 388.275200
   5390   5388   5406     1   109.7800468 425.094400
   5391   5389   5408     1   109.5600471 388.275200
   5391   5392   5394     1   109.5600471 388.275200
   5391   5398   5400     1   107.2600461 396.643200
   5392   5391   5395     1   109.5600471 388.275200
   5392   5393   5396     1   110.2200475 386.601600
   5392   5411   5401     1   109.2900470 396.643200
   5393   5392   5394     1   109.5600471 388.275200
   5393   5397   5407     1   107.2600461 396.643200
   5394   5392   5411     1   109.8800469 414.216000
   5395   5391   5398     1   110.2600474 425.931200
   5396   5393   5397     1   109.4300470 427.604800
   5396   5393   5406     1   109.5800467 425.931200
   5399   5404   5405     1   107.2600461 396.643200
   5402   5399   5404     1   110.2600474 425.931200
   5402   5399   5403     1   108.4600466 328.025600
   5403   5399   5404     1   110.2600474 425.931200
   5408   5389   5409     1   110.2600474 425.931200
   5413   5415   5416     1   108.8800464 416.726400
   5413   5415   5418     1   108.8800464 416.726400
   5414   5413   5415     1   117.6800502 383.254400
   5415   5417   5419     1   109.5600471 388.275200
   5415   5417   5420     1   109.5600471 388.275200
   5416   5415   5417     1   109.5600471 388.275200
   5416   5415   5418     1   108.4600466 328.025600
   5417   5421   5486     1   110.1100470 384.091200
   5417   5415   5418     1   109.5600471 388.275200
   5419   5417   5421     1   107.9000462 406.684800
   5419   5417   5420     1   108.4600466 328.025600
   5420   5417   5421     1   107.9000462 406.684800
   5421   5422   5431     1   107.9000462 406.684800
   5421   5422   5432     1   107.9000462 406.684800
   5421   5423   5424     1   107.9000462 406.684800
   5421   5423   5426     1   107.9000462 406.684800
   5422   5433   5434     1   109.8000471 387.438400
   5422   5433   5435     1   109.8000471 387.438400
   5422   5421   5486     1   110.1100470 384.091200
   5423   5425   5427     1   109.8000471 387.438400
   5423   5425   5428     1   109.8000471 387.438400
   5423   5421   5486     1   110.1100470 384.091200
   5424   5423   5425     1   109.5600471 388.275200
   5424   5423   5426     1   108.4600466 328.025600
   5425   5423   5426     1   109.5600471 388.275200
   5427   5425   5429     1   108.7700466 392.459200
   5427   5425   5428     1   107.5800459 329.699200
   5428   5425   5429     1   108.7700466 392.459200
   5429   5461   5451     1   119.3800509 410.868800
   5431   5422   5433     1   109.5600471 388.275200
   5431   5422   5432     1   108.4600466 328.025600
   5432   5422   5433     1   109.5600471 388.275200
   5434   5433   5436     1   108.7700466 392.459200
   5434   5433   5435     1   107.5800459 329.699200
   5435   5433   5436     1   108.7700466 392.459200
   5436   5485   5475     1   119.3800509 410.868800
   5438   5439   5458     1   109.5600471 388.275200
   5438   5449   5452     1   109.5600471 388.275200
   5438   5449   5453     1   109.5600471 388.275200
   5439   5441   5445     1   109.5600471 388.275200
   5439   5459   5460     1   107.2600461 396.643200
   5439   5438   5440     1   109.5600471 388.275200
   5440   5438   5449     1   109.5600471 388.275200
   5440   5438   5456     1   109.7800468 425.094400
   5441   5442   5444     1   109.5600471 388.275200
   5441   5448   5450     1   107.2600461 396.643200
   5441   5439   5458     1   109.5600471 388.275200
   5442   5443   5446     1   110.2200475 386.601600
   5442   5461   5451     1   109.2900470 396.643200
   5442   5441   5445     1   109.5600471 388.275200
   5443   5447   5457     1   107.2600461 396.643200
   5443   5442   5444     1   109.5600471 388.275200
   5444   5442   5461     1   109.8800469 414.216000
   5445   5441   5448     1   110.2600474 425.931200
   5446   5443   5447     1   109.4300470 427.604800
   5446   5443   5456     1   109.5800467 425.931200
   5449   5454   5455     1   107.2600461 396.643200
   5452   5449   5454     1   110.2600474 425.931200
   5452   5449   5453     1   108.4600466 328.025600
   5453   5449   5454     1   110.2600474 425.931200
   5458   5439   5459     1   110.2600474 425.931200
   5462   5463   5482     1   109.5600471 388.275200
   5462   5473   5476     1   109.5600471 388.275200
   5462   5473   5477     1   109.5600471 388.275200
   5463   5465   5469     1   109.5600471 388.275200
   5463   5483   5484     1   107.2600461 396.643200
   5463   5462   5464     1   109.5600471 388.275200
   5464   5462   5473     1   109.5600471 388.275200
   5464   5462   5480     1   109.7800468 425.094400
   5465   5466   5468     1   109.5600471 388.275200
   5465   5472   5474     1   107.2600461 396.643200
   5465   5463   5482     1   109.5600471 388.275200
   5466   5467   5470     1   110.2200475 386.601600
   5466   5485   5475     1   109.2900470 396.643200
   5466   5465   5469     1   109.5600471 388.275200
   5467   5471   5481     1   107.2600461 396.643200
   5467   5466   5468     1   109.5600471 388.275200
   5468   5466   5485     1   109.8800469 414.216000
   5469   5465   5472     1   110.2600474 425.931200
   5470   5467   5471     1   109.4300470 427.604800
   5470   5467   5480     1   109.5800467 425.931200
   5473   5478   5479     1   107.2600461 396.643200
   5476   5473   5478     1   110.2600474 425.931200
   5476   5473   5477     1   108.4600466 328.025600
   5477   5473   5478     1   110.2600474 425.931200
   5482   5463   5483     1   110.2600474 425.931200
   5487   5489   5490     1   108.8800464 416.726400
   5487   5489   5492     1   108.8800464 416.726400
   5488   5487   5489     1   117.6800502 383.254400
   5489   5491   5493     1   109.5600471 388.275200
   5489   5491   5494     1   109.5600471 388.275200
   5490   5489   5491     1   109.5600471 388.275200
   5490   5489   5492     1   108.4600466 328.025600
   5491   5489   5492     1   109.5600471 388.275200
   5491   5495   5560     1   110.1100470 384.091200
   5493   5491   5495     1   107.9000462 406.684800
   5493   5491   5494     1   108.4600466 328.025600
   5494   5491   5495     1   107.9000462 406.684800
   5495   5496   5505     1   107.9000462 406.684800
   5495   5496   5506     1   107.9000462 406.684800
   5495   5497   5498     1   107.9000462 406.684800
   5495   5497   5500     1   107.9000462 406.684800
   5496   5495   5560     1   110.1100470 384.091200
   5496   5507   5508     1   109.8000471 387.438400
   5496   5507   5509     1   109.8000471 387.438400
   5497   5495   5560     1   110.1100470 384.091200
   5497   5499   5501     1   109.8000471 387.438400
   5497   5499   5502     1   109.8000471 387.438400
   5498   5497   5499     1   109.5600471 388.275200
   5498   5497   5500     1   108.4600466 328.025600
   5499   5497   5500     1   109.5600471 388.275200
   5501   5499   5503     1   108.7700466 392.459200
   5501   5499   5502     1   107.5800459 329.699200
   5502   5499   5503     1   108.7700466 392.459200
   5503   5535   5525     1   119.3800509 410.868800
   5505   5496   5507     1   109.5600471 388.275200
   5505   5496   5506     1   108.4600466 328.025600
   5506   5496   5507     1   109.5600471 388.275200
   5508   5507   5510     1   108.7700466 392.459200
   5508   5507   5509     1   107.5800459 329.699200
   5509   5507   5510     1   108.7700466 392.459200
   5510   5559   5549     1   119.3800509 410.868800
   5512   5513   5532     1   109.5600471 388.275200
   5512   5523   5526     1   109.5600471 388.275200
   5512   5523   5527     1   109.5600471 388.275200
   5513   5512   5514     1   109.5600471 388.275200
   5513   5515   5519     1   109.5600471 388.275200
   5513   5533   5534     1   107.2600461 396.643200
   5514   5512   5523     1   109.5600471 388.275200
   5514   5512   5530     1   109.7800468 425.094400
   5515   5513   5532     1   109.5600471 388.275200
   5515   5516   5518     1   109.5600471 388.275200
   5515   5522   5524     1   107.2600461 396.643200
   5516   5515   5519     1   109.5600471 388.275200
   5516   5517   5520     1   110.2200475 386.601600
   5516   5535   5525     1   109.2900470 396.643200
   5517   5516   5518     1   109.5600471 388.275200
   5517   5521   5531     1   107.2600461 396.643200
   5518   5516   5535     1   109.8800469 414.216000
   5519   5515   5522     1   110.2600474 425.931200
   5520   5517   5521     1   109.4300470 427.604800
   5520   5517   5530     1   109.5800467 425.931200
   5523   5528   5529     1   107.2600461 396.643200
   5526   5523   5528     1   110.2600474 425.931200
   5526   5523   5527     1   108.4600466 328.025600
   5527   5523   5528     1   110.2600474 425.931200
   5532   5513   5533     1   110.2600474 425.931200
   5536   5537   5556     1   109.5600471 388.275200
   5536   5547   5550     1   109.5600471 388.275200
   5536   5547   5551     1   109.5600471 388.275200
   5537   5536   5538     1   109.5600471 388.275200
   5537   5539   5543     1   109.5600471 388.275200
   5537   5557   5558     1   107.2600461 396.643200
   5538   5536   5547     1   109.5600471 388.275200
   5538   5536   5554     1   109.7800468 425.094400
   5539   5537   5556     1   109.5600471 388.275200
   5539   5540   5542     1   109.5600471 388.275200
   5539   5546   5548     1   107.2600461 396.643200
   5540   5539   5543     1   109.5600471 388.275200
   5540   5541   5544     1   110.2200475 386.601600
   5540   5559   5549     1   109.2900470 396.643200
   5541   5540   5542     1   109.5600471 388.275200
   5541   5545   5555     1   107.2600461 396.643200
   5542   5540   5559     1   109.8800469 414.216000
   5543   5539   5546     1   110.2600474 425.931200
   5544   5541   5545     1   109.4300470 427.604800
   5544   5541   5554     1   109.5800467 425.931200
   5547   5552   5553     1   107.2600461 396.643200
   5550   5547   5552     1   110.2600474 425.931200
   5550   5547   5551     1   108.4600466 328.025600
   5551   5547   5552     1   110.2600474 425.931200
   5556   5537   5557     1   110.2600474 425.931200
   5561   5563   5564     1   108.8800464 416.726400
   5561   5563   5566     1   108.8800464 416.726400
   5562   5561   5563     1   117.6800502 383.254400
   5563   5565   5567     1   109.5600471 388.275200
   5563   5565   5568     1   109.5600471 388.275200
   5564   5563   5565     1   109.5600471 388.275200
   5564   5563   5566     1   108.4600466 328.025600
   5565   5569   5634     1   110.1100470 384.091200
   5565   5563   5566     1   109.5600471 388.275200
   5567   5565   5569     1   107.9000462 406.684800
   5567   5565   5568     1   108.4600466 328.025600
   5568   5565   5569     1   107.9000462 406.684800
   5569   5570   5579     1   107.9000462 406.684800
   5569   5570   5580     1   107.9000462 406.684800
   5569   5571   5572     1   107.9000462 406.684800
   5569   5571   5574     1   107.9000462 406.684800
   5570   5581   5582     1   109.8000471 387.438400
   5570   5581   5583     1   109.8000471 387.438400
   5570   5569   5634     1   110.1100470 384.091200
   5571   5573   5575     1   109.8000471 387.438400
   5571   5573   5576     1   109.8000471 387.438400
   5571   5569   5634     1   110.1100470 384.091200
   5572   5571   5573     1   109.5600471 388.275200
   5572   5571   5574     1   108.4600466 328.025600
   5573   5571   5574     1   109.5600471 388.275200
   5575   5573   5577     1   108.7700466 392.459200
   5575   5573   5576     1   107.5800459 329.699200
   5576   5573   5577     1   108.7700466 392.459200
   5577   5609   5599     1   119.3800509 410.868800
   5579   5570   5581     1   109.5600471 388.275200
   5579   5570   5580     1   108.4600466 328.025600
   5580   5570   5581     1   109.5600471 388.275200
   5582   5581   5584     1   108.7700466 392.459200
   5582   5581   5583     1   107.5800459 329.699200
   5583   5581   5584     1   108.7700466 392.459200
   5584   5633   5623     1   119.3800509 410.868800
   5586   5587   5606     1   109.5600471 388.275200
   5586   5597   5600     1   109.5600471 388.275200
   5586   5597   5601     1   109.5600471 388.275200
   5587   5589   5593     1   109.5600471 388.275200
   5587   5607   5608     1   107.2600461 396.643200
   5587   5586   5588     1   109.5600471 388.275200
   5588   5586   5597     1   109.5600471 388.275200
   5588   5586   5604     1   109.7800468 425.094400
   5589   5590   5592     1   109.5600471 388.275200
   5589   5596   5598     1   107.2600461 396.643200
   5589   5587   5606     1   109.5600471 388.275200
   5590   5591   5594     1   110.2200475 386.601600
   5590   5609   5599     1   109.2900470 396.643200
   5590   5589   5593     1   109.5600471 388.275200
   5591   5595   5605     1   107.2600461 396.643200
   5591   5590   5592     1   109.5600471 388.275200
   5592   5590   5609     1   109.8800469 414.216000
   5593   5589   5596     1   110.2600474 425.931200
   5594   5591   5595     1   109.4300470 427.604800
   5594   5591   5604     1   109.5800467 425.931200
   5597   5602   5603     1   107.2600461 396.643200
   5600   5597   5602     1   110.2600474 425.931200
   5600   5597   5601     1   108.4600466 328.025600
   5601   5597   5602     1   110.2600474 425.931200
   5606   5587   5607     1   110.2600474 425.931200
   5610   5611   5630     1   109.5600471 388.275200
   5610   5621   5624     1   109.5600471 388.275200
   5610   5621   5625     1   109.5600471 388.275200
   5611   5613   5617     1   109.5600471 388.275200
   5611   5631   5632     1   107.2600461 396.643200
   5611   5610   5612     1   109.5600471 388.275200
   5612   5610   5621     1   109.5600471 388.275200
   5612   5610   5628     1   109.7800468 425.094400
   5613   5614   5616     1   109.5600471 388.275200
   5613   5620   5622     1   107.2600461 396.643200
   5613   5611   5630     1   109.5600471 388.275200
   5614   5615   5618     1   110.2200475 386.601600
   5614   5633   5623     1   109.2900470 396.643200
   5614   5613   5617     1   109.5600471 388.275200
   5615   5619   5629     1   107.2600461 396.643200
   5615   5614   5616     1   109.5600471 388.275200
   5616   5614   5633     1   109.8800469 414.216000
   5617   5613   5620     1   110.2600474 425.931200
   5618   5615   5619     1   109.4300470 427.604800
   5618   5615   5628     1   109.5800467 425.931200
   5621   5626   5627     1   107.2600461 396.643200
   5624   5621   5626     1   110.2600474 425.931200
   5624   5621   5625     1   108.4600466 328.025600
   5625   5621   5626     1   110.2600474 425.931200
   5630   5611   5631     1   110.2600474 425.931200
   5635   5637   5638     1   108.8800464 416.726400
   5635   5637   5640     1   108.8800464 416.726400
   5636   5635   5637     1   117.6800502 383.254400
   5637   5639   5641     1   109.5600471 388.275200
   5637   5639   5642     1   109.5600471 388.275200
   5638   5637   5639     1   109.5600471 388.275200
   5638   5637   5640     1   108.4600466 328.025600
   5639   5637   5640     1   109.5600471 388.275200
   5639   5643   5708     1   110.1100470 384.091200
   5641   5639   5643     1   107.9000462 406.684800
   5641   5639   5642     1   108.4600466 328.025600
   5642   5639   5643     1   107.9000462 406.684800
   5643   5644   5653     1   107.9000462 406.684800
   5643   5644   5654     1   107.9000462 406.684800
   5643   5645   5646     1   107.9000462 406.684800
   5643   5645   5648     1   107.9000462 406.684800
   5644   5643   5708     1   110.1100470 384.091200
   5644   5655   5656     1   109.8000471 387.438400
   5644   5655   5657     1   109.8000471 387.438400
   5645   5643   5708     1   110.1100470 384.091200
   5645   5647   5649     1   109.8000471 387.438400
   5645   5647   5650     1   109.8000471 387.438400
   5646   5645   5647     1   109.5600471 388.275200
   5646   5645   5648     1   108.4600466 328.025600
   5647   5645   5648     1   109.5600471 388.275200
   5649   5647   5651     1   108.7700466 392.459200
   5649   5647   5650     1   107.5800459 329.699200
   5650   5647   5651     1   108.7700466 392.459200
   5651   5683   5673     1   119.3800509 410.868800
   5653   5644   5655     1   109.5600471 388.275200
   5653   5644   5654     1   108.4600466 328.025600
   5654   5644   5655     1   109.5600471 388.275200
   5656   5655   5658     1   108.7700466 392.459200
   5656   5655   5657     1   107.5800459 329.699200
   5657   5655   5658     1   108.7700466 392.459200
   5658   5707   5697     1   119.3800509 410.868800
   5660   5661   5680     1   109.5600471 388.275200
   5660   5671   5674     1   109.5600471 388.275200
   5660   5671   5675     1   109.5600471 388.275200
   5661   5660   5662     1   109.5600471 388.275200
   5661   5663   5667     1   109.5600471 388.275200
   5661   5681   5682     1   107.2600461 396.643200
   5662   5660   5671     1   109.5600471 388.275200
   5662   5660   5678     1   109.7800468 425.094400
   5663   5661   5680     1   109.5600471 388.275200
   5663   5664   5666     1   109.5600471 388.275200
   5663   5670   5672     1   107.2600461 396.643200
   5664   5663   5667     1   109.5600471 388.275200
   5664   5665   5668     1   110.2200475 386.601600
   5664   5683   5673     1   109.2900470 396.643200
   5665   5664   5666     1   109.5600471 388.275200
   5665   5669   5679     1   107.2600461 396.643200
   5666   5664   5683     1   109.8800469 414.216000
   5667   5663   5670     1   110.2600474 425.931200
   5668   5665   5669     1   109.4300470 427.604800
   5668   5665   5678     1   109.5800467 425.931200
   5671   5676   5677     1   107.2600461 396.643200
   5674   5671   5676     1   110.2600474 425.931200
   5674   5671   5675     1   108.4600466 328.025600
   5675   5671   5676     1   110.2600474 425.931200
   5680   5661   5681     1   110.2600474 425.931200
   5684   5685   5704     1   109.5600471 388.275200
   5684   5695   5698     1   109.5600471 388.275200
   5684   5695   5699     1   109.5600471 388.275200
   5685   5684   5686     1   109.5600471 388.275200
   5685   5687   5691     1   109.5600471 388.275200
   5685   5705   5706     1   107.2600461 396.643200
   5686   5684   5695     1   109.5600471 388.275200
   5686   5684   5702     1   109.7800468 425.094400
   5687   5685   5704     1   109.5600471 388.275200
   5687   5688   5690     1   109.5600471 388.275200
   5687   5694   5696     1   107.2600461 396.643200
   5688   5687   5691     1   109.5600471 388.275200
   5688   5689   5692     1   110.2200475 386.601600
   5688   5707   5697     1   109.2900470 396.643200
   5689   5688   5690     1   109.5600471 388.275200
   5689   5693   5703     1   107.2600461 396.643200
   5690   5688   5707     1   109.8800469 414.216000
   5691   5687   5694     1   110.2600474 425.931200
   5692   5689   5693     1   109.4300470 427.604800
   5692   5689   5702     1   109.5800467 425.931200
   5695   5700   5701     1   107.2600461 396.643200
   5698   5695   5700     1   110.2600474 425.931200
   5698   5695   5699     1   108.4600466 328.025600
   5699   5695   5700     1   110.2600474 425.931200
   5704   5685   5705     1   110.2600474 425.931200
   5709   5711   5712     1   108.8800464 416.726400
   5709   5711   5714     1   108.8800464 416.726400
   5710   5709   5711     1   117.6800502 383.254400
   5711   5713   5715     1   109.5600471 388.275200
   5711   5713   5716     1   109.5600471 388.275200
   5712   5711   5713     1   109.5600471 388.275200
   5712   5711   5714     1   108.4600466 328.025600
   5713   5717   5782     1   110.1100470 384.091200
   5713   5711   5714     1   109.5600471 388.275200
   5715   5713   5717     1   107.9000462 406.684800
   5715   5713   5716     1   108.4600466 328.025600
   5716   5713   5717     1   107.9000462 406.684800
   5717   5718   5727     1   107.9000462 406.684800
   5717   5718   5728     1   107.9000462 406.684800
   5717   5719   5720     1   107.9000462 406.684800
   5717   5719   5722     1   107.9000462 406.684800
   5718   5729   5730     1   109.8000471 387.438400
   5718   5729   5731     1   109.8000471 387.438400
   5718   5717   5782     1   110.1100470 384.091200
   5719   5721   5723     1   109.8000471 387.438400
   5719   5721   5724     1   109.8000471 387.438400
   5719   5717   5782     1   110.1100470 384.091200
   5720   5719   5721     1   109.5600471 388.275200
   5720   5719   5722     1   108.4600466 328.025600
   5721   5719   5722     1   109.5600471 388.275200
   5723   5721   5725     1   108.7700466 392.459200
   5723   5721   5724     1   107.5800459 329.699200
   5724   5721   5725     1   108.7700466 392.459200
   5725   5757   5747     1   119.3800509 410.868800
   5727   5718   5729     1   109.5600471 388.275200
   5727   5718   5728     1   108.4600466 328.025600
   5728   5718   5729     1   109.5600471 388.275200
   5730   5729   5732     1   108.7700466 392.459200
   5730   5729   5731     1   107.5800459 329.699200
   5731   5729   5732     1   108.7700466 392.459200
   5732   5781   5771     1   119.3800509 410.868800
   5734   5735   5754     1   109.5600471 388.275200
   5734   5745   5748     1   109.5600471 388.275200
   5734   5745   5749     1   109.5600471 388.275200
   5735   5737   5741     1   109.5600471 388.275200
   5735   5755   5756     1   107.2600461 396.643200
   5735   5734   5736     1   109.5600471 388.275200
   5736   5734   5745     1   109.5600471 388.275200
   5736   5734   5752     1   109.7800468 425.094400
   5737   5738   5740     1   109.5600471 388.275200
   5737   5744   5746     1   107.2600461 396.643200
   5737   5735   5754     1   109.5600471 388.275200
   5738   5739   5742     1   110.2200475 386.601600
   5738   5757   5747     1   109.2900470 396.643200
   5738   5737   5741     1   109.5600471 388.275200
   5739   5743   5753     1   107.2600461 396.643200
   5739   5738   5740     1   109.5600471 388.275200
   5740   5738   5757     1   109.8800469 414.216000
   5741   5737   5744     1   110.2600474 425.931200
   5742   5739   5743     1   109.4300470 427.604800
   5742   5739   5752     1   109.5800467 425.931200
   5745   5750   5751     1   107.2600461 396.643200
   5748   5745   5750     1   110.2600474 425.931200
   5748   5745   5749     1   108.4600466 328.025600
   5749   5745   5750     1   110.2600474 425.931200
   5754   5735   5755     1   110.2600474 425.931200
   5758   5759   5778     1   109.5600471 388.275200
   5758   5769   5772     1   109.5600471 388.275200
   5758   5769   5773     1   109.5600471 388.275200
   5759   5761   5765     1   109.5600471 388.275200
   5759   5779   5780     1   107.2600461 396.643200
   5759   5758   5760     1   109.5600471 388.275200
   5760   5758   5769     1   109.5600471 388.275200
   5760   5758   5776     1   109.7800468 425.094400
   5761   5762   5764     1   109.5600471 388.275200
   5761   5768   5770     1   107.2600461 396.643200
   5761   5759   5778     1   109.5600471 388.275200
   5762   5763   5766     1   110.2200475 386.601600
   5762   5781   5771     1   109.2900470 396.643200
   5762   5761   5765     1   109.5600471 388.275200
   5763   5767   5777     1   107.2600461 396.643200
   5763   5762   5764     1   109.5600471 388.275200
   5764   5762   5781     1   109.8800469 414.216000
   5765   5761   5768     1   110.2600474 425.931200
   5766   5763   5767     1   109.4300470 427.604800
   5766   5763   5776     1   109.5800467 425.931200
   5769   5774   5775     1   107.2600461 396.643200
   5772   5769   5774     1   110.2600474 425.931200
   5772   5769   5773     1   108.4600466 328.025600
   5773   5769   5774     1   110.2600474 425.931200
   5778   5759   5779     1   110.2600474 425.931200
   5783   5785   5786     1   108.8800464 416.726400
   5783   5785   5788     1   108.8800464 416.726400
   5784   5783   5785     1   117.6800502 383.254400
   5785   5787   5789     1   109.5600471 388.275200
   5785   5787   5790     1   109.5600471 388.275200
   5786   5785   5787     1   109.5600471 388.275200
   5786   5785   5788     1   108.4600466 328.025600
   5787   5785   5788     1   109.5600471 388.275200
   5787   5791   5856     1   110.1100470 384.091200
   5789   5787   5791     1   107.9000462 406.684800
   5789   5787   5790     1   108.4600466 328.025600
   5790   5787   5791     1   107.9000462 406.684800
   5791   5792   5801     1   107.9000462 406.684800
   5791   5792   5802     1   107.9000462 406.684800
   5791   5793   5794     1   107.9000462 406.684800
   5791   5793   5796     1   107.9000462 406.684800
   5792   5791   5856     1   110.1100470 384.091200
   5792   5803   5804     1   109.8000471 387.438400
   5792   5803   5805     1   109.8000471 387.438400
   5793   5791   5856     1   110.1100470 384.091200
   5793   5795   5797     1   109.8000471 387.438400
   5793   5795   5798     1   109.8000471 387.438400
   5794   5793   5795     1   109.5600471 388.275200
   5794   5793   5796     1   108.4600466 328.025600
   5795   5793   5796     1   109.5600471 388.275200
   5797   5795   5799     1   108.7700466 392.459200
   5797   5795   5798     1   107.5800459 329.699200
   5798   5795   5799     1   108.7700466 392.459200
   5799   5831   5821     1   119.3800509 410.868800
   5801   5792   5803     1   109.5600471 388.275200
   5801   5792   5802     1   108.4600466 328.025600
   5802   5792   5803     1   109.5600471 388.275200
   5804   5803   5806     1   108.7700466 392.459200
   5804   5803   5805     1   107.5800459 329.699200
   5805   5803   5806     1   108.7700466 392.459200
   5806   5855   5845     1   119.3800509 410.868800
   5808   5809   5828     1   109.5600471 388.275200
   5808   5819   5822     1   109.5600471 388.275200
   5808   5819   5823     1   109.5600471 388.275200
   5809   5808   5810     1   109.5600471 388.275200
   5809   5811   5815     1   109.5600471 388.275200
   5809   5829   5830     1   107.2600461 396.643200
   5810   5808   5819     1   109.5600471 388.275200
   5810   5808   5826     1   109.7800468 425.094400
   5811   5809   5828     1   109.5600471 388.275200
   5811   5812   5814     1   109.5600471 388.275200
   5811   5818   5820     1   107.2600461 396.643200
   5812   5811   5815     1   109.5600471 388.275200
   5812   5813   5816     1   110.2200475 386.601600
   5812   5831   5821     1   109.2900470 396.643200
   5813   5812   5814     1   109.5600471 388.275200
   5813   5817   5827     1   107.2600461 396.643200
   5814   5812   5831     1   109.8800469 414.216000
   5815   5811   5818     1   110.2600474 425.931200
   5816   5813   5817     1   109.4300470 427.604800
   5816   5813   5826     1   109.5800467 425.931200
   5819   5824   5825     1   107.2600461 396.643200
   5822   5819   5824     1   110.2600474 425.931200
   5822   5819   5823     1   108.4600466 328.025600
   5823   5819   5824     1   110.2600474 425.931200
   5828   5809   5829     1   110.2600474 425.931200
   5832   5833   5852     1   109.5600471 388.275200
   5832   5843   5846     1   109.5600471 388.275200
   5832   5843   5847     1   109.5600471 388.275200
   5833   5832   5834     1   109.5600471 388.275200
   5833   5835   5839     1   109.5600471 388.275200
   5833   5853   5854     1   107.2600461 396.643200
   5834   5832   5843     1   109.5600471 388.275200
   5834   5832   5850     1   109.7800468 425.094400
   5835   5833   5852     1   109.5600471 388.275200
   5835   5836   5838     1   109.5600471 388.275200
   5835   5842   5844     1   107.2600461 396.643200
   5836   5835   5839     1   109.5600471 388.275200
   5836   5837   5840     1   110.2200475 386.601600
   5836   5855   5845     1   109.2900470 396.643200
   5837   5836   5838     1   109.5600471 388.275200
   5837   5841   5851     1   107.2600461 396.643200
   5838   5836   5855     1   109.8800469 414.216000
   5839   5835   5842     1   110.2600474 425.931200
   5840   5837   5841     1   109.4300470 427.604800
   5840   5837   5850     1   109.5800467 425.931200
   5843   5848   5849     1   107.2600461 396.643200
   5846   5843   5848     1   110.2600474 425.931200
   5846   5843   5847     1   108.4600466 328.025600
   5847   5843   5848     1   110.2600474 425.931200
   5852   5833   5853     1   110.2600474 425.931200
   5857   5859   5860     1   108.8800464 416.726400
   5857   5859   5862     1   108.8800464 416.726400
   5858   5857   5859     1   117.6800502 383.254400
   5859   5861   5863     1   109.5600471 388.275200
   5859   5861   5864     1   109.5600471 388.275200
   5860   5859   5861     1   109.5600471 388.275200
   5860   5859   5862     1   108.4600466 328.025600
   5861   5865   5930     1   110.1100470 384.091200
   5861   5859   5862     1   109.5600471 388.275200
   5863   5861   5865     1   107.9000462 406.684800
   5863   5861   5864     1   108.4600466 328.025600
   5864   5861   5865     1   107.9000462 406.684800
   5865   5866   5875     1   107.9000462 406.684800
   5865   5866   5876     1   107.9000462 406.684800
   5865   5867   5868     1   107.9000462 406.684800
   5865   5867   5870     1   107.9000462 406.684800
   5866   5877   5878     1   109.8000471 387.438400
   5866   5877   5879     1   109.8000471 387.438400
   5866   5865   5930     1   110.1100470 384.091200
   5867   5869   5871     1   109.8000471 387.438400
   5867   5869   5872     1   109.8000471 387.438400
   5867   5865   5930     1   110.1100470 384.091200
   5868   5867   5869     1   109.5600471 388.275200
   5868   5867   5870     1   108.4600466 328.025600
   5869   5867   5870     1   109.5600471 388.275200
   5871   5869   5873     1   108.7700466 392.459200
   5871   5869   5872     1   107.5800459 329.699200
   5872   5869   5873     1   108.7700466 392.459200
   5873   5905   5895     1   119.3800509 410.868800
   5875   5866   5877     1   109.5600471 388.275200
   5875   5866   5876     1   108.4600466 328.025600
   5876   5866   5877     1   109.5600471 388.275200
   5878   5877   5880     1   108.7700466 392.459200
   5878   5877   5879     1   107.5800459 329.699200
   5879   5877   5880     1   108.7700466 392.459200
   5880   5929   5919     1   119.3800509 410.868800
   5882   5883   5902     1   109.5600471 388.275200
   5882   5893   5896     1   109.5600471 388.275200
   5882   5893   5897     1   109.5600471 388.275200
   5883   5885   5889     1   109.5600471 388.275200
   5883   5903   5904     1   107.2600461 396.643200
   5883   5882   5884     1   109.5600471 388.275200
   5884   5882   5893     1   109.5600471 388.275200
   5884   5882   5900     1   109.7800468 425.094400
   5885   5886   5888     1   109.5600471 388.275200
   5885   5892   5894     1   107.2600461 396.643200
   5885   5883   5902     1   109.5600471 388.275200
   5886   5887   5890     1   110.2200475 386.601600
   5886   5905   5895     1   109.2900470 396.643200
   5886   5885   5889     1   109.5600471 388.275200
   5887   5891   5901     1   107.2600461 396.643200
   5887   5886   5888     1   109.5600471 388.275200
   5888   5886   5905     1   109.8800469 414.216000
   5889   5885   5892     1   110.2600474 425.931200
   5890   5887   5891     1   109.4300470 427.604800
   5890   5887   5900     1   109.5800467 425.931200
   5893   5898   5899     1   107.2600461 396.643200
   5896   5893   5898     1   110.2600474 425.931200
   5896   5893   5897     1   108.4600466 328.025600
   5897   5893   5898     1   110.2600474 425.931200
   5902   5883   5903     1   110.2600474 425.931200
   5906   5907   5926     1   109.5600471 388.275200
   5906   5917   5920     1   109.5600471 388.275200
   5906   5917   5921     1   109.5600471 388.275200
   5907   5909   5913     1   109.5600471 388.275200
   5907   5927   5928     1   107.2600461 396.643200
   5907   5906   5908     1   109.5600471 388.275200
   5908   5906   5917     1   109.5600471 388.275200
   5908   5906   5924     1   109.7800468 425.094400
   5909   5910   5912     1   109.5600471 388.275200
   5909   5916   5918     1   107.2600461 396.643200
   5909   5907   5926     1   109.5600471 388.275200
   5910   5911   5914     1   110.2200475 386.601600
   5910   5929   5919     1   109.2900470 396.643200
   5910   5909   5913     1   109.5600471 388.275200
   5911   5915   5925     1   107.2600461 396.643200
   5911   5910   5912     1   109.5600471 388.275200
   5912   5910   5929     1   109.8800469 414.216000
   5913   5909   5916     1   110.2600474 425.931200
   5914   5911   5915     1   109.4300470 427.604800
   5914   5911   5924     1   109.5800467 425.931200
   5917   5922   5923     1   107.2600461 396.643200
   5920   5917   5922     1   110.2600474 425.931200
   5920   5917   5921     1   108.4600466 328.025600
   5921   5917   5922     1   110.2600474 425.931200
   5926   5907   5927     1   110.2600474 425.931200
   5931   5933   5934     1   108.8800464 416.726400
   5931   5933   5936     1   108.8800464 416.726400
   5932   5931   5933     1   117.6800502 383.254400
   5933   5935   5937     1   109.5600471 388.275200
   5933   5935   5938     1   109.5600471 388.275200
   5934   5933   5935     1   109.5600471 388.275200
   5934   5933   5936     1   108.4600466 328.025600
   5935   5933   5936     1   109.5600471 388.275200
   5935   5939   6004     1   110.1100470 384.091200
   5937   5935   5939     1   107.9000462 406.684800
   5937   5935   5938     1   108.4600466 328.025600
   5938   5935   5939     1   107.9000462 406.684800
   5939   5940   5949     1   107.9000462 406.684800
   5939   5940   5950     1   107.9000462 406.684800
   5939   5941   5942     1   107.9000462 406.684800
   5939   5941   5944     1   107.9000462 406.684800
   5940   5939   6004     1   110.1100470 384.091200
   5940   5951   5952     1   109.8000471 387.438400
   5940   5951   5953     1   109.8000471 387.438400
   5941   5939   6004     1   110.1100470 384.091200
   5941   5943   5945     1   109.8000471 387.438400
   5941   5943   5946     1   109.8000471 387.438400
   5942   5941   5943     1   109.5600471 388.275200
   5942   5941   5944     1   108.4600466 328.025600
   5943   5941   5944     1   109.5600471 388.275200
   5945   5943   5947     1   108.7700466 392.459200
   5945   5943   5946     1   107.5800459 329.699200
   5946   5943   5947     1   108.7700466 392.459200
   5947   5979   5969     1   119.3800509 410.868800
   5949   5940   5951     1   109.5600471 388.275200
   5949   5940   5950     1   108.4600466 328.025600
   5950   5940   5951     1   109.5600471 388.275200
   5952   5951   5954     1   108.7700466 392.459200
   5952   5951   5953     1   107.5800459 329.699200
   5953   5951   5954     1   108.7700466 392.459200
   5954   6003   5993     1   119.3800509 410.868800
   5956   5957   5976     1   109.5600471 388.275200
   5956   5967   5970     1   109.5600471 388.275200
   5956   5967   5971     1   109.5600471 388.275200
   5957   5956   5958     1   109.5600471 388.275200
   5957   5959   5963     1   109.5600471 388.275200
   5957   5977   5978     1   107.2600461 396.643200
   5958   5956   5967     1   109.5600471 388.275200
   5958   5956   5974     1   109.7800468 425.094400
   5959   5957   5976     1   109.5600471 388.275200
   5959   5960   5962     1   109.5600471 388.275200
   5959   5966   5968     1   107.2600461 396.643200
   5960   5959   5963     1   109.5600471 388.275200
   5960   5961   5964     1   110.2200475 386.601600
   5960   5979   5969     1   109.2900470 396.643200
   5961   5960   5962     1   109.5600471 388.275200
   5961   5965   5975     1   107.2600461 396.643200
   5962   5960   5979     1   109.8800469 414.216000
   5963   5959   5966     1   110.2600474 425.931200
   5964   5961   5965     1   109.4300470 427.604800
   5964   5961   5974     1   109.5800467 425.931200
   5967   5972   5973     1   107.2600461 396.643200
   5970   5967   5972     1   110.2600474 425.931200
   5970   5967   5971     1   108.4600466 328.025600
   5971   5967   5972     1   110.2600474 425.931200
   5976   5957   5977     1   110.2600474 425.931200
   5980   5981   6000     1   109.5600471 388.275200
   5980   5991   5994     1   109.5600471 388.275200
   5980   5991   5995     1   109.5600471 388.275200
   5981   5980   5982     1   109.5600471 388.275200
   5981   5983   5987     1   109.5600471 388.275200
   5981   6001   6002     1   107.2600461 396.643200
   5982   5980   5991     1   109.5600471 388.275200
   5982   5980   5998     1   109.7800468 425.094400
   5983   5981   6000     1   109.5600471 388.275200
   5983   5984   5986     1   109.5600471 388.275200
   5983   5990   5992     1   107.2600461 396.643200
   5984   5983   5987     1   109.5600471 388.275200
   5984   5985   5988     1   110.2200475 386.601600
   5984   6003   5993     1   109.2900470 396.643200
   5985   5984   5986     1   109.5600471 388.275200
   5985   5989   5999     1   107.2600461 396.643200
   5986   5984   6003     1   109.8800469 414.216000
   5987   5983   5990     1   110.2600474 425.931200
   5988   5985   5989     1   109.4300470 427.604800
   5988   5985   5998     1   109.5800467 425.931200
   5991   5996   5997     1   107.2600461 396.643200
   5994   5991   5996     1   110.2600474 425.931200
   5994   5991   5995     1   108.4600466 328.025600
   5995   5991   5996     1   110.2600474 425.931200
   6000   5981   6001     1   110.2600474 425.931200
   6005   6007   6008     1   108.8800464 416.726400
   6005   6007   6010     1   108.8800464 416.726400
   6006   6005   6007     1   117.6800502 383.254400
   6007   6009   6011     1   109.5600471 388.275200
   6007   6009   6012     1   109.5600471 388.275200
   6008   6007   6009     1   109.5600471 388.275200
   6008   6007   6010     1   108.4600466 328.025600
   6009   6013   6078     1   110.1100470 384.091200
   6009   6007   6010     1   109.5600471 388.275200
   6011   6009   6013     1   107.9000462 406.684800
   6011   6009   6012     1   108.4600466 328.025600
   6012   6009   6013     1   107.9000462 406.684800
   6013   6014   6023     1   107.9000462 406.684800
   6013   6014   6024     1   107.9000462 406.684800
   6013   6015   6016     1   107.9000462 406.684800
   6013   6015   6018     1   107.9000462 406.684800
   6014   6025   6026     1   109.8000471 387.438400
   6014   6025   6027     1   109.8000471 387.438400
   6014   6013   6078     1   110.1100470 384.091200
   6015   6017   6019     1   109.8000471 387.438400
   6015   6017   6020     1   109.8000471 387.438400
   6015   6013   6078     1   110.1100470 384.091200
   6016   6015   6017     1   109.5600471 388.275200
   6016   6015   6018     1   108.4600466 328.025600
   6017   6015   6018     1   109.5600471 388.275200
   6019   6017   6021     1   108.7700466 392.459200
   6019   6017   6020     1   107.5800459 329.699200
   6020   6017   6021     1   108.7700466 392.459200
   6021   6053   6043     1   119.3800509 410.868800
   6023   6014   6025     1   109.5600471 388.275200
   6023   6014   6024     1   108.4600466 328.025600
   6024   6014   6025     1   109.5600471 388.275200
   6026   6025   6028     1   108.7700466 392.459200
   6026   6025   6027     1   107.5800459 329.699200
   6027   6025   6028     1   108.7700466 392.459200
   6028   6077   6067     1   119.3800509 410.868800
   6030   6031   6050     1   109.5600471 388.275200
   6030   6041   6044     1   109.5600471 388.275200
   6030   6041   6045     1   109.5600471 388.275200
   6031   6033   6037     1   109.5600471 388.275200
   6031   6051   6052     1   107.2600461 396.643200
   6031   6030   6032     1   109.5600471 388.275200
   6032   6030   6041     1   109.5600471 388.275200
   6032   6030   6048     1   109.7800468 425.094400
   6033   6034   6036     1   109.5600471 388.275200
   6033   6040   6042     1   107.2600461 396.643200
   6033   6031   6050     1   109.5600471 388.275200
   6034   6035   6038     1   110.2200475 386.601600
   6034   6053   6043     1   109.2900470 396.643200
   6034   6033   6037     1   109.5600471 388.275200
   6035   6039   6049     1   107.2600461 396.643200
   6035   6034   6036     1   109.5600471 388.275200
   6036   6034   6053     1   109.8800469 414.216000
   6037   6033   6040     1   110.2600474 425.931200
   6038   6035   6039     1   109.4300470 427.604800
   6038   6035   6048     1   109.5800467 425.931200
   6041   6046   6047     1   107.2600461 396.643200
   6044   6041   6046     1   110.2600474 425.931200
   6044   6041   6045     1   108.4600466 328.025600
   6045   6041   6046     1   110.2600474 425.931200
   6050   6031   6051     1   110.2600474 425.931200
   6054   6055   6074     1   109.5600471 388.275200
   6054   6065   6068     1   109.5600471 388.275200
   6054   6065   6069     1   109.5600471 388.275200
   6055   6057   6061     1   109.5600471 388.275200
   6055   6075   6076     1   107.2600461 396.643200
   6055   6054   6056     1   109.5600471 388.275200
   6056   6054   6065     1   109.5600471 388.275200
   6056   6054   6072     1   109.7800468 425.094400
   6057   6058   6060     1   109.5600471 388.275200
   6057   6064   6066     1   107.2600461 396.643200
   6057   6055   6074     1   109.5600471 388.275200
   6058   6059   6062     1   110.2200475 386.601600
   6058   6077   6067     1   109.2900470 396.643200
   6058   6057   6061     1   109.5600471 388.275200
   6059   6063   6073     1   107.2600461 396.643200
   6059   6058   6060     1   109.5600471 388.275200
   6060   6058   6077     1   109.8800469 414.216000
   6061   6057   6064     1   110.2600474 425.931200
   6062   6059   6063     1   109.4300470 427.604800
   6062   6059   6072     1   109.5800467 425.931200
   6065   6070   6071     1   107.2600461 396.643200
   6068   6065   6070     1   110.2600474 425.931200
   6068   6065   6069     1   108.4600466 328.025600
   6069   6065   6070     1   110.2600474 425.931200
   6074   6055   6075     1   110.2600474 425.931200
   6079   6081   6082     1   108.8800464 416.726400
   6079   6081   6084     1   108.8800464 416.726400
   6080   6079   6081     1   117.6800502 383.254400
   6081   6083   6085     1   109.5600471 388.275200
   6081   6083   6086     1   109.5600471 388.275200
   6082   6081   6083     1   109.5600471 388.275200
   6082   6081   6084     1   108.4600466 328.025600
   6083   6081   6084     1   109.5600471 388.275200
   6083   6087   6152     1   110.1100470 384.091200
   6085   6083   6087     1   107.9000462 406.684800
   6085   6083   6086     1   108.4600466 328.025600
   6086   6083   6087     1   107.9000462 406.684800
   6087   6088   6097     1   107.9000462 406.684800
   6087   6088   6098     1   107.9000462 406.684800
   6087   6089   6090     1   107.9000462 406.684800
   6087   6089   6092     1   107.9000462 406.684800
   6088   6087   6152     1   110.1100470 384.091200
   6088   6099   6100     1   109.8000471 387.438400
   6088   6099   6101     1   109.8000471 387.438400
   6089   6087   6152     1   110.1100470 384.091200
   6089   6091   6093     1   109.8000471 387.438400
   6089   6091   6094     1   109.8000471 387.438400
   6090   6089   6091     1   109.5600471 388.275200
   6090   6089   6092     1   108.4600466 328.025600
   6091   6089   6092     1   109.5600471 388.275200
   6093   6091   6095     1   108.7700466 392.459200
   6093   6091   6094     1   107.5800459 329.699200
   6094   6091   6095     1   108.7700466 392.459200
   6095   6127   6117     1   119.3800509 410.868800
   6097   6088   6099     1   109.5600471 388.275200
   6097   6088   6098     1   108.4600466 328.025600
   6098   6088   6099     1   109.5600471 388.275200
   6100   6099   6102     1   108.7700466 392.459200
   6100   6099   6101     1   107.5800459 329.699200
   6101   6099   6102     1   108.7700466 392.459200
   6102   6151   6141     1   119.3800509 410.868800
   6104   6105   6124     1   109.5600471 388.275200
   6104   6115   6118     1   109.5600471 388.275200
   6104   6115   6119     1   109.5600471 388.275200
   6105   6104   6106     1   109.5600471 388.275200
   6105   6107   6111     1   109.5600471 388.275200
   6105   6125   6126     1   107.2600461 396.643200
   6106   6104   6115     1   109.5600471 388.275200
   6106   6104   6122     1   109.7800468 425.094400
   6107   6105   6124     1   109.5600471 388.275200
   6107   6108   6110     1   109.5600471 388.275200
   6107   6114   6116     1   107.2600461 396.643200
   6108   6107   6111     1   109.5600471 388.275200
   6108   6109   6112     1   110.2200475 386.601600
   6108   6127   6117     1   109.2900470 396.643200
   6109   6108   6110     1   109.5600471 388.275200
   6109   6113   6123     1   107.2600461 396.643200
   6110   6108   6127     1   109.8800469 414.216000
   6111   6107   6114     1   110.2600474 425.931200
   6112   6109   6113     1   109.4300470 427.604800
   6112   6109   6122     1   109.5800467 425.931200
   6115   6120   6121     1   107.2600461 396.643200
   6118   6115   6120     1   110.2600474 425.931200
   6118   6115   6119     1   108.4600466 328.025600
   6119   6115   6120     1   110.2600474 425.931200
   6124   6105   6125     1   110.2600474 425.931200
   6128   6129   6148     1   109.5600471 388.275200
   6128   6139   6142     1   109.5600471 388.275200
   6128   6139   6143     1   109.5600471 388.275200
   6129   6128   6130     1   109.5600471 388.275200
   6129   6131   6135     1   109.5600471 388.275200
   6129   6149   6150     1   107.2600461 396.643200
   6130   6128   6139     1   109.5600471 388.275200
   6130   6128   6146     1   109.7800468 425.094400
   6131   6129   6148     1   109.5600471 388.275200
   6131   6132   6134     1   109.5600471 388.275200
   6131   6138   6140     1   107.2600461 396.643200
   6132   6131   6135     1   109.5600471 388.275200
   6132   6133   6136     1   110.2200475 386.601600
   6132   6151   6141     1   109.2900470 396.643200
   6133   6132   6134     1   109.5600471 388.275200
   6133   6137   6147     1   107.2600461 396.643200
   6134   6132   6151     1   109.8800469 414.216000
   6135   6131   6138     1   110.2600474 425.931200
   6136   6133   6137     1   109.4300470 427.604800
   6136   6133   6146     1   109.5800467 425.931200
   6139   6144   6145     1   107.2600461 396.643200
   6142   6139   6144     1   110.2600474 425.931200
   6142   6139   6143     1   108.4600466 328.025600
   6143   6139   6144     1   110.2600474 425.931200
   6148   6129   6149     1   110.2600474 425.931200
   6153   6155   6156     1   108.8800464 416.726400
   6153   6155   6158     1   108.8800464 416.726400
   6154   6153   6155     1   117.6800502 383.254400
   6155   6157   6159     1   109.5600471 388.275200
   6155   6157   6160     1   109.5600471 388.275200
   6156   6155   6157     1   109.5600471 388.275200
   6156   6155   6158     1   108.4600466 328.025600
   6157   6161   6226     1   110.1100470 384.091200
   6157   6155   6158     1   109.5600471 388.275200
   6159   6157   6161     1   107.9000462 406.684800
   6159   6157   6160     1   108.4600466 328.025600
   6160   6157   6161     1   107.9000462 406.684800
   6161   6162   6171     1   107.9000462 406.684800
   6161   6162   6172     1   107.9000462 406.684800
   6161   6163   6164     1   107.9000462 406.684800
   6161   6163   6166     1   107.9000462 406.684800
   6162   6173   6174     1   109.8000471 387.438400
   6162   6173   6175     1   109.8000471 387.438400
   6162   6161   6226     1   110.1100470 384.091200
   6163   6165   6167     1   109.8000471 387.438400
   6163   6165   6168     1   109.8000471 387.438400
   6163   6161   6226     1   110.1100470 384.091200
   6164   6163   6165     1   109.5600471 388.275200
   6164   6163   6166     1   108.4600466 328.025600
   6165   6163   6166     1   109.5600471 388.275200
   6167   6165   6169     1   108.7700466 392.459200
   6167   6165   6168     1   107.5800459 329.699200
   6168   6165   6169     1   108.7700466 392.459200
   6169   6201   6191     1   119.3800509 410.868800
   6171   6162   6173     1   109.5600471 388.275200
   6171   6162   6172     1   108.4600466 328.025600
   6172   6162   6173     1   109.5600471 388.275200
   6174   6173   6176     1   108.7700466 392.459200
   6174   6173   6175     1   107.5800459 329.699200
   6175   6173   6176     1   108.7700466 392.459200
   6176   6225   6215     1   119.3800509 410.868800
   6178   6179   6198     1   109.5600471 388.275200
   6178   6189   6192     1   109.5600471 388.275200
   6178   6189   6193     1   109.5600471 388.275200
   6179   6181   6185     1   109.5600471 388.275200
   6179   6199   6200     1   107.2600461 396.643200
   6179   6178   6180     1   109.5600471 388.275200
   6180   6178   6189     1   109.5600471 388.275200
   6180   6178   6196     1   109.7800468 425.094400
   6181   6182   6184     1   109.5600471 388.275200
   6181   6188   6190     1   107.2600461 396.643200
   6181   6179   6198     1   109.5600471 388.275200
   6182   6183   6186     1   110.2200475 386.601600
   6182   6201   6191     1   109.2900470 396.643200
   6182   6181   6185     1   109.5600471 388.275200
   6183   6187   6197     1   107.2600461 396.643200
   6183   6182   6184     1   109.5600471 388.275200
   6184   6182   6201     1   109.8800469 414.216000
   6185   6181   6188     1   110.2600474 425.931200
   6186   6183   6187     1   109.4300470 427.604800
   6186   6183   6196     1   109.5800467 425.931200
   6189   6194   6195     1   107.2600461 396.643200
   6192   6189   6194     1   110.2600474 425.931200
   6192   6189   6193     1   108.4600466 328.025600
   6193   6189   6194     1   110.2600474 425.931200
   6198   6179   6199     1   110.2600474 425.931200
   6202   6203   6222     1   109.5600471 388.275200
   6202   6213   6216     1   109.5600471 388.275200
   6202   6213   6217     1   109.5600471 388.275200
   6203   6205   6209     1   109.5600471 388.275200
   6203   6223   6224     1   107.2600461 396.643200
   6203   6202   6204     1   109.5600471 388.275200
   6204   6202   6213     1   109.5600471 388.275200
   6204   6202   6220     1   109.7800468 425.094400
   6205   6206   6208     1   109.5600471 388.275200
   6205   6212   6214     1   107.2600461 396.643200
   6205   6203   6222     1   109.5600471 388.275200
   6206   6207   6210     1   110.2200475 386.601600
   6206   6225   6215     1   109.2900470 396.643200
   6206   6205   6209     1   109.5600471 388.275200
   6207   6211   6221     1   107.2600461 396.643200
   6207   6206   6208     1   109.5600471 388.275200
   6208   6206   6225     1   109.8800469 414.216000
   6209   6205   6212     1   110.2600474 425.931200
   6210   6207   6211     1   109.4300470 427.604800
   6210   6207   6220     1   109.5800467 425.931200
   6213   6218   6219     1   107.2600461 396.643200
   6216   6213   6218     1   110.2600474 425.931200
   6216   6213   6217     1   108.4600466 328.025600
   6217   6213   6218     1   110.2600474 425.931200
   6222   6203   6223     1   110.2600474 425.931200
   6227   6229   6230     1   108.8800464 416.726400
   6227   6229   6232     1   108.8800464 416.726400
   6228   6227   6229     1   117.6800502 383.254400
   6229   6231   6233     1   109.5600471 388.275200
   6229   6231   6234     1   109.5600471 388.275200
   6230   6229   6231     1   109.5600471 388.275200
   6230   6229   6232     1   108.4600466 328.025600
   6231   6229   6232     1   109.5600471 388.275200
   6231   6235   6300     1   110.1100470 384.091200
   6233   6231   6235     1   107.9000462 406.684800
   6233   6231   6234     1   108.4600466 328.025600
   6234   6231   6235     1   107.9000462 406.684800
   6235   6236   6245     1   107.9000462 406.684800
   6235   6236   6246     1   107.9000462 406.684800
   6235   6237   6238     1   107.9000462 406.684800
   6235   6237   6240     1   107.9000462 406.684800
   6236   6235   6300     1   110.1100470 384.091200
   6236   6247   6248     1   109.8000471 387.438400
   6236   6247   6249     1   109.8000471 387.438400
   6237   6235   6300     1   110.1100470 384.091200
   6237   6239   6241     1   109.8000471 387.438400
   6237   6239   6242     1   109.8000471 387.438400
   6238   6237   6239     1   109.5600471 388.275200
   6238   6237   6240     1   108.4600466 328.025600
   6239   6237   6240     1   109.5600471 388.275200
   6241   6239   6243     1   108.7700466 392.459200
   6241   6239   6242     1   107.5800459 329.699200
   6242   6239   6243     1   108.7700466 392.459200
   6243   6275   6265     1   119.3800509 410.868800
   6245   6236   6247     1   109.5600471 388.275200
   6245   6236   6246     1   108.4600466 328.025600
   6246   6236   6247     1   109.5600471 388.275200
   6248   6247   6250     1   108.7700466 392.459200
   6248   6247   6249     1   107.5800459 329.699200
   6249   6247   6250     1   108.7700466 392.459200
   6250   6299   6289     1   119.3800509 410.868800
   6252   6253   6272     1   109.5600471 388.275200
   6252   6263   6266     1   109.5600471 388.275200
   6252   6263   6267     1   109.5600471 388.275200
   6253   6252   6254     1   109.5600471 388.275200
   6253   6255   6259     1   109.5600471 388.275200
   6253   6273   6274     1   107.2600461 396.643200
   6254   6252   6263     1   109.5600471 388.275200
   6254   6252   6270     1   109.7800468 425.094400
   6255   6253   6272     1   109.5600471 388.275200
   6255   6256   6258     1   109.5600471 388.275200
   6255   6262   6264     1   107.2600461 396.643200
   6256   6255   6259     1   109.5600471 388.275200
   6256   6257   6260     1   110.2200475 386.601600
   6256   6275   6265     1   109.2900470 396.643200
   6257   6256   6258     1   109.5600471 388.275200
   6257   6261   6271     1   107.2600461 396.643200
   6258   6256   6275     1   109.8800469 414.216000
   6259   6255   6262     1   110.2600474 425.931200
   6260   6257   6261     1   109.4300470 427.604800
   6260   6257   6270     1   109.5800467 425.931200
   6263   6268   6269     1   107.2600461 396.643200
   6266   6263   6268     1   110.2600474 425.931200
   6266   6263   6267     1   108.4600466 328.025600
   6267   6263   6268     1   110.2600474 425.931200
   6272   6253   6273     1   110.2600474 425.931200
   6276   6277   6296     1   109.5600471 388.275200
   6276   6287   6290     1   109.5600471 388.275200
   6276   6287   6291     1   109.5600471 388.275200
   6277   6276   6278     1   109.5600471 388.275200
   6277   6279   6283     1   109.5600471 388.275200
   6277   6297   6298     1   107.2600461 396.643200
   6278   6276   6287     1   109.5600471 388.275200
   6278   6276   6294     1   109.7800468 425.094400
   6279   6277   6296     1   109.5600471 388.275200
   6279   6280   6282     1   109.5600471 388.275200
   6279   6286   6288     1   107.2600461 396.643200
   6280   6279   6283     1   109.5600471 388.275200
   6280   6281   6284     1   110.2200475 386.601600
   6280   6299   6289     1   109.2900470 396.643200
   6281   6280   6282     1   109.5600471 388.275200
   6281   6285   6295     1   107.2600461 396.643200
   6282   6280   6299     1   109.8800469 414.216000
   6283   6279   6286     1   110.2600474 425.931200
   6284   6281   6285     1   109.4300470 427.604800
   6284   6281   6294     1   109.5800467 425.931200
   6287   6292   6293     1   107.2600461 396.643200
   6290   6287   6292     1   110.2600474 425.931200
   6290   6287   6291     1   108.4600466 328.025600
   6291   6287   6292     1   110.2600474 425.931200
   6296   6277   6297     1   110.2600474 425.931200
   6301   6303   6304     1   108.8800464 416.726400
   6301   6303   6306     1   108.8800464 416.726400
   6302   6301   6303     1   117.6800502 383.254400
   6303   6305   6307     1   109.5600471 388.275200
   6303   6305   6308     1   109.5600471 388.275200
   6304   6303   6305     1   109.5600471 388.275200
   6304   6303   6306     1   108.4600466 328.025600
   6305   6309   6374     1   110.1100470 384.091200
   6305   6303   6306     1   109.5600471 388.275200
   6307   6305   6309     1   107.9000462 406.684800
   6307   6305   6308     1   108.4600466 328.025600
   6308   6305   6309     1   107.9000462 406.684800
   6309   6310   6319     1   107.9000462 406.684800
   6309   6310   6320     1   107.9000462 406.684800
   6309   6311   6312     1   107.9000462 406.684800
   6309   6311   6314     1   107.9000462 406.684800
   6310   6321   6322     1   109.8000471 387.438400
   6310   6321   6323     1   109.8000471 387.438400
   6310   6309   6374     1   110.1100470 384.091200
   6311   6313   6315     1   109.8000471 387.438400
   6311   6313   6316     1   109.8000471 387.438400
   6311   6309   6374     1   110.1100470 384.091200
   6312   6311   6313     1   109.5600471 388.275200
   6312   6311   6314     1   108.4600466 328.025600
   6313   6311   6314     1   109.5600471 388.275200
   6315   6313   6317     1   108.7700466 392.459200
   6315   6313   6316     1   107.5800459 329.699200
   6316   6313   6317     1   108.7700466 392.459200
   6317   6349   6339     1   119.3800509 410.868800
   6319   6310   6321     1   109.5600471 388.275200
   6319   6310   6320     1   108.4600466 328.025600
   6320   6310   6321     1   109.5600471 388.275200
   6322   6321   6324     1   108.7700466 392.459200
   6322   6321   6323     1   107.5800459 329.699200
   6323   6321   6324     1   108.7700466 392.459200
   6324   6373   6363     1   119.3800509 410.868800
   6326   6327   6346     1   109.5600471 388.275200
   6326   6337   6340     1   109.5600471 388.275200
   6326   6337   6341     1   109.5600471 388.275200
   6327   6329   6333     1   109.5600471 388.275200
   6327   6347   6348     1   107.2600461 396.643200
   6327   6326   6328     1   109.5600471 388.275200
   6328   6326   6337     1   109.5600471 388.275200
   6328   6326   6344     1   109.7800468 425.094400
   6329   6330   6332     1   109.5600471 388.275200
   6329   6336   6338     1   107.2600461 396.643200
   6329   6327   6346     1   109.5600471 388.275200
   6330   6331   6334     1   110.2200475 386.601600
   6330   6349   6339     1   109.2900470 396.643200
   6330   6329   6333     1   109.5600471 388.275200
   6331   6335   6345     1   107.2600461 396.643200
   6331   6330   6332     1   109.5600471 388.275200
   6332   6330   6349     1   109.8800469 414.216000
   6333   6329   6336     1   110.2600474 425.931200
   6334   6331   6335     1   109.4300470 427.604800
   6334   6331   6344     1   109.5800467 425.931200
   6337   6342   6343     1   107.2600461 396.643200
   6340   6337   6342     1   110.2600474 425.931200
   6340   6337   6341     1   108.4600466 328.025600
   6341   6337   6342     1   110.2600474 425.931200
   6346   6327   6347     1   110.2600474 425.931200
   6350   6351   6370     1   109.5600471 388.275200
   6350   6361   6364     1   109.5600471 388.275200
   6350   6361   6365     1   109.5600471 388.275200
   6351   6353   6357     1   109.5600471 388.275200
   6351   6371   6372     1   107.2600461 396.643200
   6351   6350   6352     1   109.5600471 388.275200
   6352   6350   6361     1   109.5600471 388.275200
   6352   6350   6368     1   109.7800468 425.094400
   6353   6354   6356     1   109.5600471 388.275200
   6353   6360   6362     1   107.2600461 396.643200
   6353   6351   6370     1   109.5600471 388.275200
   6354   6355   6358     1   110.2200475 386.601600
   6354   6373   6363     1   109.2900470 396.643200
   6354   6353   6357     1   109.5600471 388.275200
   6355   6359   6369     1   107.2600461 396.643200
   6355   6354   6356     1   109.5600471 388.275200
   6356   6354   6373     1   109.8800469 414.216000
   6357   6353   6360     1   110.2600474 425.931200
   6358   6355   6359     1   109.4300470 427.604800
   6358   6355   6368     1   109.5800467 425.931200
   6361   6366   6367     1   107.2600461 396.643200
   6364   6361   6366     1   110.2600474 425.931200
   6364   6361   6365     1   108.4600466 328.025600
   6365   6361   6366     1   110.2600474 425.931200
   6370   6351   6371     1   110.2600474 425.931200
   6375   6377   6378     1   108.8800464 416.726400
   6375   6377   6380     1   108.8800464 416.726400
   6376   6375   6377     1   117.6800502 383.254400
   6377   6379   6381     1   109.5600471 388.275200
   6377   6379   6382     1   109.5600471 388.275200
   6378   6377   6379     1   109.5600471 388.275200
   6378   6377   6380     1   108.4600466 328.025600
   6379   6377   6380     1   109.5600471 388.275200
   6379   6383   6448     1   110.1100470 384.091200
   6381   6379   6383     1   107.9000462 406.684800
   6381   6379   6382     1   108.4600466 328.025600
   6382   6379   6383     1   107.9000462 406.684800
   6383   6384   6393     1   107.9000462 406.684800
   6383   6384   6394     1   107.9000462 406.684800
   6383   6385   6386     1   107.9000462 406.684800
   6383   6385   6388     1   107.9000462 406.684800
   6384   6383   6448     1   110.1100470 384.091200
   6384   6395   6396     1   109.8000471 387.438400
   6384   6395   6397     1   109.8000471 387.438400
   6385   6383   6448     1   110.1100470 384.091200
   6385   6387   6389     1   109.8000471 387.438400
   6385   6387   6390     1   109.8000471 387.438400
   6386   6385   6387     1   109.5600471 388.275200
   6386   6385   6388     1   108.4600466 328.025600
   6387   6385   6388     1   109.5600471 388.275200
   6389   6387   6391     1   108.7700466 392.459200
   6389   6387   6390     1   107.5800459 329.699200
   6390   6387   6391     1   108.7700466 392.459200
   6391   6423   6413     1   119.3800509 410.868800
   6393   6384   6395     1   109.5600471 388.275200
   6393   6384   6394     1   108.4600466 328.025600
   6394   6384   6395     1   109.5600471 388.275200
   6396   6395   6398     1   108.7700466 392.459200
   6396   6395   6397     1   107.5800459 329.699200
   6397   6395   6398     1   108.7700466 392.459200
   6398   6447   6437     1   119.3800509 410.868800
   6400   6401   6420     1   109.5600471 388.275200
   6400   6411   6414     1   109.5600471 388.275200
   6400   6411   6415     1   109.5600471 388.275200
   6401   6400   6402     1   109.5600471 388.275200
   6401   6403   6407     1   109.5600471 388.275200
   6401   6421   6422     1   107.2600461 396.643200
   6402   6400   6411     1   109.5600471 388.275200
   6402   6400   6418     1   109.7800468 425.094400
   6403   6401   6420     1   109.5600471 388.275200
   6403   6404   6406     1   109.5600471 388.275200
   6403   6410   6412     1   107.2600461 396.643200
   6404   6403   6407     1   109.5600471 388.275200
   6404   6405   6408     1   110.2200475 386.601600
   6404   6423   6413     1   109.2900470 396.643200
   6405   6404   6406     1   109.5600471 388.275200
   6405   6409   6419     1   107.2600461 396.643200
   6406   6404   6423     1   109.8800469 414.216000
   6407   6403   6410     1   110.2600474 425.931200
   6408   6405   6409     1   109.4300470 427.604800
   6408   6405   6418     1   109.5800467 425.931200
   6411   6416   6417     1   107.2600461 396.643200
   6414   6411   6416     1   110.2600474 425.931200
   6414   6411   6415     1   108.4600466 328.025600
   6415   6411   6416     1   110.2600474 425.931200
   6420   6401   6421     1   110.2600474 425.931200
   6424   6425   6444     1   109.5600471 388.275200
   6424   6435   6438     1   109.5600471 388.275200
   6424   6435   6439     1   109.5600471 388.275200
   6425   6424   6426     1   109.5600471 388.275200
   6425   6427   6431     1   109.5600471 388.275200
   6425   6445   6446     1   107.2600461 396.643200
   6426   6424   6435     1   109.5600471 388.275200
   6426   6424   6442     1   109.7800468 425.094400
   6427   6425   6444     1   109.5600471 388.275200
   6427   6428   6430     1   109.5600471 388.275200
   6427   6434   6436     1   107.2600461 396.643200
   6428   6427   6431     1   109.5600471 388.275200
   6428   6429   6432     1   110.2200475 386.601600
   6428   6447   6437     1   109.2900470 396.643200
   6429   6428   6430     1   109.5600471 388.275200
   6429   6433   6443     1   107.2600461 396.643200
   6430   6428   6447     1   109.8800469 414.216000
   6431   6427   6434     1   110.2600474 425.931200
   6432   6429   6433     1   109.4300470 427.604800
   6432   6429   6442     1   109.5800467 425.931200
   6435   6440   6441     1   107.2600461 396.643200
   6438   6435   6440     1   110.2600474 425.931200
   6438   6435   6439     1   108.4600466 328.025600
   6439   6435   6440     1   110.2600474 425.931200
   6444   6425   6445     1   110.2600474 425.931200
   6449   6451   6452     1   108.8800464 416.726400
   6449   6451   6454     1   108.8800464 416.726400
   6450   6449   6451     1   117.6800502 383.254400
   6451   6453   6455     1   109.5600471 388.275200
   6451   6453   6456     1   109.5600471 388.275200
   6452   6451   6453     1   109.5600471 388.275200
   6452   6451   6454     1   108.4600466 328.025600
   6453   6457   6522     1   110.1100470 384.091200
   6453   6451   6454     1   109.5600471 388.275200
   6455   6453   6457     1   107.9000462 406.684800
   6455   6453   6456     1   108.4600466 328.025600
   6456   6453   6457     1   107.9000462 406.684800
   6457   6458   6467     1   107.9000462 406.684800
   6457   6458   6468     1   107.9000462 406.684800
   6457   6459   6460     1   107.9000462 406.684800
   6457   6459   6462     1   107.9000462 406.684800
   6458   6469   6470     1   109.8000471 387.438400
   6458   6469   6471     1   109.8000471 387.438400
   6458   6457   6522     1   110.1100470 384.091200
   6459   6461   6463     1   109.8000471 387.438400
   6459   6461   6464     1   109.8000471 387.438400
   6459   6457   6522     1   110.1100470 384.091200
   6460   6459   6461     1   109.5600471 388.275200
   6460   6459   6462     1   108.4600466 328.025600
   6461   6459   6462     1   109.5600471 388.275200
   6463   6461   6465     1   108.7700466 392.459200
   6463   6461   6464     1   107.5800459 329.699200
   6464   6461   6465     1   108.7700466 392.459200
   6465   6497   6487     1   119.3800509 410.868800
   6467   6458   6469     1   109.5600471 388.275200
   6467   6458   6468     1   108.4600466 328.025600
   6468   6458   6469     1   109.5600471 388.275200
   6470   6469   6472     1   108.7700466 392.459200
   6470   6469   6471     1   107.5800459 329.699200
   6471   6469   6472     1   108.7700466 392.459200
   6472   6521   6511     1   119.3800509 410.868800
   6474   6475   6494     1   109.5600471 388.275200
   6474   6485   6488     1   109.5600471 388.275200
   6474   6485   6489     1   109.5600471 388.275200
   6475   6477   6481     1   109.5600471 388.275200
   6475   6495   6496     1   107.2600461 396.643200
   6475   6474   6476     1   109.5600471 388.275200
   6476   6474   6485     1   109.5600471 388.275200
   6476   6474   6492     1   109.7800468 425.094400
   6477   6478   6480     1   109.5600471 388.275200
   6477   6484   6486     1   107.2600461 396.643200
   6477   6475   6494     1   109.5600471 388.275200
   6478   6479   6482     1   110.2200475 386.601600
   6478   6497   6487     1   109.2900470 396.643200
   6478   6477   6481     1   109.5600471 388.275200
   6479   6483   6493     1   107.2600461 396.643200
   6479   6478   6480     1   109.5600471 388.275200
   6480   6478   6497     1   109.8800469 414.216000
   6481   6477   6484     1   110.2600474 425.931200
   6482   6479   6483     1   109.4300470 427.604800
   6482   6479   6492     1   109.5800467 425.931200
   6485   6490   6491     1   107.2600461 396.643200
   6488   6485   6490     1   110.2600474 425.931200
   6488   6485   6489     1   108.4600466 328.025600
   6489   6485   6490     1   110.2600474 425.931200
   6494   6475   6495     1   110.2600474 425.931200
   6498   6499   6518     1   109.5600471 388.275200
   6498   6509   6512     1   109.5600471 388.275200
   6498   6509   6513     1   109.5600471 388.275200
   6499   6501   6505     1   109.5600471 388.275200
   6499   6519   6520     1   107.2600461 396.643200
   6499   6498   6500     1   109.5600471 388.275200
   6500   6498   6509     1   109.5600471 388.275200
   6500   6498   6516     1   109.7800468 425.094400
   6501   6502   6504     1   109.5600471 388.275200
   6501   6508   6510     1   107.2600461 396.643200
   6501   6499   6518     1   109.5600471 388.275200
   6502   6503   6506     1   110.2200475 386.601600
   6502   6521   6511     1   109.2900470 396.643200
   6502   6501   6505     1   109.5600471 388.275200
   6503   6507   6517     1   107.2600461 396.643200
   6503   6502   6504     1   109.5600471 388.275200
   6504   6502   6521     1   109.8800469 414.216000
   6505   6501   6508     1   110.2600474 425.931200
   6506   6503   6507     1   109.4300470 427.604800
   6506   6503   6516     1   109.5800467 425.931200
   6509   6514   6515     1   107.2600461 396.643200
   6512   6509   6514     1   110.2600474 425.931200
   6512   6509   6513     1   108.4600466 328.025600
   6513   6509   6514     1   110.2600474 425.931200
   6518   6499   6519     1   110.2600474 425.931200
   6523   6525   6526     1   108.8800464 416.726400
   6523   6525   6528     1   108.8800464 416.726400
   6524   6523   6525     1   117.6800502 383.254400
   6525   6527   6529     1   109.5600471 388.275200
   6525   6527   6530     1   109.5600471 388.275200
   6526   6525   6527     1   109.5600471 388.275200
   6526   6525   6528     1   108.4600466 328.025600
   6527   6525   6528     1   109.5600471 388.275200
   6527   6531   6596     1   110.1100470 384.091200
   6529   6527   6531     1   107.9000462 406.684800
   6529   6527   6530     1   108.4600466 328.025600
   6530   6527   6531     1   107.9000462 406.684800
   6531   6532   6541     1   107.9000462 406.684800
   6531   6532   6542     1   107.9000462 406.684800
   6531   6533   6534     1   107.9000462 406.684800
   6531   6533   6536     1   107.9000462 406.684800
   6532   6531   6596     1   110.1100470 384.091200
   6532   6543   6544     1   109.8000471 387.438400
   6532   6543   6545     1   109.8000471 387.438400
   6533   6531   6596     1   110.1100470 384.091200
   6533   6535   6537     1   109.8000471 387.438400
   6533   6535   6538     1   109.8000471 387.438400
   6534   6533   6535     1   109.5600471 388.275200
   6534   6533   6536     1   108.4600466 328.025600
   6535   6533   6536     1   109.5600471 388.275200
   6537   6535   6539     1   108.7700466 392.459200
   6537   6535   6538     1   107.5800459 329.699200
   6538   6535   6539     1   108.7700466 392.459200
   6539   6571   6561     1   119.3800509 410.868800
   6541   6532   6543     1   109.5600471 388.275200
   6541   6532   6542     1   108.4600466 328.025600
   6542   6532   6543     1   109.5600471 388.275200
   6544   6543   6546     1   108.7700466 392.459200
   6544   6543   6545     1   107.5800459 329.699200
   6545   6543   6546     1   108.7700466 392.459200
   6546   6595   6585     1   119.3800509 410.868800
   6548   6549   6568     1   109.5600471 388.275200
   6548   6559   6562     1   109.5600471 388.275200
   6548   6559   6563     1   109.5600471 388.275200
   6549   6548   6550     1   109.5600471 388.275200
   6549   6551   6555     1   109.5600471 388.275200
   6549   6569   6570     1   107.2600461 396.643200
   6550   6548   6559     1   109.5600471 388.275200
   6550   6548   6566     1   109.7800468 425.094400
   6551   6549   6568     1   109.5600471 388.275200
   6551   6552   6554     1   109.5600471 388.275200
   6551   6558   6560     1   107.2600461 396.643200
   6552   6551   6555     1   109.5600471 388.275200
   6552   6553   6556     1   110.2200475 386.601600
   6552   6571   6561     1   109.2900470 396.643200
   6553   6552   6554     1   109.5600471 388.275200
   6553   6557   6567     1   107.2600461 396.643200
   6554   6552   6571     1   109.8800469 414.216000
   6555   6551   6558     1   110.2600474 425.931200
   6556   6553   6557     1   109.4300470 427.604800
   6556   6553   6566     1   109.5800467 425.931200
   6559   6564   6565     1   107.2600461 396.643200
   6562   6559   6564     1   110.2600474 425.931200
   6562   6559   6563     1   108.4600466 328.025600
   6563   6559   6564     1   110.2600474 425.931200
   6568   6549   6569     1   110.2600474 425.931200
   6572   6573   6592     1   109.5600471 388.275200
   6572   6583   6586     1   109.5600471 388.275200
   6572   6583   6587     1   109.5600471 388.275200
   6573   6572   6574     1   109.5600471 388.275200
   6573   6575   6579     1   109.5600471 388.275200
   6573   6593   6594     1   107.2600461 396.643200
   6574   6572   6583     1   109.5600471 388.275200
   6574   6572   6590     1   109.7800468 425.094400
   6575   6573   6592     1   109.5600471 388.275200
   6575   6576   6578     1   109.5600471 388.275200
   6575   6582   6584     1   107.2600461 396.643200
   6576   6575   6579     1   109.5600471 388.275200
   6576   6577   6580     1   110.2200475 386.601600
   6576   6595   6585     1   109.2900470 396.643200
   6577   6576   6578     1   109.5600471 388.275200
   6577   6581   6591     1   107.2600461 396.643200
   6578   6576   6595     1   109.8800469 414.216000
   6579   6575   6582     1   110.2600474 425.931200
   6580   6577   6581     1   109.4300470 427.604800
   6580   6577   6590     1   109.5800467 425.931200
   6583   6588   6589     1   107.2600461 396.643200
   6586   6583   6588     1   110.2600474 425.931200
   6586   6583   6587     1   108.4600466 328.025600
   6587   6583   6588     1   110.2600474 425.931200
   6592   6573   6593     1   110.2600474 425.931200
   6597   6599   6600     1   108.8800464 416.726400
   6597   6599   6602     1   108.8800464 416.726400
   6598   6597   6599     1   117.6800502 383.254400
   6599   6601   6603     1   109.5600471 388.275200
   6599   6601   6604     1   109.5600471 388.275200
   6600   6599   6601     1   109.5600471 388.275200
   6600   6599   6602     1   108.4600466 328.025600
   6601   6605   6670     1   110.1100470 384.091200
   6601   6599   6602     1   109.5600471 388.275200
   6603   6601   6605     1   107.9000462 406.684800
   6603   6601   6604     1   108.4600466 328.025600
   6604   6601   6605     1   107.9000462 406.684800
   6605   6606   6615     1   107.9000462 406.684800
   6605   6606   6616     1   107.9000462 406.684800
   6605   6607   6608     1   107.9000462 406.684800
   6605   6607   6610     1   107.9000462 406.684800
   6606   6617   6618     1   109.8000471 387.438400
   6606   6617   6619     1   109.8000471 387.438400
   6606   6605   6670     1   110.1100470 384.091200
   6607   6609   6611     1   109.8000471 387.438400
   6607   6609   6612     1   109.8000471 387.438400
   6607   6605   6670     1   110.1100470 384.091200
   6608   6607   6609     1   109.5600471 388.275200
   6608   6607   6610     1   108.4600466 328.025600
   6609   6607   6610     1   109.5600471 388.275200
   6611   6609   6613     1   108.7700466 392.459200
   6611   6609   6612     1   107.5800459 329.699200
   6612   6609   6613     1   108.7700466 392.459200
   6613   6645   6635     1   119.3800509 410.868800
   6615   6606   6617     1   109.5600471 388.275200
   6615   6606   6616     1   108.4600466 328.025600
   6616   6606   6617     1   109.5600471 388.275200
   6618   6617   6620     1   108.7700466 392.459200
   6618   6617   6619     1   107.5800459 329.699200
   6619   6617   6620     1   108.7700466 392.459200
   6620   6669   6659     1   119.3800509 410.868800
   6622   6623   6642     1   109.5600471 388.275200
   6622   6633   6636     1   109.5600471 388.275200
   6622   6633   6637     1   109.5600471 388.275200
   6623   6625   6629     1   109.5600471 388.275200
   6623   6643   6644     1   107.2600461 396.643200
   6623   6622   6624     1   109.5600471 388.275200
   6624   6622   6633     1   109.5600471 388.275200
   6624   6622   6640     1   109.7800468 425.094400
   6625   6626   6628     1   109.5600471 388.275200
   6625   6632   6634     1   107.2600461 396.643200
   6625   6623   6642     1   109.5600471 388.275200
   6626   6627   6630     1   110.2200475 386.601600
   6626   6645   6635     1   109.2900470 396.643200
   6626   6625   6629     1   109.5600471 388.275200
   6627   6631   6641     1   107.2600461 396.643200
   6627   6626   6628     1   109.5600471 388.275200
   6628   6626   6645     1   109.8800469 414.216000
   6629   6625   6632     1   110.2600474 425.931200
   6630   6627   6631     1   109.4300470 427.604800
   6630   6627   6640     1   109.5800467 425.931200
   6633   6638   6639     1   107.2600461 396.643200
   6636   6633   6638     1   110.2600474 425.931200
   6636   6633   6637     1   108.4600466 328.025600
   6637   6633   6638     1   110.2600474 425.931200
   6642   6623   6643     1   110.2600474 425.931200
   6646   6647   6666     1   109.5600471 388.275200
   6646   6657   6660     1   109.5600471 388.275200
   6646   6657   6661     1   109.5600471 388.275200
   6647   6649   6653     1   109.5600471 388.275200
   6647   6667   6668     1   107.2600461 396.643200
   6647   6646   6648     1   109.5600471 388.275200
   6648   6646   6657     1   109.5600471 388.275200
   6648   6646   6664     1   109.7800468 425.094400
   6649   6650   6652     1   109.5600471 388.275200
   6649   6656   6658     1   107.2600461 396.643200
   6649   6647   6666     1   109.5600471 388.275200
   6650   6651   6654     1   110.2200475 386.601600
   6650   6669   6659     1   109.2900470 396.643200
   6650   6649   6653     1   109.5600471 388.275200
   6651   6655   6665     1   107.2600461 396.643200
   6651   6650   6652     1   109.5600471 388.275200
   6652   6650   6669     1   109.8800469 414.216000
   6653   6649   6656     1   110.2600474 425.931200
   6654   6651   6655     1   109.4300470 427.604800
   6654   6651   6664     1   109.5800467 425.931200
   6657   6662   6663     1   107.2600461 396.643200
   6660   6657   6662     1   110.2600474 425.931200
   6660   6657   6661     1   108.4600466 328.025600
   6661   6657   6662     1   110.2600474 425.931200
   6666   6647   6667     1   110.2600474 425.931200
   6671   6673   6674     1   108.8800464 416.726400
   6671   6673   6676     1   108.8800464 416.726400
   6672   6671   6673     1   117.6800502 383.254400
   6673   6675   6677     1   109.5600471 388.275200
   6673   6675   6678     1   109.5600471 388.275200
   6674   6673   6675     1   109.5600471 388.275200
   6674   6673   6676     1   108.4600466 328.025600
   6675   6673   6676     1   109.5600471 388.275200
   6675   6679   6744     1   110.1100470 384.091200
   6677   6675   6679     1   107.9000462 406.684800
   6677   6675   6678     1   108.4600466 328.025600
   6678   6675   6679     1   107.9000462 406.684800
   6679   6680   6689     1   107.9000462 406.684800
   6679   6680   6690     1   107.9000462 406.684800
   6679   6681   6682     1   107.9000462 406.684800
   6679   6681   6684     1   107.9000462 406.684800
   6680   6679   6744     1   110.1100470 384.091200
   6680   6691   6692     1   109.8000471 387.438400
   6680   6691   6693     1   109.8000471 387.438400
   6681   6679   6744     1   110.1100470 384.091200
   6681   6683   6685     1   109.8000471 387.438400
   6681   6683   6686     1   109.8000471 387.438400
   6682   6681   6683     1   109.5600471 388.275200
   6682   6681   6684     1   108.4600466 328.025600
   6683   6681   6684     1   109.5600471 388.275200
   6685   6683   6687     1   108.7700466 392.459200
   6685   6683   6686     1   107.5800459 329.699200
   6686   6683   6687     1   108.7700466 392.459200
   6687   6719   6709     1   119.3800509 410.868800
   6689   6680   6691     1   109.5600471 388.275200
   6689   6680   6690     1   108.4600466 328.025600
   6690   6680   6691     1   109.5600471 388.275200
   6692   6691   6694     1   108.7700466 392.459200
   6692   6691   6693     1   107.5800459 329.699200
   6693   6691   6694     1   108.7700466 392.459200
   6694   6743   6733     1   119.3800509 410.868800
   6696   6697   6716     1   109.5600471 388.275200
   6696   6707   6710     1   109.5600471 388.275200
   6696   6707   6711     1   109.5600471 388.275200
   6697   6696   6698     1   109.5600471 388.275200
   6697   6699   6703     1   109.5600471 388.275200
   6697   6717   6718     1   107.2600461 396.643200
   6698   6696   6707     1   109.5600471 388.275200
   6698   6696   6714     1   109.7800468 425.094400
   6699   6697   6716     1   109.5600471 388.275200
   6699   6700   6702     1   109.5600471 388.275200
   6699   6706   6708     1   107.2600461 396.643200
   6700   6699   6703     1   109.5600471 388.275200
   6700   6701   6704     1   110.2200475 386.601600
   6700   6719   6709     1   109.2900470 396.643200
   6701   6700   6702     1   109.5600471 388.275200
   6701   6705   6715     1   107.2600461 396.643200
   6702   6700   6719     1   109.8800469 414.216000
   6703   6699   6706     1   110.2600474 425.931200
   6704   6701   6705     1   109.4300470 427.604800
   6704   6701   6714     1   109.5800467 425.931200
   6707   6712   6713     1   107.2600461 396.643200
   6710   6707   6712     1   110.2600474 425.931200
   6710   6707   6711     1   108.4600466 328.025600
   6711   6707   6712     1   110.2600474 425.931200
   6716   6697   6717     1   110.2600474 425.931200
   6720   6721   6740     1   109.5600471 388.275200
   6720   6731   6734     1   109.5600471 388.275200
   6720   6731   6735     1   109.5600471 388.275200
   6721   6720   6722     1   109.5600471 388.275200
   6721   6723   6727     1   109.5600471 388.275200
   6721   6741   6742     1   107.2600461 396.643200
   6722   6720   6731     1   109.5600471 388.275200
   6722   6720   6738     1   109.7800468 425.094400
   6723   6721   6740     1   109.5600471 388.275200
   6723   6724   6726     1   109.5600471 388.275200
   6723   6730   6732     1   107.2600461 396.643200
   6724   6723   6727     1   109.5600471 388.275200
   6724   6725   6728     1   110.2200475 386.601600
   6724   6743   6733     1   109.2900470 396.643200
   6725   6724   6726     1   109.5600471 388.275200
   6725   6729   6739     1   107.2600461 396.643200
   6726   6724   6743     1   109.8800469 414.216000
   6727   6723   6730     1   110.2600474 425.931200
   6728   6725   6729     1   109.4300470 427.604800
   6728   6725   6738     1   109.5800467 425.931200
   6731   6736   6737     1   107.2600461 396.643200
   6734   6731   6736     1   110.2600474 425.931200
   6734   6731   6735     1   108.4600466 328.025600
   6735   6731   6736     1   110.2600474 425.931200
   6740   6721   6741     1   110.2600474 425.931200
   6745   6747   6748     1   108.8800464 416.726400
   6745   6747   6750     1   108.8800464 416.726400
   6746   6745   6747     1   117.6800502 383.254400
   6747   6749   6751     1   109.5600471 388.275200
   6747   6749   6752     1   109.5600471 388.275200
   6748   6747   6749     1   109.5600471 388.275200
   6748   6747   6750     1   108.4600466 328.025600
   6749   6753   6818     1   110.1100470 384.091200
   6749   6747   6750     1   109.5600471 388.275200
   6751   6749   6753     1   107.9000462 406.684800
   6751   6749   6752     1   108.4600466 328.025600
   6752   6749   6753     1   107.9000462 406.684800
   6753   6754   6763     1   107.9000462 406.684800
   6753   6754   6764     1   107.9000462 406.684800
   6753   6755   6756     1   107.9000462 406.684800
   6753   6755   6758     1   107.9000462 406.684800
   6754   6765   6766     1   109.8000471 387.438400
   6754   6765   6767     1   109.8000471 387.438400
   6754   6753   6818     1   110.1100470 384.091200
   6755   6757   6759     1   109.8000471 387.438400
   6755   6757   6760     1   109.8000471 387.438400
   6755   6753   6818     1   110.1100470 384.091200
   6756   6755   6757     1   109.5600471 388.275200
   6756   6755   6758     1   108.4600466 328.025600
   6757   6755   6758     1   109.5600471 388.275200
   6759   6757   6761     1   108.7700466 392.459200
   6759   6757   6760     1   107.5800459 329.699200
   6760   6757   6761     1   108.7700466 392.459200
   6761   6793   6783     1   119.3800509 410.868800
   6763   6754   6765     1   109.5600471 388.275200
   6763   6754   6764     1   108.4600466 328.025600
   6764   6754   6765     1   109.5600471 388.275200
   6766   6765   6768     1   108.7700466 392.459200
   6766   6765   6767     1   107.5800459 329.699200
   6767   6765   6768     1   108.7700466 392.459200
   6768   6817   6807     1   119.3800509 410.868800
   6770   6771   6790     1   109.5600471 388.275200
   6770   6781   6784     1   109.5600471 388.275200
   6770   6781   6785     1   109.5600471 388.275200
   6771   6773   6777     1   109.5600471 388.275200
   6771   6791   6792     1   107.2600461 396.643200
   6771   6770   6772     1   109.5600471 388.275200
   6772   6770   6781     1   109.5600471 388.275200
   6772   6770   6788     1   109.7800468 425.094400
   6773   6774   6776     1   109.5600471 388.275200
   6773   6780   6782     1   107.2600461 396.643200
   6773   6771   6790     1   109.5600471 388.275200
   6774   6775   6778     1   110.2200475 386.601600
   6774   6793   6783     1   109.2900470 396.643200
   6774   6773   6777     1   109.5600471 388.275200
   6775   6779   6789     1   107.2600461 396.643200
   6775   6774   6776     1   109.5600471 388.275200
   6776   6774   6793     1   109.8800469 414.216000
   6777   6773   6780     1   110.2600474 425.931200
   6778   6775   6779     1   109.4300470 427.604800
   6778   6775   6788     1   109.5800467 425.931200
   6781   6786   6787     1   107.2600461 396.643200
   6784   6781   6786     1   110.2600474 425.931200
   6784   6781   6785     1   108.4600466 328.025600
   6785   6781   6786     1   110.2600474 425.931200
   6790   6771   6791     1   110.2600474 425.931200
   6794   6795   6814     1   109.5600471 388.275200
   6794   6805   6808     1   109.5600471 388.275200
   6794   6805   6809     1   109.5600471 388.275200
   6795   6797   6801     1   109.5600471 388.275200
   6795   6815   6816     1   107.2600461 396.643200
   6795   6794   6796     1   109.5600471 388.275200
   6796   6794   6805     1   109.5600471 388.275200
   6796   6794   6812     1   109.7800468 425.094400
   6797   6798   6800     1   109.5600471 388.275200
   6797   6804   6806     1   107.2600461 396.643200
   6797   6795   6814     1   109.5600471 388.275200
   6798   6799   6802     1   110.2200475 386.601600
   6798   6817   6807     1   109.2900470 396.643200
   6798   6797   6801     1   109.5600471 388.275200
   6799   6803   6813     1   107.2600461 396.643200
   6799   6798   6800     1   109.5600471 388.275200
   6800   6798   6817     1   109.8800469 414.216000
   6801   6797   6804     1   110.2600474 425.931200
   6802   6799   6803     1   109.4300470 427.604800
   6802   6799   6812     1   109.5800467 425.931200
   6805   6810   6811     1   107.2600461 396.643200
   6808   6805   6810     1   110.2600474 425.931200
   6808   6805   6809     1   108.4600466 328.025600
   6809   6805   6810     1   110.2600474 425.931200
   6814   6795   6815     1   110.2600474 425.931200
   6819   6821   6822     1   108.8800464 416.726400
   6819   6821   6824     1   108.8800464 416.726400
   6820   6819   6821     1   117.6800502 383.254400
   6821   6823   6825     1   109.5600471 388.275200
   6821   6823   6826     1   109.5600471 388.275200
   6822   6821   6823     1   109.5600471 388.275200
   6822   6821   6824     1   108.4600466 328.025600
   6823   6821   6824     1   109.5600471 388.275200
   6823   6827   6892     1   110.1100470 384.091200
   6825   6823   6827     1   107.9000462 406.684800
   6825   6823   6826     1   108.4600466 328.025600
   6826   6823   6827     1   107.9000462 406.684800
   6827   6828   6837     1   107.9000462 406.684800
   6827   6828   6838     1   107.9000462 406.684800
   6827   6829   6830     1   107.9000462 406.684800
   6827   6829   6832     1   107.9000462 406.684800
   6828   6827   6892     1   110.1100470 384.091200
   6828   6839   6840     1   109.8000471 387.438400
   6828   6839   6841     1   109.8000471 387.438400
   6829   6827   6892     1   110.1100470 384.091200
   6829   6831   6833     1   109.8000471 387.438400
   6829   6831   6834     1   109.8000471 387.438400
   6830   6829   6831     1   109.5600471 388.275200
   6830   6829   6832     1   108.4600466 328.025600
   6831   6829   6832     1   109.5600471 388.275200
   6833   6831   6835     1   108.7700466 392.459200
   6833   6831   6834     1   107.5800459 329.699200
   6834   6831   6835     1   108.7700466 392.459200
   6835   6867   6857     1   119.3800509 410.868800
   6837   6828   6839     1   109.5600471 388.275200
   6837   6828   6838     1   108.4600466 328.025600
   6838   6828   6839     1   109.5600471 388.275200
   6840   6839   6842     1   108.7700466 392.459200
   6840   6839   6841     1   107.5800459 329.699200
   6841   6839   6842     1   108.7700466 392.459200
   6842   6891   6881     1   119.3800509 410.868800
   6844   6845   6864     1   109.5600471 388.275200
   6844   6855   6858     1   109.5600471 388.275200
   6844   6855   6859     1   109.5600471 388.275200
   6845   6844   6846     1   109.5600471 388.275200
   6845   6847   6851     1   109.5600471 388.275200
   6845   6865   6866     1   107.2600461 396.643200
   6846   6844   6855     1   109.5600471 388.275200
   6846   6844   6862     1   109.7800468 425.094400
   6847   6845   6864     1   109.5600471 388.275200
   6847   6848   6850     1   109.5600471 388.275200
   6847   6854   6856     1   107.2600461 396.643200
   6848   6847   6851     1   109.5600471 388.275200
   6848   6849   6852     1   110.2200475 386.601600
   6848   6867   6857     1   109.2900470 396.643200
   6849   6848   6850     1   109.5600471 388.275200
   6849   6853   6863     1   107.2600461 396.643200
   6850   6848   6867     1   109.8800469 414.216000
   6851   6847   6854     1   110.2600474 425.931200
   6852   6849   6853     1   109.4300470 427.604800
   6852   6849   6862     1   109.5800467 425.931200
   6855   6860   6861     1   107.2600461 396.643200
   6858   6855   6860     1   110.2600474 425.931200
   6858   6855   6859     1   108.4600466 328.025600
   6859   6855   6860     1   110.2600474 425.931200
   6864   6845   6865     1   110.2600474 425.931200
   6868   6869   6888     1   109.5600471 388.275200
   6868   6879   6882     1   109.5600471 388.275200
   6868   6879   6883     1   109.5600471 388.275200
   6869   6868   6870     1   109.5600471 388.275200
   6869   6871   6875     1   109.5600471 388.275200
   6869   6889   6890     1   107.2600461 396.643200
   6870   6868   6879     1   109.5600471 388.275200
   6870   6868   6886     1   109.7800468 425.094400
   6871   6869   6888     1   109.5600471 388.275200
   6871   6872   6874     1   109.5600471 388.275200
   6871   6878   6880     1   107.2600461 396.643200
   6872   6871   6875     1   109.5600471 388.275200
   6872   6873   6876     1   110.2200475 386.601600
   6872   6891   6881     1   109.2900470 396.643200
   6873   6872   6874     1   109.5600471 388.275200
   6873   6877   6887     1   107.2600461 396.643200
   6874   6872   6891     1   109.8800469 414.216000
   6875   6871   6878     1   110.2600474 425.931200
   6876   6873   6877     1   109.4300470 427.604800
   6876   6873   6886     1   109.5800467 425.931200
   6879   6884   6885     1   107.2600461 396.643200
   6882   6879   6884     1   110.2600474 425.931200
   6882   6879   6883     1   108.4600466 328.025600
   6883   6879   6884     1   110.2600474 425.931200
   6888   6869   6889     1   110.2600474 425.931200
   6893   6895   6896     1   108.8800464 416.726400
   6893   6895   6898     1   108.8800464 416.726400
   6894   6893   6895     1   117.6800502 383.254400
   6895   6897   6899     1   109.5600471 388.275200
   6895   6897   6900     1   109.5600471 388.275200
   6896   6895   6897     1   109.5600471 388.275200
   6896   6895   6898     1   108.4600466 328.025600
   6897   6901   6966     1   110.1100470 384.091200
   6897   6895   6898     1   109.5600471 388.275200
   6899   6897   6901     1   107.9000462 406.684800
   6899   6897   6900     1   108.4600466 328.025600
   6900   6897   6901     1   107.9000462 406.684800
   6901   6902   6911     1   107.9000462 406.684800
   6901   6902   6912     1   107.9000462 406.684800
   6901   6903   6904     1   107.9000462 406.684800
   6901   6903   6906     1   107.9000462 406.684800
   6902   6913   6914     1   109.8000471 387.438400
   6902   6913   6915     1   109.8000471 387.438400
   6902   6901   6966     1   110.1100470 384.091200
   6903   6905   6907     1   109.8000471 387.438400
   6903   6905   6908     1   109.8000471 387.438400
   6903   6901   6966     1   110.1100470 384.091200
   6904   6903   6905     1   109.5600471 388.275200
   6904   6903   6906     1   108.4600466 328.025600
   6905   6903   6906     1   109.5600471 388.275200
   6907   6905   6909     1   108.7700466 392.459200
   6907   6905   6908     1   107.5800459 329.699200
   6908   6905   6909     1   108.7700466 392.459200
   6909   6941   6931     1   119.3800509 410.868800
   6911   6902   6913     1   109.5600471 388.275200
   6911   6902   6912     1   108.4600466 328.025600
   6912   6902   6913     1   109.5600471 388.275200
   6914   6913   6916     1   108.7700466 392.459200
   6914   6913   6915     1   107.5800459 329.699200
   6915   6913   6916     1   108.7700466 392.459200
   6916   6965   6955     1   119.3800509 410.868800
   6918   6919   6938     1   109.5600471 388.275200
   6918   6929   6932     1   109.5600471 388.275200
   6918   6929   6933     1   109.5600471 388.275200
   6919   6921   6925     1   109.5600471 388.275200
   6919   6939   6940     1   107.2600461 396.643200
   6919   6918   6920     1   109.5600471 388.275200
   6920   6918   6929     1   109.5600471 388.275200
   6920   6918   6936     1   109.7800468 425.094400
   6921   6922   6924     1   109.5600471 388.275200
   6921   6928   6930     1   107.2600461 396.643200
   6921   6919   6938     1   109.5600471 388.275200
   6922   6923   6926     1   110.2200475 386.601600
   6922   6941   6931     1   109.2900470 396.643200
   6922   6921   6925     1   109.5600471 388.275200
   6923   6927   6937     1   107.2600461 396.643200
   6923   6922   6924     1   109.5600471 388.275200
   6924   6922   6941     1   109.8800469 414.216000
   6925   6921   6928     1   110.2600474 425.931200
   6926   6923   6927     1   109.4300470 427.604800
   6926   6923   6936     1   109.5800467 425.931200
   6929   6934   6935     1   107.2600461 396.643200
   6932   6929   6934     1   110.2600474 425.931200
   6932   6929   6933     1   108.4600466 328.025600
   6933   6929   6934     1   110.2600474 425.931200
   6938   6919   6939     1   110.2600474 425.931200
   6942   6943   6962     1   109.5600471 388.275200
   6942   6953   6956     1   109.5600471 388.275200
   6942   6953   6957     1   109.5600471 388.275200
   6943   6945   6949     1   109.5600471 388.275200
   6943   6963   6964     1   107.2600461 396.643200
   6943   6942   6944     1   109.5600471 388.275200
   6944   6942   6953     1   109.5600471 388.275200
   6944   6942   6960     1   109.7800468 425.094400
   6945   6946   6948     1   109.5600471 388.275200
   6945   6952   6954     1   107.2600461 396.643200
   6945   6943   6962     1   109.5600471 388.275200
   6946   6947   6950     1   110.2200475 386.601600
   6946   6965   6955     1   109.2900470 396.643200
   6946   6945   6949     1   109.5600471 388.275200
   6947   6951   6961     1   107.2600461 396.643200
   6947   6946   6948     1   109.5600471 388.275200
   6948   6946   6965     1   109.8800469 414.216000
   6949   6945   6952     1   110.2600474 425.931200
   6950   6947   6951     1   109.4300470 427.604800
   6950   6947   6960     1   109.5800467 425.931200
   6953   6958   6959     1   107.2600461 396.643200
   6956   6953   6958     1   110.2600474 425.931200
   6956   6953   6957     1   108.4600466 328.025600
   6957   6953   6958     1   110.2600474 425.931200
   6962   6943   6963     1   110.2600474 425.931200
   6967   6969   6970     1   108.8800464 416.726400
   6967   6969   6972     1   108.8800464 416.726400
   6968   6967   6969     1   117.6800502 383.254400
   6969   6971   6973     1   109.5600471 388.275200
   6969   6971   6974     1   109.5600471 388.275200
   6970   6969   6971     1   109.5600471 388.275200
   6970   6969   6972     1   108.4600466 328.025600
   6971   6969   6972     1   109.5600471 388.275200
   6971   6975   7040     1   110.1100470 384.091200
   6973   6971   6975     1   107.9000462 406.684800
   6973   6971   6974     1   108.4600466 328.025600
   6974   6971   6975     1   107.9000462 406.684800
   6975   6976   6985     1   107.9000462 406.684800
   6975   6976   6986     1   107.9000462 406.684800
   6975   6977   6978     1   107.9000462 406.684800
   6975   6977   6980     1   107.9000462 406.684800
   6976   6975   7040     1   110.1100470 384.091200
   6976   6987   6988     1   109.8000471 387.438400
   6976   6987   6989     1   109.8000471 387.438400
   6977   6975   7040     1   110.1100470 384.091200
   6977   6979   6981     1   109.8000471 387.438400
   6977   6979   6982     1   109.8000471 387.438400
   6978   6977   6979     1   109.5600471 388.275200
   6978   6977   6980     1   108.4600466 328.025600
   6979   6977   6980     1   109.5600471 388.275200
   6981   6979   6983     1   108.7700466 392.459200
   6981   6979   6982     1   107.5800459 329.699200
   6982   6979   6983     1   108.7700466 392.459200
   6983   7015   7005     1   119.3800509 410.868800
   6985   6976   6987     1   109.5600471 388.275200
   6985   6976   6986     1   108.4600466 328.025600
   6986   6976   6987     1   109.5600471 388.275200
   6988   6987   6990     1   108.7700466 392.459200
   6988   6987   6989     1   107.5800459 329.699200
   6989   6987   6990     1   108.7700466 392.459200
   6990   7039   7029     1   119.3800509 410.868800
   6992   6993   7012     1   109.5600471 388.275200
   6992   7003   7006     1   109.5600471 388.275200
   6992   7003   7007     1   109.5600471 388.275200
   6993   6992   6994     1   109.5600471 388.275200
   6993   6995   6999     1   109.5600471 388.275200
   6993   7013   7014     1   107.2600461 396.643200
   6994   6992   7003     1   109.5600471 388.275200
   6994   6992   7010     1   109.7800468 425.094400
   6995   6993   7012     1   109.5600471 388.275200
   6995   6996   6998     1   109.5600471 388.275200
   6995   7002   7004     1   107.2600461 396.643200
   6996   6995   6999     1   109.5600471 388.275200
   6996   6997   7000     1   110.2200475 386.601600
   6996   7015   7005     1   109.2900470 396.643200
   6997   6996   6998     1   109.5600471 388.275200
   6997   7001   7011     1   107.2600461 396.643200
   6998   6996   7015     1   109.8800469 414.216000
   6999   6995   7002     1   110.2600474 425.931200
   7000   6997   7001     1   109.4300470 427.604800
   7000   6997   7010     1   109.5800467 425.931200
   7003   7008   7009     1   107.2600461 396.643200
   7006   7003   7008     1   110.2600474 425.931200
   7006   7003   7007     1   108.4600466 328.025600
   7007   7003   7008     1   110.2600474 425.931200
   7012   6993   7013     1   110.2600474 425.931200
   7016   7017   7036     1   109.5600471 388.275200
   7016   7027   7030     1   109.5600471 388.275200
   7016   7027   7031     1   109.5600471 388.275200
   7017   7016   7018     1   109.5600471 388.275200
   7017   7019   7023     1   109.5600471 388.275200
   7017   7037   7038     1   107.2600461 396.643200
   7018   7016   7027     1   109.5600471 388.275200
   7018   7016   7034     1   109.7800468 425.094400
   7019   7017   7036     1   109.5600471 388.275200
   7019   7020   7022     1   109.5600471 388.275200
   7019   7026   7028     1   107.2600461 396.643200
   7020   7019   7023     1   109.5600471 388.275200
   7020   7021   7024     1   110.2200475 386.601600
   7020   7039   7029     1   109.2900470 396.643200
   7021   7020   7022     1   109.5600471 388.275200
   7021   7025   7035     1   107.2600461 396.643200
   7022   7020   7039     1   109.8800469 414.216000
   7023   7019   7026     1   110.2600474 425.931200
   7024   7021   7025     1   109.4300470 427.604800
   7024   7021   7034     1   109.5800467 425.931200
   7027   7032   7033     1   107.2600461 396.643200
   7030   7027   7032     1   110.2600474 425.931200
   7030   7027   7031     1   108.4600466 328.025600
   7031   7027   7032     1   110.2600474 425.931200
   7036   7017   7037     1   110.2600474 425.931200
   7041   7043   7044     1   108.8800464 416.726400
   7041   7043   7046     1   108.8800464 416.726400
   7042   7041   7043     1   117.6800502 383.254400
   7043   7045   7047     1   109.5600471 388.275200
   7043   7045   7048     1   109.5600471 388.275200
   7044   7043   7045     1   109.5600471 388.275200
   7044   7043   7046     1   108.4600466 328.025600
   7045   7049   7114     1   110.1100470 384.091200
   7045   7043   7046     1   109.5600471 388.275200
   7047   7045   7049     1   107.9000462 406.684800
   7047   7045   7048     1   108.4600466 328.025600
   7048   7045   7049     1   107.9000462 406.684800
   7049   7050   7059     1   107.9000462 406.684800
   7049   7050   7060     1   107.9000462 406.684800
   7049   7051   7052     1   107.9000462 406.684800
   7049   7051   7054     1   107.9000462 406.684800
   7050   7061   7062     1   109.8000471 387.438400
   7050   7061   7063     1   109.8000471 387.438400
   7050   7049   7114     1   110.1100470 384.091200
   7051   7053   7055     1   109.8000471 387.438400
   7051   7053   7056     1   109.8000471 387.438400
   7051   7049   7114     1   110.1100470 384.091200
   7052   7051   7053     1   109.5600471 388.275200
   7052   7051   7054     1   108.4600466 328.025600
   7053   7051   7054     1   109.5600471 388.275200
   7055   7053   7057     1   108.7700466 392.459200
   7055   7053   7056     1   107.5800459 329.699200
   7056   7053   7057     1   108.7700466 392.459200
   7057   7089   7079     1   119.3800509 410.868800
   7059   7050   7061     1   109.5600471 388.275200
   7059   7050   7060     1   108.4600466 328.025600
   7060   7050   7061     1   109.5600471 388.275200
   7062   7061   7064     1   108.7700466 392.459200
   7062   7061   7063     1   107.5800459 329.699200
   7063   7061   7064     1   108.7700466 392.459200
   7064   7113   7103     1   119.3800509 410.868800
   7066   7067   7086     1   109.5600471 388.275200
   7066   7077   7080     1   109.5600471 388.275200
   7066   7077   7081     1   109.5600471 388.275200
   7067   7069   7073     1   109.5600471 388.275200
   7067   7087   7088     1   107.2600461 396.643200
   7067   7066   7068     1   109.5600471 388.275200
   7068   7066   7077     1   109.5600471 388.275200
   7068   7066   7084     1   109.7800468 425.094400
   7069   7070   7072     1   109.5600471 388.275200
   7069   7076   7078     1   107.2600461 396.643200
   7069   7067   7086     1   109.5600471 388.275200
   7070   7071   7074     1   110.2200475 386.601600
   7070   7089   7079     1   109.2900470 396.643200
   7070   7069   7073     1   109.5600471 388.275200
   7071   7075   7085     1   107.2600461 396.643200
   7071   7070   7072     1   109.5600471 388.275200
   7072   7070   7089     1   109.8800469 414.216000
   7073   7069   7076     1   110.2600474 425.931200
   7074   7071   7075     1   109.4300470 427.604800
   7074   7071   7084     1   109.5800467 425.931200
   7077   7082   7083     1   107.2600461 396.643200
   7080   7077   7082     1   110.2600474 425.931200
   7080   7077   7081     1   108.4600466 328.025600
   7081   7077   7082     1   110.2600474 425.931200
   7086   7067   7087     1   110.2600474 425.931200
   7090   7091   7110     1   109.5600471 388.275200
   7090   7101   7104     1   109.5600471 388.275200
   7090   7101   7105     1   109.5600471 388.275200
   7091   7093   7097     1   109.5600471 388.275200
   7091   7111   7112     1   107.2600461 396.643200
   7091   7090   7092     1   109.5600471 388.275200
   7092   7090   7101     1   109.5600471 388.275200
   7092   7090   7108     1   109.7800468 425.094400
   7093   7094   7096     1   109.5600471 388.275200
   7093   7100   7102     1   107.2600461 396.643200
   7093   7091   7110     1   109.5600471 388.275200
   7094   7095   7098     1   110.2200475 386.601600
   7094   7113   7103     1   109.2900470 396.643200
   7094   7093   7097     1   109.5600471 388.275200
   7095   7099   7109     1   107.2600461 396.643200
   7095   7094   7096     1   109.5600471 388.275200
   7096   7094   7113     1   109.8800469 414.216000
   7097   7093   7100     1   110.2600474 425.931200
   7098   7095   7099     1   109.4300470 427.604800
   7098   7095   7108     1   109.5800467 425.931200
   7101   7106   7107     1   107.2600461 396.643200
   7104   7101   7106     1   110.2600474 425.931200
   7104   7101   7105     1   108.4600466 328.025600
   7105   7101   7106     1   110.2600474 425.931200
   7110   7091   7111     1   110.2600474 425.931200
   7115   7117   7118     1   108.8800464 416.726400
   7115   7117   7120     1   108.8800464 416.726400
   7116   7115   7117     1   117.6800502 383.254400
   7117   7119   7121     1   109.5600471 388.275200
   7117   7119   7122     1   109.5600471 388.275200
   7118   7117   7119     1   109.5600471 388.275200
   7118   7117   7120     1   108.4600466 328.025600
   7119   7117   7120     1   109.5600471 388.275200
   7119   7123   7188     1   110.1100470 384.091200
   7121   7119   7123     1   107.9000462 406.684800
   7121   7119   7122     1   108.4600466 328.025600
   7122   7119   7123     1   107.9000462 406.684800
   7123   7124   7133     1   107.9000462 406.684800
   7123   7124   7134     1   107.9000462 406.684800
   7123   7125   7126     1   107.9000462 406.684800
   7123   7125   7128     1   107.9000462 406.684800
   7124   7123   7188     1   110.1100470 384.091200
   7124   7135   7136     1   109.8000471 387.438400
   7124   7135   7137     1   109.8000471 387.438400
   7125   7123   7188     1   110.1100470 384.091200
   7125   7127   7129     1   109.8000471 387.438400
   7125   7127   7130     1   109.8000471 387.438400
   7126   7125   7127     1   109.5600471 388.275200
   7126   7125   7128     1   108.4600466 328.025600
   7127   7125   7128     1   109.5600471 388.275200
   7129   7127   7131     1   108.7700466 392.459200
   7129   7127   7130     1   107.5800459 329.699200
   7130   7127   7131     1   108.7700466 392.459200
   7131   7163   7153     1   119.3800509 410.868800
   7133   7124   7135     1   109.5600471 388.275200
   7133   7124   7134     1   108.4600466 328.025600
   7134   7124   7135     1   109.5600471 388.275200
   7136   7135   7138     1   108.7700466 392.459200
   7136   7135   7137     1   107.5800459 329.699200
   7137   7135   7138     1   108.7700466 392.459200
   7138   7187   7177     1   119.3800509 410.868800
   7140   7141   7160     1   109.5600471 388.275200
   7140   7151   7154     1   109.5600471 388.275200
   7140   7151   7155     1   109.5600471 388.275200
   7141   7140   7142     1   109.5600471 388.275200
   7141   7143   7147     1   109.5600471 388.275200
   7141   7161   7162     1   107.2600461 396.643200
   7142   7140   7151     1   109.5600471 388.275200
   7142   7140   7158     1   109.7800468 425.094400
   7143   7141   7160     1   109.5600471 388.275200
   7143   7144   7146     1   109.5600471 388.275200
   7143   7150   7152     1   107.2600461 396.643200
   7144   7143   7147     1   109.5600471 388.275200
   7144   7145   7148     1   110.2200475 386.601600
   7144   7163   7153     1   109.2900470 396.643200
   7145   7144   7146     1   109.5600471 388.275200
   7145   7149   7159     1   107.2600461 396.643200
   7146   7144   7163     1   109.8800469 414.216000
   7147   7143   7150     1   110.2600474 425.931200
   7148   7145   7149     1   109.4300470 427.604800
   7148   7145   7158     1   109.5800467 425.931200
   7151   7156   7157     1   107.2600461 396.643200
   7154   7151   7156     1   110.2600474 425.931200
   7154   7151   7155     1   108.4600466 328.025600
   7155   7151   7156     1   110.2600474 425.931200
   7160   7141   7161     1   110.2600474 425.931200
   7164   7165   7184     1   109.5600471 388.275200
   7164   7175   7178     1   109.5600471 388.275200
   7164   7175   7179     1   109.5600471 388.275200
   7165   7164   7166     1   109.5600471 388.275200
   7165   7167   7171     1   109.5600471 388.275200
   7165   7185   7186     1   107.2600461 396.643200
   7166   7164   7175     1   109.5600471 388.275200
   7166   7164   7182     1   109.7800468 425.094400
   7167   7165   7184     1   109.5600471 388.275200
   7167   7168   7170     1   109.5600471 388.275200
   7167   7174   7176     1   107.2600461 396.643200
   7168   7167   7171     1   109.5600471 388.275200
   7168   7169   7172     1   110.2200475 386.601600
   7168   7187   7177     1   109.2900470 396.643200
   7169   7168   7170     1   109.5600471 388.275200
   7169   7173   7183     1   107.2600461 396.643200
   7170   7168   7187     1   109.8800469 414.216000
   7171   7167   7174     1   110.2600474 425.931200
   7172   7169   7173     1   109.4300470 427.604800
   7172   7169   7182     1   109.5800467 425.931200
   7175   7180   7181     1   107.2600461 396.643200
   7178   7175   7180     1   110.2600474 425.931200
   7178   7175   7179     1   108.4600466 328.025600
   7179   7175   7180     1   110.2600474 425.931200
   7184   7165   7185     1   110.2600474 425.931200
   7189   7191   7192     1   108.8800464 416.726400
   7189   7191   7194     1   108.8800464 416.726400
   7190   7189   7191     1   117.6800502 383.254400
   7191   7193   7195     1   109.5600471 388.275200
   7191   7193   7196     1   109.5600471 388.275200
   7192   7191   7193     1   109.5600471 388.275200
   7192   7191   7194     1   108.4600466 328.025600
   7193   7197   7262     1   110.1100470 384.091200
   7193   7191   7194     1   109.5600471 388.275200
   7195   7193   7197     1   107.9000462 406.684800
   7195   7193   7196     1   108.4600466 328.025600
   7196   7193   7197     1   107.9000462 406.684800
   7197   7198   7207     1   107.9000462 406.684800
   7197   7198   7208     1   107.9000462 406.684800
   7197   7199   7200     1   107.9000462 406.684800
   7197   7199   7202     1   107.9000462 406.684800
   7198   7209   7210     1   109.8000471 387.438400
   7198   7209   7211     1   109.8000471 387.438400
   7198   7197   7262     1   110.1100470 384.091200
   7199   7201   7203     1   109.8000471 387.438400
   7199   7201   7204     1   109.8000471 387.438400
   7199   7197   7262     1   110.1100470 384.091200
   7200   7199   7201     1   109.5600471 388.275200
   7200   7199   7202     1   108.4600466 328.025600
   7201   7199   7202     1   109.5600471 388.275200
   7203   7201   7205     1   108.7700466 392.459200
   7203   7201   7204     1   107.5800459 329.699200
   7204   7201   7205     1   108.7700466 392.459200
   7205   7237   7227     1   119.3800509 410.868800
   7207   7198   7209     1   109.5600471 388.275200
   7207   7198   7208     1   108.4600466 328.025600
   7208   7198   7209     1   109.5600471 388.275200
   7210   7209   7212     1   108.7700466 392.459200
   7210   7209   7211     1   107.5800459 329.699200
   7211   7209   7212     1   108.7700466 392.459200
   7212   7261   7251     1   119.3800509 410.868800
   7214   7215   7234     1   109.5600471 388.275200
   7214   7225   7228     1   109.5600471 388.275200
   7214   7225   7229     1   109.5600471 388.275200
   7215   7217   7221     1   109.5600471 388.275200
   7215   7235   7236     1   107.2600461 396.643200
   7215   7214   7216     1   109.5600471 388.275200
   7216   7214   7225     1   109.5600471 388.275200
   7216   7214   7232     1   109.7800468 425.094400
   7217   7218   7220     1   109.5600471 388.275200
   7217   7224   7226     1   107.2600461 396.643200
   7217   7215   7234     1   109.5600471 388.275200
   7218   7219   7222     1   110.2200475 386.601600
   7218   7237   7227     1   109.2900470 396.643200
   7218   7217   7221     1   109.5600471 388.275200
   7219   7223   7233     1   107.2600461 396.643200
   7219   7218   7220     1   109.5600471 388.275200
   7220   7218   7237     1   109.8800469 414.216000
   7221   7217   7224     1   110.2600474 425.931200
   7222   7219   7223     1   109.4300470 427.604800
   7222   7219   7232     1   109.5800467 425.931200
   7225   7230   7231     1   107.2600461 396.643200
   7228   7225   7230     1   110.2600474 425.931200
   7228   7225   7229     1   108.4600466 328.025600
   7229   7225   7230     1   110.2600474 425.931200
   7234   7215   7235     1   110.2600474 425.931200
   7238   7239   7258     1   109.5600471 388.275200
   7238   7249   7252     1   109.5600471 388.275200
   7238   7249   7253     1   109.5600471 388.275200
   7239   7241   7245     1   109.5600471 388.275200
   7239   7259   7260     1   107.2600461 396.643200
   7239   7238   7240     1   109.5600471 388.275200
   7240   7238   7249     1   109.5600471 388.275200
   7240   7238   7256     1   109.7800468 425.094400
   7241   7242   7244     1   109.5600471 388.275200
   7241   7248   7250     1   107.2600461 396.643200
   7241   7239   7258     1   109.5600471 388.275200
   7242   7243   7246     1   110.2200475 386.601600
   7242   7261   7251     1   109.2900470 396.643200
   7242   7241   7245     1   109.5600471 388.275200
   7243   7247   7257     1   107.2600461 396.643200
   7243   7242   7244     1   109.5600471 388.275200
   7244   7242   7261     1   109.8800469 414.216000
   7245   7241   7248     1   110.2600474 425.931200
   7246   7243   7247     1   109.4300470 427.604800
   7246   7243   7256     1   109.5800467 425.931200
   7249   7254   7255     1   107.2600461 396.643200
   7252   7249   7254     1   110.2600474 425.931200
   7252   7249   7253     1   108.4600466 328.025600
   7253   7249   7254     1   110.2600474 425.931200
   7258   7239   7259     1   110.2600474 425.931200
   7263   7265   7266     1   108.8800464 416.726400
   7263   7265   7268     1   108.8800464 416.726400
   7264   7263   7265     1   117.6800502 383.254400
   7265   7267   7269     1   109.5600471 388.275200
   7265   7267   7270     1   109.5600471 388.275200
   7266   7265   7267     1   109.5600471 388.275200
   7266   7265   7268     1   108.4600466 328.025600
   7267   7265   7268     1   109.5600471 388.275200
   7267   7271   7336     1   110.1100470 384.091200
   7269   7267   7271     1   107.9000462 406.684800
   7269   7267   7270     1   108.4600466 328.025600
   7270   7267   7271     1   107.9000462 406.684800
   7271   7272   7281     1   107.9000462 406.684800
   7271   7272   7282     1   107.9000462 406.684800
   7271   7273   7274     1   107.9000462 406.684800
   7271   7273   7276     1   107.9000462 406.684800
   7272   7271   7336     1   110.1100470 384.091200
   7272   7283   7284     1   109.8000471 387.438400
   7272   7283   7285     1   109.8000471 387.438400
   7273   7271   7336     1   110.1100470 384.091200
   7273   7275   7277     1   109.8000471 387.438400
   7273   7275   7278     1   109.8000471 387.438400
   7274   7273   7275     1   109.5600471 388.275200
   7274   7273   7276     1   108.4600466 328.025600
   7275   7273   7276     1   109.5600471 388.275200
   7277   7275   7279     1   108.7700466 392.459200
   7277   7275   7278     1   107.5800459 329.699200
   7278   7275   7279     1   108.7700466 392.459200
   7279   7311   7301     1   119.3800509 410.868800
   7281   7272   7283     1   109.5600471 388.275200
   7281   7272   7282     1   108.4600466 328.025600
   7282   7272   7283     1   109.5600471 388.275200
   7284   7283   7286     1   108.7700466 392.459200
   7284   7283   7285     1   107.5800459 329.699200
   7285   7283   7286     1   108.7700466 392.459200
   7286   7335   7325     1   119.3800509 410.868800
   7288   7289   7308     1   109.5600471 388.275200
   7288   7299   7302     1   109.5600471 388.275200
   7288   7299   7303     1   109.5600471 388.275200
   7289   7288   7290     1   109.5600471 388.275200
   7289   7291   7295     1   109.5600471 388.275200
   7289   7309   7310     1   107.2600461 396.643200
   7290   7288   7299     1   109.5600471 388.275200
   7290   7288   7306     1   109.7800468 425.094400
   7291   7289   7308     1   109.5600471 388.275200
   7291   7292   7294     1   109.5600471 388.275200
   7291   7298   7300     1   107.2600461 396.643200
   7292   7291   7295     1   109.5600471 388.275200
   7292   7293   7296     1   110.2200475 386.601600
   7292   7311   7301     1   109.2900470 396.643200
   7293   7292   7294     1   109.5600471 388.275200
   7293   7297   7307     1   107.2600461 396.643200
   7294   7292   7311     1   109.8800469 414.216000
   7295   7291   7298     1   110.2600474 425.931200
   7296   7293   7297     1   109.4300470 427.604800
   7296   7293   7306     1   109.5800467 425.931200
   7299   7304   7305     1   107.2600461 396.643200
   7302   7299   7304     1   110.2600474 425.931200
   7302   7299   7303     1   108.4600466 328.025600
   7303   7299   7304     1   110.2600474 425.931200
   7308   7289   7309     1   110.2600474 425.931200
   7312   7313   7332     1   109.5600471 388.275200
   7312   7323   7326     1   109.5600471 388.275200
   7312   7323   7327     1   109.5600471 388.275200
   7313   7312   7314     1   109.5600471 388.275200
   7313   7315   7319     1   109.5600471 388.275200
   7313   7333   7334     1   107.2600461 396.643200
   7314   7312   7323     1   109.5600471 388.275200
   7314   7312   7330     1   109.7800468 425.094400
   7315   7313   7332     1   109.5600471 388.275200
   7315   7316   7318     1   109.5600471 388.275200
   7315   7322   7324     1   107.2600461 396.643200
   7316   7315   7319     1   109.5600471 388.275200
   7316   7317   7320     1   110.2200475 386.601600
   7316   7335   7325     1   109.2900470 396.643200
   7317   7316   7318     1   109.5600471 388.275200
   7317   7321   7331     1   107.2600461 396.643200
   7318   7316   7335     1   109.8800469 414.216000
   7319   7315   7322     1   110.2600474 425.931200
   7320   7317   7321     1   109.4300470 427.604800
   7320   7317   7330     1   109.5800467 425.931200
   7323   7328   7329     1   107.2600461 396.643200
   7326   7323   7328     1   110.2600474 425.931200
   7326   7323   7327     1   108.4600466 328.025600
   7327   7323   7328     1   110.2600474 425.931200
   7332   7313   7333     1   110.2600474 425.931200
   7337   7339   7340     1   108.8800464 416.726400
   7337   7339   7342     1   108.8800464 416.726400
   7338   7337   7339     1   117.6800502 383.254400
   7339   7341   7343     1   109.5600471 388.275200
   7339   7341   7344     1   109.5600471 388.275200
   7340   7339   7341     1   109.5600471 388.275200
   7340   7339   7342     1   108.4600466 328.025600
   7341   7345   7410     1   110.1100470 384.091200
   7341   7339   7342     1   109.5600471 388.275200
   7343   7341   7345     1   107.9000462 406.684800
   7343   7341   7344     1   108.4600466 328.025600
   7344   7341   7345     1   107.9000462 406.684800
   7345   7346   7355     1   107.9000462 406.684800
   7345   7346   7356     1   107.9000462 406.684800
   7345   7347   7348     1   107.9000462 406.684800
   7345   7347   7350     1   107.9000462 406.684800
   7346   7357   7358     1   109.8000471 387.438400
   7346   7357   7359     1   109.8000471 387.438400
   7346   7345   7410     1   110.1100470 384.091200
   7347   7349   7351     1   109.8000471 387.438400
   7347   7349   7352     1   109.8000471 387.438400
   7347   7345   7410     1   110.1100470 384.091200
   7348   7347   7349     1   109.5600471 388.275200
   7348   7347   7350     1   108.4600466 328.025600
   7349   7347   7350     1   109.5600471 388.275200
   7351   7349   7353     1   108.7700466 392.459200
   7351   7349   7352     1   107.5800459 329.699200
   7352   7349   7353     1   108.7700466 392.459200
   7353   7385   7375     1   119.3800509 410.868800
   7355   7346   7357     1   109.5600471 388.275200
   7355   7346   7356     1   108.4600466 328.025600
   7356   7346   7357     1   109.5600471 388.275200
   7358   7357   7360     1   108.7700466 392.459200
   7358   7357   7359     1   107.5800459 329.699200
   7359   7357   7360     1   108.7700466 392.459200
   7360   7409   7399     1   119.3800509 410.868800
   7362   7363   7382     1   109.5600471 388.275200
   7362   7373   7376     1   109.5600471 388.275200
   7362   7373   7377     1   109.5600471 388.275200
   7363   7365   7369     1   109.5600471 388.275200
   7363   7383   7384     1   107.2600461 396.643200
   7363   7362   7364     1   109.5600471 388.275200
   7364   7362   7373     1   109.5600471 388.275200
   7364   7362   7380     1   109.7800468 425.094400
   7365   7366   7368     1   109.5600471 388.275200
   7365   7372   7374     1   107.2600461 396.643200
   7365   7363   7382     1   109.5600471 388.275200
   7366   7367   7370     1   110.2200475 386.601600
   7366   7385   7375     1   109.2900470 396.643200
   7366   7365   7369     1   109.5600471 388.275200
   7367   7371   7381     1   107.2600461 396.643200
   7367   7366   7368     1   109.5600471 388.275200
   7368   7366   7385     1   109.8800469 414.216000
   7369   7365   7372     1   110.2600474 425.931200
   7370   7367   7371     1   109.4300470 427.604800
   7370   7367   7380     1   109.5800467 425.931200
   7373   7378   7379     1   107.2600461 396.643200
   7376   7373   7378     1   110.2600474 425.931200
   7376   7373   7377     1   108.4600466 328.025600
   7377   7373   7378     1   110.2600474 425.931200
   7382   7363   7383     1   110.2600474 425.931200
   7386   7387   7406     1   109.5600471 388.275200
   7386   7397   7400     1   109.5600471 388.275200
   7386   7397   7401     1   109.5600471 388.275200
   7387   7389   7393     1   109.5600471 388.275200
   7387   7407   7408     1   107.2600461 396.643200
   7387   7386   7388     1   109.5600471 388.275200
   7388   7386   7397     1   109.5600471 388.275200
   7388   7386   7404     1   109.7800468 425.094400
   7389   7390   7392     1   109.5600471 388.275200
   7389   7396   7398     1   107.2600461 396.643200
   7389   7387   7406     1   109.5600471 388.275200
   7390   7391   7394     1   110.2200475 386.601600
   7390   7409   7399     1   109.2900470 396.643200
   7390   7389   7393     1   109.5600471 388.275200
   7391   7395   7405     1   107.2600461 396.643200
   7391   7390   7392     1   109.5600471 388.275200
   7392   7390   7409     1   109.8800469 414.216000
   7393   7389   7396     1   110.2600474 425.931200
   7394   7391   7395     1   109.4300470 427.604800
   7394   7391   7404     1   109.5800467 425.931200
   7397   7402   7403     1   107.2600461 396.643200
   7400   7397   7402     1   110.2600474 425.931200
   7400   7397   7401     1   108.4600466 328.025600
   7401   7397   7402     1   110.2600474 425.931200
   7406   7387   7407     1   110.2600474 425.931200
   7411   7413   7414     1   108.8800464 416.726400
   7411   7413   7416     1   108.8800464 416.726400
   7412   7411   7413     1   117.6800502 383.254400
   7413   7415   7417     1   109.5600471 388.275200
   7413   7415   7418     1   109.5600471 388.275200
   7414   7413   7415     1   109.5600471 388.275200
   7414   7413   7416     1   108.4600466 328.025600
   7415   7413   7416     1   109.5600471 388.275200
   7415   7419   7484     1   110.1100470 384.091200
   7417   7415   7419     1   107.9000462 406.684800
   7417   7415   7418     1   108.4600466 328.025600
   7418   7415   7419     1   107.9000462 406.684800
   7419   7420   7429     1   107.9000462 406.684800
   7419   7420   7430     1   107.9000462 406.684800
   7419   7421   7422     1   107.9000462 406.684800
   7419   7421   7424     1   107.9000462 406.684800
   7420   7419   7484     1   110.1100470 384.091200
   7420   7431   7432     1   109.8000471 387.438400
   7420   7431   7433     1   109.8000471 387.438400
   7421   7419   7484     1   110.1100470 384.091200
   7421   7423   7425     1   109.8000471 387.438400
   7421   7423   7426     1   109.8000471 387.438400
   7422   7421   7423     1   109.5600471 388.275200
   7422   7421   7424     1   108.4600466 328.025600
   7423   7421   7424     1   109.5600471 388.275200
   7425   7423   7427     1   108.7700466 392.459200
   7425   7423   7426     1   107.5800459 329.699200
   7426   7423   7427     1   108.7700466 392.459200
   7427   7459   7449     1   119.3800509 410.868800
   7429   7420   7431     1   109.5600471 388.275200
   7429   7420   7430     1   108.4600466 328.025600
   7430   7420   7431     1   109.5600471 388.275200
   7432   7431   7434     1   108.7700466 392.459200
   7432   7431   7433     1   107.5800459 329.699200
   7433   7431   7434     1   108.7700466 392.459200
   7434   7483   7473     1   119.3800509 410.868800
   7436   7437   7456     1   109.5600471 388.275200
   7436   7447   7450     1   109.5600471 388.275200
   7436   7447   7451     1   109.5600471 388.275200
   7437   7436   7438     1   109.5600471 388.275200
   7437   7439   7443     1   109.5600471 388.275200
   7437   7457   7458     1   107.2600461 396.643200
   7438   7436   7447     1   109.5600471 388.275200
   7438   7436   7454     1   109.7800468 425.094400
   7439   7437   7456     1   109.5600471 388.275200
   7439   7440   7442     1   109.5600471 388.275200
   7439   7446   7448     1   107.2600461 396.643200
   7440   7439   7443     1   109.5600471 388.275200
   7440   7441   7444     1   110.2200475 386.601600
   7440   7459   7449     1   109.2900470 396.643200
   7441   7440   7442     1   109.5600471 388.275200
   7441   7445   7455     1   107.2600461 396.643200
   7442   7440   7459     1   109.8800469 414.216000
   7443   7439   7446     1   110.2600474 425.931200
   7444   7441   7445     1   109.4300470 427.604800
   7444   7441   7454     1   109.5800467 425.931200
   7447   7452   7453     1   107.2600461 396.643200
   7450   7447   7452     1   110.2600474 425.931200
   7450   7447   7451     1   108.4600466 328.025600
   7451   7447   7452     1   110.2600474 425.931200
   7456   7437   7457     1   110.2600474 425.931200
   7460   7461   7480     1   109.5600471 388.275200
   7460   7471   7474     1   109.5600471 388.275200
   7460   7471   7475     1   109.5600471 388.275200
   7461   7460   7462     1   109.5600471 388.275200
   7461   7463   7467     1   109.5600471 388.275200
   7461   7481   7482     1   107.2600461 396.643200
   7462   7460   7471     1   109.5600471 388.275200
   7462   7460   7478     1   109.7800468 425.094400
   7463   7461   7480     1   109.5600471 388.275200
   7463   7464   7466     1   109.5600471 388.275200
   7463   7470   7472     1   107.2600461 396.643200
   7464   7463   7467     1   109.5600471 388.275200
   7464   7465   7468     1   110.2200475 386.601600
   7464   7483   7473     1   109.2900470 396.643200
   7465   7464   7466     1   109.5600471 388.275200
   7465   7469   7479     1   107.2600461 396.643200
   7466   7464   7483     1   109.8800469 414.216000
   7467   7463   7470     1   110.2600474 425.931200
   7468   7465   7469     1   109.4300470 427.604800
   7468   7465   7478     1   109.5800467 425.931200
   7471   7476   7477     1   107.2600461 396.643200
   7474   7471   7476     1   110.2600474 425.931200
   7474   7471   7475     1   108.4600466 328.025600
   7475   7471   7476     1   110.2600474 425.931200
   7480   7461   7481     1   110.2600474 425.931200
   7485   7487   7488     1   108.8800464 416.726400
   7485   7487   7490     1   108.8800464 416.726400
   7486   7485   7487     1   117.6800502 383.254400
   7487   7489   7491     1   109.5600471 388.275200
   7487   7489   7492     1   109.5600471 388.275200
   7488   7487   7489     1   109.5600471 388.275200
   7488   7487   7490     1   108.4600466 328.025600
   7489   7493   7558     1   110.1100470 384.091200
   7489   7487   7490     1   109.5600471 388.275200
   7491   7489   7493     1   107.9000462 406.684800
   7491   7489   7492     1   108.4600466 328.025600
   7492   7489   7493     1   107.9000462 406.684800
   7493   7494   7503     1   107.9000462 406.684800
   7493   7494   7504     1   107.9000462 406.684800
   7493   7495   7496     1   107.9000462 406.684800
   7493   7495   7498     1   107.9000462 406.684800
   7494   7505   7506     1   109.8000471 387.438400
   7494   7505   7507     1   109.8000471 387.438400
   7494   7493   7558     1   110.1100470 384.091200
   7495   7497   7499     1   109.8000471 387.438400
   7495   7497   7500     1   109.8000471 387.438400
   7495   7493   7558     1   110.1100470 384.091200
   7496   7495   7497     1   109.5600471 388.275200
   7496   7495   7498     1   108.4600466 328.025600
   7497   7495   7498     1   109.5600471 388.275200
   7499   7497   7501     1   108.7700466 392.459200
   7499   7497   7500     1   107.5800459 329.699200
   7500   7497   7501     1   108.7700466 392.459200
   7501   7533   7523     1   119.3800509 410.868800
   7503   7494   7505     1   109.5600471 388.275200
   7503   7494   7504     1   108.4600466 328.025600
   7504   7494   7505     1   109.5600471 388.275200
   7506   7505   7508     1   108.7700466 392.459200
   7506   7505   7507     1   107.5800459 329.699200
   7507   7505   7508     1   108.7700466 392.459200
   7508   7557   7547     1   119.3800509 410.868800
   7510   7511   7530     1   109.5600471 388.275200
   7510   7521   7524     1   109.5600471 388.275200
   7510   7521   7525     1   109.5600471 388.275200
   7511   7513   7517     1   109.5600471 388.275200
   7511   7531   7532     1   107.2600461 396.643200
   7511   7510   7512     1   109.5600471 388.275200
   7512   7510   7521     1   109.5600471 388.275200
   7512   7510   7528     1   109.7800468 425.094400
   7513   7514   7516     1   109.5600471 388.275200
   7513   7520   7522     1   107.2600461 396.643200
   7513   7511   7530     1   109.5600471 388.275200
   7514   7515   7518     1   110.2200475 386.601600
   7514   7533   7523     1   109.2900470 396.643200
   7514   7513   7517     1   109.5600471 388.275200
   7515   7519   7529     1   107.2600461 396.643200
   7515   7514   7516     1   109.5600471 388.275200
   7516   7514   7533     1   109.8800469 414.216000
   7517   7513   7520     1   110.2600474 425.931200
   7518   7515   7519     1   109.4300470 427.604800
   7518   7515   7528     1   109.5800467 425.931200
   7521   7526   7527     1   107.2600461 396.643200
   7524   7521   7526     1   110.2600474 425.931200
   7524   7521   7525     1   108.4600466 328.025600
   7525   7521   7526     1   110.2600474 425.931200
   7530   7511   7531     1   110.2600474 425.931200
   7534   7535   7554     1   109.5600471 388.275200
   7534   7545   7548     1   109.5600471 388.275200
   7534   7545   7549     1   109.5600471 388.275200
   7535   7537   7541     1   109.5600471 388.275200
   7535   7555   7556     1   107.2600461 396.643200
   7535   7534   7536     1   109.5600471 388.275200
   7536   7534   7545     1   109.5600471 388.275200
   7536   7534   7552     1   109.7800468 425.094400
   7537   7538   7540     1   109.5600471 388.275200
   7537   7544   7546     1   107.2600461 396.643200
   7537   7535   7554     1   109.5600471 388.275200
   7538   7539   7542     1   110.2200475 386.601600
   7538   7557   7547     1   109.2900470 396.643200
   7538   7537   7541     1   109.5600471 388.275200
   7539   7543   7553     1   107.2600461 396.643200
   7539   7538   7540     1   109.5600471 388.275200
   7540   7538   7557     1   109.8800469 414.216000
   7541   7537   7544     1   110.2600474 425.931200
   7542   7539   7543     1   109.4300470 427.604800
   7542   7539   7552     1   109.5800467 425.931200
   7545   7550   7551     1   107.2600461 396.643200
   7548   7545   7550     1   110.2600474 425.931200
   7548   7545   7549     1   108.4600466 328.025600
   7549   7545   7550     1   110.2600474 425.931200
   7554   7535   7555     1   110.2600474 425.931200
   7559   7561   7562     1   108.8800464 416.726400
   7559   7561   7564     1   108.8800464 416.726400
   7560   7559   7561     1   117.6800502 383.254400
   7561   7563   7565     1   109.5600471 388.275200
   7561   7563   7566     1   109.5600471 388.275200
   7562   7561   7563     1   109.5600471 388.275200
   7562   7561   7564     1   108.4600466 328.025600
   7563   7561   7564     1   109.5600471 388.275200
   7563   7567   7632     1   110.1100470 384.091200
   7565   7563   7567     1   107.9000462 406.684800
   7565   7563   7566     1   108.4600466 328.025600
   7566   7563   7567     1   107.9000462 406.684800
   7567   7568   7577     1   107.9000462 406.684800
   7567   7568   7578     1   107.9000462 406.684800
   7567   7569   7570     1   107.9000462 406.684800
   7567   7569   7572     1   107.9000462 406.684800
   7568   7567   7632     1   110.1100470 384.091200
   7568   7579   7580     1   109.8000471 387.438400
   7568   7579   7581     1   109.8000471 387.438400
   7569   7567   7632     1   110.1100470 384.091200
   7569   7571   7573     1   109.8000471 387.438400
   7569   7571   7574     1   109.8000471 387.438400
   7570   7569   7571     1   109.5600471 388.275200
   7570   7569   7572     1   108.4600466 328.025600
   7571   7569   7572     1   109.5600471 388.275200
   7573   7571   7575     1   108.7700466 392.459200
   7573   7571   7574     1   107.5800459 329.699200
   7574   7571   7575     1   108.7700466 392.459200
   7575   7607   7597     1   119.3800509 410.868800
   7577   7568   7579     1   109.5600471 388.275200
   7577   7568   7578     1   108.4600466 328.025600
   7578   7568   7579     1   109.5600471 388.275200
   7580   7579   7582     1   108.7700466 392.459200
   7580   7579   7581     1   107.5800459 329.699200
   7581   7579   7582     1   108.7700466 392.459200
   7582   7631   7621     1   119.3800509 410.868800
   7584   7585   7604     1   109.5600471 388.275200
   7584   7595   7598     1   109.5600471 388.275200
   7584   7595   7599     1   109.5600471 388.275200
   7585   7584   7586     1   109.5600471 388.275200
   7585   7587   7591     1   109.5600471 388.275200
   7585   7605   7606     1   107.2600461 396.643200
   7586   7584   7595     1   109.5600471 388.275200
   7586   7584   7602     1   109.7800468 425.094400
   7587   7585   7604     1   109.5600471 388.275200
   7587   7588   7590     1   109.5600471 388.275200
   7587   7594   7596     1   107.2600461 396.643200
   7588   7587   7591     1   109.5600471 388.275200
   7588   7589   7592     1   110.2200475 386.601600
   7588   7607   7597     1   109.2900470 396.643200
   7589   7588   7590     1   109.5600471 388.275200
   7589   7593   7603     1   107.2600461 396.643200
   7590   7588   7607     1   109.8800469 414.216000
   7591   7587   7594     1   110.2600474 425.931200
   7592   7589   7593     1   109.4300470 427.604800
   7592   7589   7602     1   109.5800467 425.931200
   7595   7600   7601     1   107.2600461 396.643200
   7598   7595   7600     1   110.2600474 425.931200
   7598   7595   7599     1   108.4600466 328.025600
   7599   7595   7600     1   110.2600474 425.931200
   7604   7585   7605     1   110.2600474 425.931200
   7608   7609   7628     1   109.5600471 388.275200
   7608   7619   7622     1   109.5600471 388.275200
   7608   7619   7623     1   109.5600471 388.275200
   7609   7608   7610     1   109.5600471 388.275200
   7609   7611   7615     1   109.5600471 388.275200
   7609   7629   7630     1   107.2600461 396.643200
   7610   7608   7619     1   109.5600471 388.275200
   7610   7608   7626     1   109.7800468 425.094400
   7611   7609   7628     1   109.5600471 388.275200
   7611   7612   7614     1   109.5600471 388.275200
   7611   7618   7620     1   107.2600461 396.643200
   7612   7611   7615     1   109.5600471 388.275200
   7612   7613   7616     1   110.2200475 386.601600
   7612   7631   7621     1   109.2900470 396.643200
   7613   7612   7614     1   109.5600471 388.275200
   7613   7617   7627     1   107.2600461 396.643200
   7614   7612   7631     1   109.8800469 414.216000
   7615   7611   7618     1   110.2600474 425.931200
   7616   7613   7617     1   109.4300470 427.604800
   7616   7613   7626     1   109.5800467 425.931200
   7619   7624   7625     1   107.2600461 396.643200
   7622   7619   7624     1   110.2600474 425.931200
   7622   7619   7623     1   108.4600466 328.025600
   7623   7619   7624     1   110.2600474 425.931200
   7628   7609   7629     1   110.2600474 425.931200
   7633   7635   7636     1   108.8800464 416.726400
   7633   7635   7638     1   108.8800464 416.726400
   7634   7633   7635     1   117.6800502 383.254400
   7635   7637   7639     1   109.5600471 388.275200
   7635   7637   7640     1   109.5600471 388.275200
   7636   7635   7637     1   109.5600471 388.275200
   7636   7635   7638     1   108.4600466 328.025600
   7637   7641   7706     1   110.1100470 384.091200
   7637   7635   7638     1   109.5600471 388.275200
   7639   7637   7641     1   107.9000462 406.684800
   7639   7637   7640     1   108.4600466 328.025600
   7640   7637   7641     1   107.9000462 406.684800
   7641   7642   7651     1   107.9000462 406.684800
   7641   7642   7652     1   107.9000462 406.684800
   7641   7643   7644     1   107.9000462 406.684800
   7641   7643   7646     1   107.9000462 406.684800
   7642   7653   7654     1   109.8000471 387.438400
   7642   7653   7655     1   109.8000471 387.438400
   7642   7641   7706     1   110.1100470 384.091200
   7643   7645   7647     1   109.8000471 387.438400
   7643   7645   7648     1   109.8000471 387.438400
   7643   7641   7706     1   110.1100470 384.091200
   7644   7643   7645     1   109.5600471 388.275200
   7644   7643   7646     1   108.4600466 328.025600
   7645   7643   7646     1   109.5600471 388.275200
   7647   7645   7649     1   108.7700466 392.459200
   7647   7645   7648     1   107.5800459 329.699200
   7648   7645   7649     1   108.7700466 392.459200
   7649   7681   7671     1   119.3800509 410.868800
   7651   7642   7653     1   109.5600471 388.275200
   7651   7642   7652     1   108.4600466 328.025600
   7652   7642   7653     1   109.5600471 388.275200
   7654   7653   7656     1   108.7700466 392.459200
   7654   7653   7655     1   107.5800459 329.699200
   7655   7653   7656     1   108.7700466 392.459200
   7656   7705   7695     1   119.3800509 410.868800
   7658   7659   7678     1   109.5600471 388.275200
   7658   7669   7672     1   109.5600471 388.275200
   7658   7669   7673     1   109.5600471 388.275200
   7659   7661   7665     1   109.5600471 388.275200
   7659   7679   7680     1   107.2600461 396.643200
   7659   7658   7660     1   109.5600471 388.275200
   7660   7658   7669     1   109.5600471 388.275200
   7660   7658   7676     1   109.7800468 425.094400
   7661   7662   7664     1   109.5600471 388.275200
   7661   7668   7670     1   107.2600461 396.643200
   7661   7659   7678     1   109.5600471 388.275200
   7662   7663   7666     1   110.2200475 386.601600
   7662   7681   7671     1   109.2900470 396.643200
   7662   7661   7665     1   109.5600471 388.275200
   7663   7667   7677     1   107.2600461 396.643200
   7663   7662   7664     1   109.5600471 388.275200
   7664   7662   7681     1   109.8800469 414.216000
   7665   7661   7668     1   110.2600474 425.931200
   7666   7663   7667     1   109.4300470 427.604800
   7666   7663   7676     1   109.5800467 425.931200
   7669   7674   7675     1   107.2600461 396.643200
   7672   7669   7674     1   110.2600474 425.931200
   7672   7669   7673     1   108.4600466 328.025600
   7673   7669   7674     1   110.2600474 425.931200
   7678   7659   7679     1   110.2600474 425.931200
   7682   7683   7702     1   109.5600471 388.275200
   7682   7693   7696     1   109.5600471 388.275200
   7682   7693   7697     1   109.5600471 388.275200
   7683   7685   7689     1   109.5600471 388.275200
   7683   7703   7704     1   107.2600461 396.643200
   7683   7682   7684     1   109.5600471 388.275200
   7684   7682   7693     1   109.5600471 388.275200
   7684   7682   7700     1   109.7800468 425.094400
   7685   7686   7688     1   109.5600471 388.275200
   7685   7692   7694     1   107.2600461 396.643200
   7685   7683   7702     1   109.5600471 388.275200
   7686   7687   7690     1   110.2200475 386.601600
   7686   7705   7695     1   109.2900470 396.643200
   7686   7685   7689     1   109.5600471 388.275200
   7687   7691   7701     1   107.2600461 396.643200
   7687   7686   7688     1   109.5600471 388.275200
   7688   7686   7705     1   109.8800469 414.216000
   7689   7685   7692     1   110.2600474 425.931200
   7690   7687   7691     1   109.4300470 427.604800
   7690   7687   7700     1   109.5800467 425.931200
   7693   7698   7699     1   107.2600461 396.643200
   7696   7693   7698     1   110.2600474 425.931200
   7696   7693   7697     1   108.4600466 328.025600
   7697   7693   7698     1   110.2600474 425.931200
   7702   7683   7703     1   110.2600474 425.931200
   7707   7709   7710     1   108.8800464 416.726400
   7707   7709   7712     1   108.8800464 416.726400
   7708   7707   7709     1   117.6800502 383.254400
   7709   7711   7713     1   109.5600471 388.275200
   7709   7711   7714     1   109.5600471 388.275200
   7710   7709   7711     1   109.5600471 388.275200
   7710   7709   7712     1   108.4600466 328.025600
   7711   7709   7712     1   109.5600471 388.275200
   7711   7715   7780     1   110.1100470 384.091200
   7713   7711   7715     1   107.9000462 406.684800
   7713   7711   7714     1   108.4600466 328.025600
   7714   7711   7715     1   107.9000462 406.684800
   7715   7716   7725     1   107.9000462 406.684800
   7715   7716   7726     1   107.9000462 406.684800
   7715   7717   7718     1   107.9000462 406.684800
   7715   7717   7720     1   107.9000462 406.684800
   7716   7715   7780     1   110.1100470 384.091200
   7716   7727   7728     1   109.8000471 387.438400
   7716   7727   7729     1   109.8000471 387.438400
   7717   7715   7780     1   110.1100470 384.091200
   7717   7719   7721     1   109.8000471 387.438400
   7717   7719   7722     1   109.8000471 387.438400
   7718   7717   7719     1   109.5600471 388.275200
   7718   7717   7720     1   108.4600466 328.025600
   7719   7717   7720     1   109.5600471 388.275200
   7721   7719   7723     1   108.7700466 392.459200
   7721   7719   7722     1   107.5800459 329.699200
   7722   7719   7723     1   108.7700466 392.459200
   7723   7755   7745     1   119.3800509 410.868800
   7725   7716   7727     1   109.5600471 388.275200
   7725   7716   7726     1   108.4600466 328.025600
   7726   7716   7727     1   109.5600471 388.275200
   7728   7727   7730     1   108.7700466 392.459200
   7728   7727   7729     1   107.5800459 329.699200
   7729   7727   7730     1   108.7700466 392.459200
   7730   7779   7769     1   119.3800509 410.868800
   7732   7733   7752     1   109.5600471 388.275200
   7732   7743   7746     1   109.5600471 388.275200
   7732   7743   7747     1   109.5600471 388.275200
   7733   7732   7734     1   109.5600471 388.275200
   7733   7735   7739     1   109.5600471 388.275200
   7733   7753   7754     1   107.2600461 396.643200
   7734   7732   7743     1   109.5600471 388.275200
   7734   7732   7750     1   109.7800468 425.094400
   7735   7733   7752     1   109.5600471 388.275200
   7735   7736   7738     1   109.5600471 388.275200
   7735   7742   7744     1   107.2600461 396.643200
   7736   7735   7739     1   109.5600471 388.275200
   7736   7737   7740     1   110.2200475 386.601600
   7736   7755   7745     1   109.2900470 396.643200
   7737   7736   7738     1   109.5600471 388.275200
   7737   7741   7751     1   107.2600461 396.643200
   7738   7736   7755     1   109.8800469 414.216000
   7739   7735   7742     1   110.2600474 425.931200
   7740   7737   7741     1   109.4300470 427.604800
   7740   7737   7750     1   109.5800467 425.931200
   7743   7748   7749     1   107.2600461 396.643200
   7746   7743   7748     1   110.2600474 425.931200
   7746   7743   7747     1   108.4600466 328.025600
   7747   7743   7748     1   110.2600474 425.931200
   7752   7733   7753     1   110.2600474 425.931200
   7756   7757   7776     1   109.5600471 388.275200
   7756   7767   7770     1   109.5600471 388.275200
   7756   7767   7771     1   109.5600471 388.275200
   7757   7756   7758     1   109.5600471 388.275200
   7757   7759   7763     1   109.5600471 388.275200
   7757   7777   7778     1   107.2600461 396.643200
   7758   7756   7767     1   109.5600471 388.275200
   7758   7756   7774     1   109.7800468 425.094400
   7759   7757   7776     1   109.5600471 388.275200
   7759   7760   7762     1   109.5600471 388.275200
   7759   7766   7768     1   107.2600461 396.643200
   7760   7759   7763     1   109.5600471 388.275200
   7760   7761   7764     1   110.2200475 386.601600
   7760   7779   7769     1   109.2900470 396.643200
   7761   7760   7762     1   109.5600471 388.275200
   7761   7765   7775     1   107.2600461 396.643200
   7762   7760   7779     1   109.8800469 414.216000
   7763   7759   7766     1   110.2600474 425.931200
   7764   7761   7765     1   109.4300470 427.604800
   7764   7761   7774     1   109.5800467 425.931200
   7767   7772   7773     1   107.2600461 396.643200
   7770   7767   7772     1   110.2600474 425.931200
   7770   7767   7771     1   108.4600466 328.025600
   7771   7767   7772     1   110.2600474 425.931200
   7776   7757   7777     1   110.2600474 425.931200
   7781   7783   7784     1   108.8800464 416.726400
   7781   7783   7786     1   108.8800464 416.726400
   7782   7781   7783     1   117.6800502 383.254400
   7783   7785   7787     1   109.5600471 388.275200
   7783   7785   7788     1   109.5600471 388.275200
   7784   7783   7785     1   109.5600471 388.275200
   7784   7783   7786     1   108.4600466 328.025600
   7785   7789   7854     1   110.1100470 384.091200
   7785   7783   7786     1   109.5600471 388.275200
   7787   7785   7789     1   107.9000462 406.684800
   7787   7785   7788     1   108.4600466 328.025600
   7788   7785   7789     1   107.9000462 406.684800
   7789   7790   7799     1   107.9000462 406.684800
   7789   7790   7800     1   107.9000462 406.684800
   7789   7791   7792     1   107.9000462 406.684800
   7789   7791   7794     1   107.9000462 406.684800
   7790   7801   7802     1   109.8000471 387.438400
   7790   7801   7803     1   109.8000471 387.438400
   7790   7789   7854     1   110.1100470 384.091200
   7791   7793   7795     1   109.8000471 387.438400
   7791   7793   7796     1   109.8000471 387.438400
   7791   7789   7854     1   110.1100470 384.091200
   7792   7791   7793     1   109.5600471 388.275200
   7792   7791   7794     1   108.4600466 328.025600
   7793   7791   7794     1   109.5600471 388.275200
   7795   7793   7797     1   108.7700466 392.459200
   7795   7793   7796     1   107.5800459 329.699200
   7796   7793   7797     1   108.7700466 392.459200
   7797   7829   7819     1   119.3800509 410.868800
   7799   7790   7801     1   109.5600471 388.275200
   7799   7790   7800     1   108.4600466 328.025600
   7800   7790   7801     1   109.5600471 388.275200
   7802   7801   7804     1   108.7700466 392.459200
   7802   7801   7803     1   107.5800459 329.699200
   7803   7801   7804     1   108.7700466 392.459200
   7804   7853   7843     1   119.3800509 410.868800
   7806   7807   7826     1   109.5600471 388.275200
   7806   7817   7820     1   109.5600471 388.275200
   7806   7817   7821     1   109.5600471 388.275200
   7807   7809   7813     1   109.5600471 388.275200
   7807   7827   7828     1   107.2600461 396.643200
   7807   7806   7808     1   109.5600471 388.275200
   7808   7806   7817     1   109.5600471 388.275200
   7808   7806   7824     1   109.7800468 425.094400
   7809   7810   7812     1   109.5600471 388.275200
   7809   7816   7818     1   107.2600461 396.643200
   7809   7807   7826     1   109.5600471 388.275200
   7810   7811   7814     1   110.2200475 386.601600
   7810   7829   7819     1   109.2900470 396.643200
   7810   7809   7813     1   109.5600471 388.275200
   7811   7815   7825     1   107.2600461 396.643200
   7811   7810   7812     1   109.5600471 388.275200
   7812   7810   7829     1   109.8800469 414.216000
   7813   7809   7816     1   110.2600474 425.931200
   7814   7811   7815     1   109.4300470 427.604800
   7814   7811   7824     1   109.5800467 425.931200
   7817   7822   7823     1   107.2600461 396.643200
   7820   7817   7822     1   110.2600474 425.931200
   7820   7817   7821     1   108.4600466 328.025600
   7821   7817   7822     1   110.2600474 425.931200
   7826   7807   7827     1   110.2600474 425.931200
   7830   7831   7850     1   109.5600471 388.275200
   7830   7841   7844     1   109.5600471 388.275200
   7830   7841   7845     1   109.5600471 388.275200
   7831   7833   7837     1   109.5600471 388.275200
   7831   7851   7852     1   107.2600461 396.643200
   7831   7830   7832     1   109.5600471 388.275200
   7832   7830   7841     1   109.5600471 388.275200
   7832   7830   7848     1   109.7800468 425.094400
   7833   7834   7836     1   109.5600471 388.275200
   7833   7840   7842     1   107.2600461 396.643200
   7833   7831   7850     1   109.5600471 388.275200
   7834   7835   7838     1   110.2200475 386.601600
   7834   7853   7843     1   109.2900470 396.643200
   7834   7833   7837     1   109.5600471 388.275200
   7835   7839   7849     1   107.2600461 396.643200
   7835   7834   7836     1   109.5600471 388.275200
   7836   7834   7853     1   109.8800469 414.216000
   7837   7833   7840     1   110.2600474 425.931200
   7838   7835   7839     1   109.4300470 427.604800
   7838   7835   7848     1   109.5800467 425.931200
   7841   7846   7847     1   107.2600461 396.643200
   7844   7841   7846     1   110.2600474 425.931200
   7844   7841   7845     1   108.4600466 328.025600
   7845   7841   7846     1   110.2600474 425.931200
   7850   7831   7851     1   110.2600474 425.931200
   7855   7857   7858     1   108.8800464 416.726400
   7855   7857   7860     1   108.8800464 416.726400
   7856   7855   7857     1   117.6800502 383.254400
   7857   7859   7861     1   109.5600471 388.275200
   7857   7859   7862     1   109.5600471 388.275200
   7858   7857   7859     1   109.5600471 388.275200
   7858   7857   7860     1   108.4600466 328.025600
   7859   7857   7860     1   109.5600471 388.275200
   7859   7863   7928     1   110.1100470 384.091200
   7861   7859   7863     1   107.9000462 406.684800
   7861   7859   7862     1   108.4600466 328.025600
   7862   7859   7863     1   107.9000462 406.684800
   7863   7864   7873     1   107.9000462 406.684800
   7863   7864   7874     1   107.9000462 406.684800
   7863   7865   7866     1   107.9000462 406.684800
   7863   7865   7868     1   107.9000462 406.684800
   7864   7863   7928     1   110.1100470 384.091200
   7864   7875   7876     1   109.8000471 387.438400
   7864   7875   7877     1   109.8000471 387.438400
   7865   7863   7928     1   110.1100470 384.091200
   7865   7867   7869     1   109.8000471 387.438400
   7865   7867   7870     1   109.8000471 387.438400
   7866   7865   7867     1   109.5600471 388.275200
   7866   7865   7868     1   108.4600466 328.025600
   7867   7865   7868     1   109.5600471 388.275200
   7869   7867   7871     1   108.7700466 392.459200
   7869   7867   7870     1   107.5800459 329.699200
   7870   7867   7871     1   108.7700466 392.459200
   7871   7903   7893     1   119.3800509 410.868800
   7873   7864   7875     1   109.5600471 388.275200
   7873   7864   7874     1   108.4600466 328.025600
   7874   7864   7875     1   109.5600471 388.275200
   7876   7875   7878     1   108.7700466 392.459200
   7876   7875   7877     1   107.5800459 329.699200
   7877   7875   7878     1   108.7700466 392.459200
   7878   7927   7917     1   119.3800509 410.868800
   7880   7881   7900     1   109.5600471 388.275200
   7880   7891   7894     1   109.5600471 388.275200
   7880   7891   7895     1   109.5600471 388.275200
   7881   7880   7882     1   109.5600471 388.275200
   7881   7883   7887     1   109.5600471 388.275200
   7881   7901   7902     1   107.2600461 396.643200
   7882   7880   7891     1   109.5600471 388.275200
   7882   7880   7898     1   109.7800468 425.094400
   7883   7881   7900     1   109.5600471 388.275200
   7883   7884   7886     1   109.5600471 388.275200
   7883   7890   7892     1   107.2600461 396.643200
   7884   7883   7887     1   109.5600471 388.275200
   7884   7885   7888     1   110.2200475 386.601600
   7884   7903   7893     1   109.2900470 396.643200
   7885   7884   7886     1   109.5600471 388.275200
   7885   7889   7899     1   107.2600461 396.643200
   7886   7884   7903     1   109.8800469 414.216000
   7887   7883   7890     1   110.2600474 425.931200
   7888   7885   7889     1   109.4300470 427.604800
   7888   7885   7898     1   109.5800467 425.931200
   7891   7896   7897     1   107.2600461 396.643200
   7894   7891   7896     1   110.2600474 425.931200
   7894   7891   7895     1   108.4600466 328.025600
   7895   7891   7896     1   110.2600474 425.931200
   7900   7881   7901     1   110.2600474 425.931200
   7904   7905   7924     1   109.5600471 388.275200
   7904   7915   7918     1   109.5600471 388.275200
   7904   7915   7919     1   109.5600471 388.275200
   7905   7904   7906     1   109.5600471 388.275200
   7905   7907   7911     1   109.5600471 388.275200
   7905   7925   7926     1   107.2600461 396.643200
   7906   7904   7915     1   109.5600471 388.275200
   7906   7904   7922     1   109.7800468 425.094400
   7907   7905   7924     1   109.5600471 388.275200
   7907   7908   7910     1   109.5600471 388.275200
   7907   7914   7916     1   107.2600461 396.643200
   7908   7907   7911     1   109.5600471 388.275200
   7908   7909   7912     1   110.2200475 386.601600
   7908   7927   7917     1   109.2900470 396.643200
   7909   7908   7910     1   109.5600471 388.275200
   7909   7913   7923     1   107.2600461 396.643200
   7910   7908   7927     1   109.8800469 414.216000
   7911   7907   7914     1   110.2600474 425.931200
   7912   7909   7913     1   109.4300470 427.604800
   7912   7909   7922     1   109.5800467 425.931200
   7915   7920   7921     1   107.2600461 396.643200
   7918   7915   7920     1   110.2600474 425.931200
   7918   7915   7919     1   108.4600466 328.025600
   7919   7915   7920     1   110.2600474 425.931200
   7924   7905   7925     1   110.2600474 425.931200
   7929   7931   7932     1   108.8800464 416.726400
   7929   7931   7934     1   108.8800464 416.726400
   7930   7929   7931     1   117.6800502 383.254400
   7931   7933   7935     1   109.5600471 388.275200
   7931   7933   7936     1   109.5600471 388.275200
   7932   7931   7933     1   109.5600471 388.275200
   7932   7931   7934     1   108.4600466 328.025600
   7933   7937   8002     1   110.1100470 384.091200
   7933   7931   7934     1   109.5600471 388.275200
   7935   7933   7937     1   107.9000462 406.684800
   7935   7933   7936     1   108.4600466 328.025600
   7936   7933   7937     1   107.9000462 406.684800
   7937   7938   7947     1   107.9000462 406.684800
   7937   7938   7948     1   107.9000462 406.684800
   7937   7939   7940     1   107.9000462 406.684800
   7937   7939   7942     1   107.9000462 406.684800
   7938   7949   7950     1   109.8000471 387.438400
   7938   7949   7951     1   109.8000471 387.438400
   7938   7937   8002     1   110.1100470 384.091200
   7939   7941   7943     1   109.8000471 387.438400
   7939   7941   7944     1   109.8000471 387.438400
   7939   7937   8002     1   110.1100470 384.091200
   7940   7939   7941     1   109.5600471 388.275200
   7940   7939   7942     1   108.4600466 328.025600
   7941   7939   7942     1   109.5600471 388.275200
   7943   7941   7945     1   108.7700466 392.459200
   7943   7941   7944     1   107.5800459 329.699200
   7944   7941   7945     1   108.7700466 392.459200
   7945   7977   7967     1   119.3800509 410.868800
   7947   7938   7949     1   109.5600471 388.275200
   7947   7938   7948     1   108.4600466 328.025600
   7948   7938   7949     1   109.5600471 388.275200
   7950   7949   7952     1   108.7700466 392.459200
   7950   7949   7951     1   107.5800459 329.699200
   7951   7949   7952     1   108.7700466 392.459200
   7952   8001   7991     1   119.3800509 410.868800
   7954   7955   7974     1   109.5600471 388.275200
   7954   7965   7968     1   109.5600471 388.275200
   7954   7965   7969     1   109.5600471 388.275200
   7955   7957   7961     1   109.5600471 388.275200
   7955   7975   7976     1   107.2600461 396.643200
   7955   7954   7956     1   109.5600471 388.275200
   7956   7954   7965     1   109.5600471 388.275200
   7956   7954   7972     1   109.7800468 425.094400
   7957   7958   7960     1   109.5600471 388.275200
   7957   7964   7966     1   107.2600461 396.643200
   7957   7955   7974     1   109.5600471 388.275200
   7958   7959   7962     1   110.2200475 386.601600
   7958   7977   7967     1   109.2900470 396.643200
   7958   7957   7961     1   109.5600471 388.275200
   7959   7963   7973     1   107.2600461 396.643200
   7959   7958   7960     1   109.5600471 388.275200
   7960   7958   7977     1   109.8800469 414.216000
   7961   7957   7964     1   110.2600474 425.931200
   7962   7959   7963     1   109.4300470 427.604800
   7962   7959   7972     1   109.5800467 425.931200
   7965   7970   7971     1   107.2600461 396.643200
   7968   7965   7970     1   110.2600474 425.931200
   7968   7965   7969     1   108.4600466 328.025600
   7969   7965   7970     1   110.2600474 425.931200
   7974   7955   7975     1   110.2600474 425.931200
   7978   7979   7998     1   109.5600471 388.275200
   7978   7989   7992     1   109.5600471 388.275200
   7978   7989   7993     1   109.5600471 388.275200
   7979   7981   7985     1   109.5600471 388.275200
   7979   7999   8000     1   107.2600461 396.643200
   7979   7978   7980     1   109.5600471 388.275200
   7980   7978   7989     1   109.5600471 388.275200
   7980   7978   7996     1   109.7800468 425.094400
   7981   7982   7984     1   109.5600471 388.275200
   7981   7988   7990     1   107.2600461 396.643200
   7981   7979   7998     1   109.5600471 388.275200
   7982   7983   7986     1   110.2200475 386.601600
   7982   8001   7991     1   109.2900470 396.643200
   7982   7981   7985     1   109.5600471 388.275200
   7983   7987   7997     1   107.2600461 396.643200
   7983   7982   7984     1   109.5600471 388.275200
   7984   7982   8001     1   109.8800469 414.216000
   7985   7981   7988     1   110.2600474 425.931200
   7986   7983   7987     1   109.4300470 427.604800
   7986   7983   7996     1   109.5800467 425.931200
   7989   7994   7995     1   107.2600461 396.643200
   7992   7989   7994     1   110.2600474 425.931200
   7992   7989   7993     1   108.4600466 328.025600
   7993   7989   7994     1   110.2600474 425.931200
   7998   7979   7999     1   110.2600474 425.931200
   8003   8005   8006     1   108.8800464 416.726400
   8003   8005   8008     1   108.8800464 416.726400
   8004   8003   8005     1   117.6800502 383.254400
   8005   8007   8009     1   109.5600471 388.275200
   8005   8007   8010     1   109.5600471 388.275200
   8006   8005   8007     1   109.5600471 388.275200
   8006   8005   8008     1   108.4600466 328.025600
   8007   8005   8008     1   109.5600471 388.275200
   8007   8011   8076     1   110.1100470 384.091200
   8009   8007   8011     1   107.9000462 406.684800
   8009   8007   8010     1   108.4600466 328.025600
   8010   8007   8011     1   107.9000462 406.684800
   8011   8012   8021     1   107.9000462 406.684800
   8011   8012   8022     1   107.9000462 406.684800
   8011   8013   8014     1   107.9000462 406.684800
   8011   8013   8016     1   107.9000462 406.684800
   8012   8011   8076     1   110.1100470 384.091200
   8012   8023   8024     1   109.8000471 387.438400
   8012   8023   8025     1   109.8000471 387.438400
   8013   8011   8076     1   110.1100470 384.091200
   8013   8015   8017     1   109.8000471 387.438400
   8013   8015   8018     1   109.8000471 387.438400
   8014   8013   8015     1   109.5600471 388.275200
   8014   8013   8016     1   108.4600466 328.025600
   8015   8013   8016     1   109.5600471 388.275200
   8017   8015   8019     1   108.7700466 392.459200
   8017   8015   8018     1   107.5800459 329.699200
   8018   8015   8019     1   108.7700466 392.459200
   8019   8051   8041     1   119.3800509 410.868800
   8021   8012   8023     1   109.5600471 388.275200
   8021   8012   8022     1   108.4600466 328.025600
   8022   8012   8023     1   109.5600471 388.275200
   8024   8023   8026     1   108.7700466 392.459200
   8024   8023   8025     1   107.5800459 329.699200
   8025   8023   8026     1   108.7700466 392.459200
   8026   8075   8065     1   119.3800509 410.868800
   8028   8029   8048     1   109.5600471 388.275200
   8028   8039   8042     1   109.5600471 388.275200
   8028   8039   8043     1   109.5600471 388.275200
   8029   8028   8030     1   109.5600471 388.275200
   8029   8031   8035     1   109.5600471 388.275200
   8029   8049   8050     1   107.2600461 396.643200
   8030   8028   8039     1   109.5600471 388.275200
   8030   8028   8046     1   109.7800468 425.094400
   8031   8029   8048     1   109.5600471 388.275200
   8031   8032   8034     1   109.5600471 388.275200
   8031   8038   8040     1   107.2600461 396.643200
   8032   8031   8035     1   109.5600471 388.275200
   8032   8033   8036     1   110.2200475 386.601600
   8032   8051   8041     1   109.2900470 396.643200
   8033   8032   8034     1   109.5600471 388.275200
   8033   8037   8047     1   107.2600461 396.643200
   8034   8032   8051     1   109.8800469 414.216000
   8035   8031   8038     1   110.2600474 425.931200
   8036   8033   8037     1   109.4300470 427.604800
   8036   8033   8046     1   109.5800467 425.931200
   8039   8044   8045     1   107.2600461 396.643200
   8042   8039   8044     1   110.2600474 425.931200
   8042   8039   8043     1   108.4600466 328.025600
   8043   8039   8044     1   110.2600474 425.931200
   8048   8029   8049     1   110.2600474 425.931200
   8052   8053   8072     1   109.5600471 388.275200
   8052   8063   8066     1   109.5600471 388.275200
   8052   8063   8067     1   109.5600471 388.275200
   8053   8052   8054     1   109.5600471 388.275200
   8053   8055   8059     1   109.5600471 388.275200
   8053   8073   8074     1   107.2600461 396.643200
   8054   8052   8063     1   109.5600471 388.275200
   8054   8052   8070     1   109.7800468 425.094400
   8055   8053   8072     1   109.5600471 388.275200
   8055   8056   8058     1   109.5600471 388.275200
   8055   8062   8064     1   107.2600461 396.643200
   8056   8055   8059     1   109.5600471 388.275200
   8056   8057   8060     1   110.2200475 386.601600
   8056   8075   8065     1   109.2900470 396.643200
   8057   8056   8058     1   109.5600471 388.275200
   8057   8061   8071     1   107.2600461 396.643200
   8058   8056   8075     1   109.8800469 414.216000
   8059   8055   8062     1   110.2600474 425.931200
   8060   8057   8061     1   109.4300470 427.604800
   8060   8057   8070     1   109.5800467 425.931200
   8063   8068   8069     1   107.2600461 396.643200
   8066   8063   8068     1   110.2600474 425.931200
   8066   8063   8067     1   108.4600466 328.025600
   8067   8063   8068     1   110.2600474 425.931200
   8072   8053   8073     1   110.2600474 425.931200
   8077   8079   8080     1   108.8800464 416.726400
   8077   8079   8082     1   108.8800464 416.726400
   8078   8077   8079     1   117.6800502 383.254400
   8079   8081   8083     1   109.5600471 388.275200
   8079   8081   8084     1   109.5600471 388.275200
   8080   8079   8081     1   109.5600471 388.275200
   8080   8079   8082     1   108.4600466 328.025600
   8081   8085   8150     1   110.1100470 384.091200
   8081   8079   8082     1   109.5600471 388.275200
   8083   8081   8085     1   107.9000462 406.684800
   8083   8081   8084     1   108.4600466 328.025600
   8084   8081   8085     1   107.9000462 406.684800
   8085   8086   8095     1   107.9000462 406.684800
   8085   8086   8096     1   107.9000462 406.684800
   8085   8087   8088     1   107.9000462 406.684800
   8085   8087   8090     1   107.9000462 406.684800
   8086   8097   8098     1   109.8000471 387.438400
   8086   8097   8099     1   109.8000471 387.438400
   8086   8085   8150     1   110.1100470 384.091200
   8087   8089   8091     1   109.8000471 387.438400
   8087   8089   8092     1   109.8000471 387.438400
   8087   8085   8150     1   110.1100470 384.091200
   8088   8087   8089     1   109.5600471 388.275200
   8088   8087   8090     1   108.4600466 328.025600
   8089   8087   8090     1   109.5600471 388.275200
   8091   8089   8093     1   108.7700466 392.459200
   8091   8089   8092     1   107.5800459 329.699200
   8092   8089   8093     1   108.7700466 392.459200
   8093   8125   8115     1   119.3800509 410.868800
   8095   8086   8097     1   109.5600471 388.275200
   8095   8086   8096     1   108.4600466 328.025600
   8096   8086   8097     1   109.5600471 388.275200
   8098   8097   8100     1   108.7700466 392.459200
   8098   8097   8099     1   107.5800459 329.699200
   8099   8097   8100     1   108.7700466 392.459200
   8100   8149   8139     1   119.3800509 410.868800
   8102   8103   8122     1   109.5600471 388.275200
   8102   8113   8116     1   109.5600471 388.275200
   8102   8113   8117     1   109.5600471 388.275200
   8103   8105   8109     1   109.5600471 388.275200
   8103   8123   8124     1   107.2600461 396.643200
   8103   8102   8104     1   109.5600471 388.275200
   8104   8102   8113     1   109.5600471 388.275200
   8104   8102   8120     1   109.7800468 425.094400
   8105   8106   8108     1   109.5600471 388.275200
   8105   8112   8114     1   107.2600461 396.643200
   8105   8103   8122     1   109.5600471 388.275200
   8106   8107   8110     1   110.2200475 386.601600
   8106   8125   8115     1   109.2900470 396.643200
   8106   8105   8109     1   109.5600471 388.275200
   8107   8111   8121     1   107.2600461 396.643200
   8107   8106   8108     1   109.5600471 388.275200
   8108   8106   8125     1   109.8800469 414.216000
   8109   8105   8112     1   110.2600474 425.931200
   8110   8107   8111     1   109.4300470 427.604800
   8110   8107   8120     1   109.5800467 425.931200
   8113   8118   8119     1   107.2600461 396.643200
   8116   8113   8118     1   110.2600474 425.931200
   8116   8113   8117     1   108.4600466 328.025600
   8117   8113   8118     1   110.2600474 425.931200
   8122   8103   8123     1   110.2600474 425.931200
   8126   8127   8146     1   109.5600471 388.275200
   8126   8137   8140     1   109.5600471 388.275200
   8126   8137   8141     1   109.5600471 388.275200
   8127   8129   8133     1   109.5600471 388.275200
   8127   8147   8148     1   107.2600461 396.643200
   8127   8126   8128     1   109.5600471 388.275200
   8128   8126   8137     1   109.5600471 388.275200
   8128   8126   8144     1   109.7800468 425.094400
   8129   8130   8132     1   109.5600471 388.275200
   8129   8136   8138     1   107.2600461 396.643200
   8129   8127   8146     1   109.5600471 388.275200
   8130   8131   8134     1   110.2200475 386.601600
   8130   8149   8139     1   109.2900470 396.643200
   8130   8129   8133     1   109.5600471 388.275200
   8131   8135   8145     1   107.2600461 396.643200
   8131   8130   8132     1   109.5600471 388.275200
   8132   8130   8149     1   109.8800469 414.216000
   8133   8129   8136     1   110.2600474 425.931200
   8134   8131   8135     1   109.4300470 427.604800
   8134   8131   8144     1   109.5800467 425.931200
   8137   8142   8143     1   107.2600461 396.643200
   8140   8137   8142     1   110.2600474 425.931200
   8140   8137   8141     1   108.4600466 328.025600
   8141   8137   8142     1   110.2600474 425.931200
   8146   8127   8147     1   110.2600474 425.931200
   8151   8153   8154     1   108.8800464 416.726400
   8151   8153   8156     1   108.8800464 416.726400
   8152   8151   8153     1   117.6800502 383.254400
   8153   8155   8157     1   109.5600471 388.275200
   8153   8155   8158     1   109.5600471 388.275200
   8154   8153   8155     1   109.5600471 388.275200
   8154   8153   8156     1   108.4600466 328.025600
   8155   8153   8156     1   109.5600471 388.275200
   8155   8159   8224     1   110.1100470 384.091200
   8157   8155   8159     1   107.9000462 406.684800
   8157   8155   8158     1   108.4600466 328.025600
   8158   8155   8159     1   107.9000462 406.684800
   8159   8160   8169     1   107.9000462 406.684800
   8159   8160   8170     1   107.9000462 406.684800
   8159   8161   8162     1   107.9000462 406.684800
   8159   8161   8164     1   107.9000462 406.684800
   8160   8159   8224     1   110.1100470 384.091200
   8160   8171   8172     1   109.8000471 387.438400
   8160   8171   8173     1   109.8000471 387.438400
   8161   8159   8224     1   110.1100470 384.091200
   8161   8163   8165     1   109.8000471 387.438400
   8161   8163   8166     1   109.8000471 387.438400
   8162   8161   8163     1   109.5600471 388.275200
   8162   8161   8164     1   108.4600466 328.025600
   8163   8161   8164     1   109.5600471 388.275200
   8165   8163   8167     1   108.7700466 392.459200
   8165   8163   8166     1   107.5800459 329.699200
   8166   8163   8167     1   108.7700466 392.459200
   8167   8199   8189     1   119.3800509 410.868800
   8169   8160   8171     1   109.5600471 388.275200
   8169   8160   8170     1   108.4600466 328.025600
   8170   8160   8171     1   109.5600471 388.275200
   8172   8171   8174     1   108.7700466 392.459200
   8172   8171   8173     1   107.5800459 329.699200
   8173   8171   8174     1   108.7700466 392.459200
   8174   8223   8213     1   119.3800509 410.868800
   8176   8177   8196     1   109.5600471 388.275200
   8176   8187   8190     1   109.5600471 388.275200
   8176   8187   8191     1   109.5600471 388.275200
   8177   8176   8178     1   109.5600471 388.275200
   8177   8179   8183     1   109.5600471 388.275200
   8177   8197   8198     1   107.2600461 396.643200
   8178   8176   8187     1   109.5600471 388.275200
   8178   8176   8194     1   109.7800468 425.094400
   8179   8177   8196     1   109.5600471 388.275200
   8179   8180   8182     1   109.5600471 388.275200
   8179   8186   8188     1   107.2600461 396.643200
   8180   8179   8183     1   109.5600471 388.275200
   8180   8181   8184     1   110.2200475 386.601600
   8180   8199   8189     1   109.2900470 396.643200
   8181   8180   8182     1   109.5600471 388.275200
   8181   8185   8195     1   107.2600461 396.643200
   8182   8180   8199     1   109.8800469 414.216000
   8183   8179   8186     1   110.2600474 425.931200
   8184   8181   8185     1   109.4300470 427.604800
   8184   8181   8194     1   109.5800467 425.931200
   8187   8192   8193     1   107.2600461 396.643200
   8190   8187   8192     1   110.2600474 425.931200
   8190   8187   8191     1   108.4600466 328.025600
   8191   8187   8192     1   110.2600474 425.931200
   8196   8177   8197     1   110.2600474 425.931200
   8200   8201   8220     1   109.5600471 388.275200
   8200   8211   8214     1   109.5600471 388.275200
   8200   8211   8215     1   109.5600471 388.275200
   8201   8200   8202     1   109.5600471 388.275200
   8201   8203   8207     1   109.5600471 388.275200
   8201   8221   8222     1   107.2600461 396.643200
   8202   8200   8211     1   109.5600471 388.275200
   8202   8200   8218     1   109.7800468 425.094400
   8203   8201   8220     1   109.5600471 388.275200
   8203   8204   8206     1   109.5600471 388.275200
   8203   8210   8212     1   107.2600461 396.643200
   8204   8203   8207     1   109.5600471 388.275200
   8204   8205   8208     1   110.2200475 386.601600
   8204   8223   8213     1   109.2900470 396.643200
   8205   8204   8206     1   109.5600471 388.275200
   8205   8209   8219     1   107.2600461 396.643200
   8206   8204   8223     1   109.8800469 414.216000
   8207   8203   8210     1   110.2600474 425.931200
   8208   8205   8209     1   109.4300470 427.604800
   8208   8205   8218     1   109.5800467 425.931200
   8211   8216   8217     1   107.2600461 396.643200
   8214   8211   8216     1   110.2600474 425.931200
   8214   8211   8215     1   108.4600466 328.025600
   8215   8211   8216     1   110.2600474 425.931200
   8220   8201   8221     1   110.2600474 425.931200
   8225   8227   8228     1   108.8800464 416.726400
   8225   8227   8230     1   108.8800464 416.726400
   8226   8225   8227     1   117.6800502 383.254400
   8227   8229   8231     1   109.5600471 388.275200
   8227   8229   8232     1   109.5600471 388.275200
   8228   8227   8229     1   109.5600471 388.275200
   8228   8227   8230     1   108.4600466 328.025600
   8229   8233   8298     1   110.1100470 384.091200
   8229   8227   8230     1   109.5600471 388.275200
   8231   8229   8233     1   107.9000462 406.684800
   8231   8229   8232     1   108.4600466 328.025600
   8232   8229   8233     1   107.9000462 406.684800
   8233   8234   8243     1   107.9000462 406.684800
   8233   8234   8244     1   107.9000462 406.684800
   8233   8235   8236     1   107.9000462 406.684800
   8233   8235   8238     1   107.9000462 406.684800
   8234   8245   8246     1   109.8000471 387.438400
   8234   8245   8247     1   109.8000471 387.438400
   8234   8233   8298     1   110.1100470 384.091200
   8235   8237   8239     1   109.8000471 387.438400
   8235   8237   8240     1   109.8000471 387.438400
   8235   8233   8298     1   110.1100470 384.091200
   8236   8235   8237     1   109.5600471 388.275200
   8236   8235   8238     1   108.4600466 328.025600
   8237   8235   8238     1   109.5600471 388.275200
   8239   8237   8241     1   108.7700466 392.459200
   8239   8237   8240     1   107.5800459 329.699200
   8240   8237   8241     1   108.7700466 392.459200
   8241   8273   8263     1   119.3800509 410.868800
   8243   8234   8245     1   109.5600471 388.275200
   8243   8234   8244     1   108.4600466 328.025600
   8244   8234   8245     1   109.5600471 388.275200
   8246   8245   8248     1   108.7700466 392.459200
   8246   8245   8247     1   107.5800459 329.699200
   8247   8245   8248     1   108.7700466 392.459200
   8248   8297   8287     1   119.3800509 410.868800
   8250   8251   8270     1   109.5600471 388.275200
   8250   8261   8264     1   109.5600471 388.275200
   8250   8261   8265     1   109.5600471 388.275200
   8251   8253   8257     1   109.5600471 388.275200
   8251   8271   8272     1   107.2600461 396.643200
   8251   8250   8252     1   109.5600471 388.275200
   8252   8250   8261     1   109.5600471 388.275200
   8252   8250   8268     1   109.7800468 425.094400
   8253   8254   8256     1   109.5600471 388.275200
   8253   8260   8262     1   107.2600461 396.643200
   8253   8251   8270     1   109.5600471 388.275200
   8254   8255   8258     1   110.2200475 386.601600
   8254   8273   8263     1   109.2900470 396.643200
   8254   8253   8257     1   109.5600471 388.275200
   8255   8259   8269     1   107.2600461 396.643200
   8255   8254   8256     1   109.5600471 388.275200
   8256   8254   8273     1   109.8800469 414.216000
   8257   8253   8260     1   110.2600474 425.931200
   8258   8255   8259     1   109.4300470 427.604800
   8258   8255   8268     1   109.5800467 425.931200
   8261   8266   8267     1   107.2600461 396.643200
   8264   8261   8266     1   110.2600474 425.931200
   8264   8261   8265     1   108.4600466 328.025600
   8265   8261   8266     1   110.2600474 425.931200
   8270   8251   8271     1   110.2600474 425.931200
   8274   8275   8294     1   109.5600471 388.275200
   8274   8285   8288     1   109.5600471 388.275200
   8274   8285   8289     1   109.5600471 388.275200
   8275   8277   8281     1   109.5600471 388.275200
   8275   8295   8296     1   107.2600461 396.643200
   8275   8274   8276     1   109.5600471 388.275200
   8276   8274   8285     1   109.5600471 388.275200
   8276   8274   8292     1   109.7800468 425.094400
   8277   8278   8280     1   109.5600471 388.275200
   8277   8284   8286     1   107.2600461 396.643200
   8277   8275   8294     1   109.5600471 388.275200
   8278   8279   8282     1   110.2200475 386.601600
   8278   8297   8287     1   109.2900470 396.643200
   8278   8277   8281     1   109.5600471 388.275200
   8279   8283   8293     1   107.2600461 396.643200
   8279   8278   8280     1   109.5600471 388.275200
   8280   8278   8297     1   109.8800469 414.216000
   8281   8277   8284     1   110.2600474 425.931200
   8282   8279   8283     1   109.4300470 427.604800
   8282   8279   8292     1   109.5800467 425.931200
   8285   8290   8291     1   107.2600461 396.643200
   8288   8285   8290     1   110.2600474 425.931200
   8288   8285   8289     1   108.4600466 328.025600
   8289   8285   8290     1   110.2600474 425.931200
   8294   8275   8295     1   110.2600474 425.931200
   8299   8301   8302     1   108.8800464 416.726400
   8299   8301   8304     1   108.8800464 416.726400
   8300   8299   8301     1   117.6800502 383.254400
   8301   8303   8305     1   109.5600471 388.275200
   8301   8303   8306     1   109.5600471 388.275200
   8302   8301   8303     1   109.5600471 388.275200
   8302   8301   8304     1   108.4600466 328.025600
   8303   8301   8304     1   109.5600471 388.275200
   8303   8307   8372     1   110.1100470 384.091200
   8305   8303   8307     1   107.9000462 406.684800
   8305   8303   8306     1   108.4600466 328.025600
   8306   8303   8307     1   107.9000462 406.684800
   8307   8308   8317     1   107.9000462 406.684800
   8307   8308   8318     1   107.9000462 406.684800
   8307   8309   8310     1   107.9000462 406.684800
   8307   8309   8312     1   107.9000462 406.684800
   8308   8307   8372     1   110.1100470 384.091200
   8308   8319   8320     1   109.8000471 387.438400
   8308   8319   8321     1   109.8000471 387.438400
   8309   8307   8372     1   110.1100470 384.091200
   8309   8311   8313     1   109.8000471 387.438400
   8309   8311   8314     1   109.8000471 387.438400
   8310   8309   8311     1   109.5600471 388.275200
   8310   8309   8312     1   108.4600466 328.025600
   8311   8309   8312     1   109.5600471 388.275200
   8313   8311   8315     1   108.7700466 392.459200
   8313   8311   8314     1   107.5800459 329.699200
   8314   8311   8315     1   108.7700466 392.459200
   8315   8347   8337     1   119.3800509 410.868800
   8317   8308   8319     1   109.5600471 388.275200
   8317   8308   8318     1   108.4600466 328.025600
   8318   8308   8319     1   109.5600471 388.275200
   8320   8319   8322     1   108.7700466 392.459200
   8320   8319   8321     1   107.5800459 329.699200
   8321   8319   8322     1   108.7700466 392.459200
   8322   8371   8361     1   119.3800509 410.868800
   8324   8325   8344     1   109.5600471 388.275200
   8324   8335   8338     1   109.5600471 388.275200
   8324   8335   8339     1   109.5600471 388.275200
   8325   8324   8326     1   109.5600471 388.275200
   8325   8327   8331     1   109.5600471 388.275200
   8325   8345   8346     1   107.2600461 396.643200
   8326   8324   8335     1   109.5600471 388.275200
   8326   8324   8342     1   109.7800468 425.094400
   8327   8325   8344     1   109.5600471 388.275200
   8327   8328   8330     1   109.5600471 388.275200
   8327   8334   8336     1   107.2600461 396.643200
   8328   8327   8331     1   109.5600471 388.275200
   8328   8329   8332     1   110.2200475 386.601600
   8328   8347   8337     1   109.2900470 396.643200
   8329   8328   8330     1   109.5600471 388.275200
   8329   8333   8343     1   107.2600461 396.643200
   8330   8328   8347     1   109.8800469 414.216000
   8331   8327   8334     1   110.2600474 425.931200
   8332   8329   8333     1   109.4300470 427.604800
   8332   8329   8342     1   109.5800467 425.931200
   8335   8340   8341     1   107.2600461 396.643200
   8338   8335   8340     1   110.2600474 425.931200
   8338   8335   8339     1   108.4600466 328.025600
   8339   8335   8340     1   110.2600474 425.931200
   8344   8325   8345     1   110.2600474 425.931200
   8348   8349   8368     1   109.5600471 388.275200
   8348   8359   8362     1   109.5600471 388.275200
   8348   8359   8363     1   109.5600471 388.275200
   8349   8348   8350     1   109.5600471 388.275200
   8349   8351   8355     1   109.5600471 388.275200
   8349   8369   8370     1   107.2600461 396.643200
   8350   8348   8359     1   109.5600471 388.275200
   8350   8348   8366     1   109.7800468 425.094400
   8351   8349   8368     1   109.5600471 388.275200
   8351   8352   8354     1   109.5600471 388.275200
   8351   8358   8360     1   107.2600461 396.643200
   8352   8351   8355     1   109.5600471 388.275200
   8352   8353   8356     1   110.2200475 386.601600
   8352   8371   8361     1   109.2900470 396.643200
   8353   8352   8354     1   109.5600471 388.275200
   8353   8357   8367     1   107.2600461 396.643200
   8354   8352   8371     1   109.8800469 414.216000
   8355   8351   8358     1   110.2600474 425.931200
   8356   8353   8357     1   109.4300470 427.604800
   8356   8353   8366     1   109.5800467 425.931200
   8359   8364   8365     1   107.2600461 396.643200
   8362   8359   8364     1   110.2600474 425.931200
   8362   8359   8363     1   108.4600466 328.025600
   8363   8359   8364     1   110.2600474 425.931200
   8368   8349   8369     1   110.2600474 425.931200
   8373   8375   8376     1   108.8800464 416.726400
   8373   8375   8378     1   108.8800464 416.726400
   8374   8373   8375     1   117.6800502 383.254400
   8375   8377   8379     1   109.5600471 388.275200
   8375   8377   8380     1   109.5600471 388.275200
   8376   8375   8377     1   109.5600471 388.275200
   8376   8375   8378     1   108.4600466 328.025600
   8377   8381   8446     1   110.1100470 384.091200
   8377   8375   8378     1   109.5600471 388.275200
   8379   8377   8381     1   107.9000462 406.684800
   8379   8377   8380     1   108.4600466 328.025600
   8380   8377   8381     1   107.9000462 406.684800
   8381   8382   8391     1   107.9000462 406.684800
   8381   8382   8392     1   107.9000462 406.684800
   8381   8383   8384     1   107.9000462 406.684800
   8381   8383   8386     1   107.9000462 406.684800
   8382   8393   8394     1   109.8000471 387.438400
   8382   8393   8395     1   109.8000471 387.438400
   8382   8381   8446     1   110.1100470 384.091200
   8383   8385   8387     1   109.8000471 387.438400
   8383   8385   8388     1   109.8000471 387.438400
   8383   8381   8446     1   110.1100470 384.091200
   8384   8383   8385     1   109.5600471 388.275200
   8384   8383   8386     1   108.4600466 328.025600
   8385   8383   8386     1   109.5600471 388.275200
   8387   8385   8389     1   108.7700466 392.459200
   8387   8385   8388     1   107.5800459 329.699200
   8388   8385   8389     1   108.7700466 392.459200
   8389   8421   8411     1   119.3800509 410.868800
   8391   8382   8393     1   109.5600471 388.275200
   8391   8382   8392     1   108.4600466 328.025600
   8392   8382   8393     1   109.5600471 388.275200
   8394   8393   8396     1   108.7700466 392.459200
   8394   8393   8395     1   107.5800459 329.699200
   8395   8393   8396     1   108.7700466 392.459200
   8396   8445   8435     1   119.3800509 410.868800
   8398   8399   8418     1   109.5600471 388.275200
   8398   8409   8412     1   109.5600471 388.275200
   8398   8409   8413     1   109.5600471 388.275200
   8399   8401   8405     1   109.5600471 388.275200
   8399   8419   8420     1   107.2600461 396.643200
   8399   8398   8400     1   109.5600471 388.275200
   8400   8398   8409     1   109.5600471 388.275200
   8400   8398   8416     1   109.7800468 425.094400
   8401   8402   8404     1   109.5600471 388.275200
   8401   8408   8410     1   107.2600461 396.643200
   8401   8399   8418     1   109.5600471 388.275200
   8402   8403   8406     1   110.2200475 386.601600
   8402   8421   8411     1   109.2900470 396.643200
   8402   8401   8405     1   109.5600471 388.275200
   8403   8407   8417     1   107.2600461 396.643200
   8403   8402   8404     1   109.5600471 388.275200
   8404   8402   8421     1   109.8800469 414.216000
   8405   8401   8408     1   110.2600474 425.931200
   8406   8403   8407     1   109.4300470 427.604800
   8406   8403   8416     1   109.5800467 425.931200
   8409   8414   8415     1   107.2600461 396.643200
   8412   8409   8414     1   110.2600474 425.931200
   8412   8409   8413     1   108.4600466 328.025600
   8413   8409   8414     1   110.2600474 425.931200
   8418   8399   8419     1   110.2600474 425.931200
   8422   8423   8442     1   109.5600471 388.275200
   8422   8433   8436     1   109.5600471 388.275200
   8422   8433   8437     1   109.5600471 388.275200
   8423   8425   8429     1   109.5600471 388.275200
   8423   8443   8444     1   107.2600461 396.643200
   8423   8422   8424     1   109.5600471 388.275200
   8424   8422   8433     1   109.5600471 388.275200
   8424   8422   8440     1   109.7800468 425.094400
   8425   8426   8428     1   109.5600471 388.275200
   8425   8432   8434     1   107.2600461 396.643200
   8425   8423   8442     1   109.5600471 388.275200
   8426   8427   8430     1   110.2200475 386.601600
   8426   8445   8435     1   109.2900470 396.643200
   8426   8425   8429     1   109.5600471 388.275200
   8427   8431   8441     1   107.2600461 396.643200
   8427   8426   8428     1   109.5600471 388.275200
   8428   8426   8445     1   109.8800469 414.216000
   8429   8425   8432     1   110.2600474 425.931200
   8430   8427   8431     1   109.4300470 427.604800
   8430   8427   8440     1   109.5800467 425.931200
   8433   8438   8439     1   107.2600461 396.643200
   8436   8433   8438     1   110.2600474 425.931200
   8436   8433   8437     1   108.4600466 328.025600
   8437   8433   8438     1   110.2600474 425.931200
   8442   8423   8443     1   110.2600474 425.931200
   8447   8449   8450     1   108.8800464 416.726400
   8447   8449   8452     1   108.8800464 416.726400
   8448   8447   8449     1   117.6800502 383.254400
   8449   8451   8453     1   109.5600471 388.275200
   8449   8451   8454     1   109.5600471 388.275200
   8450   8449   8451     1   109.5600471 388.275200
   8450   8449   8452     1   108.4600466 328.025600
   8451   8449   8452     1   109.5600471 388.275200
   8451   8455   8520     1   110.1100470 384.091200
   8453   8451   8455     1   107.9000462 406.684800
   8453   8451   8454     1   108.4600466 328.025600
   8454   8451   8455     1   107.9000462 406.684800
   8455   8456   8465     1   107.9000462 406.684800
   8455   8456   8466     1   107.9000462 406.684800
   8455   8457   8458     1   107.9000462 406.684800
   8455   8457   8460     1   107.9000462 406.684800
   8456   8455   8520     1   110.1100470 384.091200
   8456   8467   8468     1   109.8000471 387.438400
   8456   8467   8469     1   109.8000471 387.438400
   8457   8455   8520     1   110.1100470 384.091200
   8457   8459   8461     1   109.8000471 387.438400
   8457   8459   8462     1   109.8000471 387.438400
   8458   8457   8459     1   109.5600471 388.275200
   8458   8457   8460     1   108.4600466 328.025600
   8459   8457   8460     1   109.5600471 388.275200
   8461   8459   8463     1   108.7700466 392.459200
   8461   8459   8462     1   107.5800459 329.699200
   8462   8459   8463     1   108.7700466 392.459200
   8463   8495   8485     1   119.3800509 410.868800
   8465   8456   8467     1   109.5600471 388.275200
   8465   8456   8466     1   108.4600466 328.025600
   8466   8456   8467     1   109.5600471 388.275200
   8468   8467   8470     1   108.7700466 392.459200
   8468   8467   8469     1   107.5800459 329.699200
   8469   8467   8470     1   108.7700466 392.459200
   8470   8519   8509     1   119.3800509 410.868800
   8472   8473   8492     1   109.5600471 388.275200
   8472   8483   8486     1   109.5600471 388.275200
   8472   8483   8487     1   109.5600471 388.275200
   8473   8472   8474     1   109.5600471 388.275200
   8473   8475   8479     1   109.5600471 388.275200
   8473   8493   8494     1   107.2600461 396.643200
   8474   8472   8483     1   109.5600471 388.275200
   8474   8472   8490     1   109.7800468 425.094400
   8475   8473   8492     1   109.5600471 388.275200
   8475   8476   8478     1   109.5600471 388.275200
   8475   8482   8484     1   107.2600461 396.643200
   8476   8475   8479     1   109.5600471 388.275200
   8476   8477   8480     1   110.2200475 386.601600
   8476   8495   8485     1   109.2900470 396.643200
   8477   8476   8478     1   109.5600471 388.275200
   8477   8481   8491     1   107.2600461 396.643200
   8478   8476   8495     1   109.8800469 414.216000
   8479   8475   8482     1   110.2600474 425.931200
   8480   8477   8481     1   109.4300470 427.604800
   8480   8477   8490     1   109.5800467 425.931200
   8483   8488   8489     1   107.2600461 396.643200
   8486   8483   8488     1   110.2600474 425.931200
   8486   8483   8487     1   108.4600466 328.025600
   8487   8483   8488     1   110.2600474 425.931200
   8492   8473   8493     1   110.2600474 425.931200
   8496   8497   8516     1   109.5600471 388.275200
   8496   8507   8510     1   109.5600471 388.275200
   8496   8507   8511     1   109.5600471 388.275200
   8497   8496   8498     1   109.5600471 388.275200
   8497   8499   8503     1   109.5600471 388.275200
   8497   8517   8518     1   107.2600461 396.643200
   8498   8496   8507     1   109.5600471 388.275200
   8498   8496   8514     1   109.7800468 425.094400
   8499   8497   8516     1   109.5600471 388.275200
   8499   8500   8502     1   109.5600471 388.275200
   8499   8506   8508     1   107.2600461 396.643200
   8500   8499   8503     1   109.5600471 388.275200
   8500   8501   8504     1   110.2200475 386.601600
   8500   8519   8509     1   109.2900470 396.643200
   8501   8500   8502     1   109.5600471 388.275200
   8501   8505   8515     1   107.2600461 396.643200
   8502   8500   8519     1   109.8800469 414.216000
   8503   8499   8506     1   110.2600474 425.931200
   8504   8501   8505     1   109.4300470 427.604800
   8504   8501   8514     1   109.5800467 425.931200
   8507   8512   8513     1   107.2600461 396.643200
   8510   8507   8512     1   110.2600474 425.931200
   8510   8507   8511     1   108.4600466 328.025600
   8511   8507   8512     1   110.2600474 425.931200
   8516   8497   8517     1   110.2600474 425.931200
   8521   8523   8524     1   108.8800464 416.726400
   8521   8523   8526     1   108.8800464 416.726400
   8522   8521   8523     1   117.6800502 383.254400
   8523   8525   8527     1   109.5600471 388.275200
   8523   8525   8528     1   109.5600471 388.275200
   8524   8523   8525     1   109.5600471 388.275200
   8524   8523   8526     1   108.4600466 328.025600
   8525   8529   8594     1   110.1100470 384.091200
   8525   8523   8526     1   109.5600471 388.275200
   8527   8525   8529     1   107.9000462 406.684800
   8527   8525   8528     1   108.4600466 328.025600
   8528   8525   8529     1   107.9000462 406.684800
   8529   8530   8539     1   107.9000462 406.684800
   8529   8530   8540     1   107.9000462 406.684800
   8529   8531   8532     1   107.9000462 406.684800
   8529   8531   8534     1   107.9000462 406.684800
   8530   8541   8542     1   109.8000471 387.438400
   8530   8541   8543     1   109.8000471 387.438400
   8530   8529   8594     1   110.1100470 384.091200
   8531   8533   8535     1   109.8000471 387.438400
   8531   8533   8536     1   109.8000471 387.438400
   8531   8529   8594     1   110.1100470 384.091200
   8532   8531   8533     1   109.5600471 388.275200
   8532   8531   8534     1   108.4600466 328.025600
   8533   8531   8534     1   109.5600471 388.275200
   8535   8533   8537     1   108.7700466 392.459200
   8535   8533   8536     1   107.5800459 329.699200
   8536   8533   8537     1   108.7700466 392.459200
   8537   8569   8559     1   119.3800509 410.868800
   8539   8530   8541     1   109.5600471 388.275200
   8539   8530   8540     1   108.4600466 328.025600
   8540   8530   8541     1   109.5600471 388.275200
   8542   8541   8544     1   108.7700466 392.459200
   8542   8541   8543     1   107.5800459 329.699200
   8543   8541   8544     1   108.7700466 392.459200
   8544   8593   8583     1   119.3800509 410.868800
   8546   8547   8566     1   109.5600471 388.275200
   8546   8557   8560     1   109.5600471 388.275200
   8546   8557   8561     1   109.5600471 388.275200
   8547   8549   8553     1   109.5600471 388.275200
   8547   8567   8568     1   107.2600461 396.643200
   8547   8546   8548     1   109.5600471 388.275200
   8548   8546   8557     1   109.5600471 388.275200
   8548   8546   8564     1   109.7800468 425.094400
   8549   8550   8552     1   109.5600471 388.275200
   8549   8556   8558     1   107.2600461 396.643200
   8549   8547   8566     1   109.5600471 388.275200
   8550   8551   8554     1   110.2200475 386.601600
   8550   8569   8559     1   109.2900470 396.643200
   8550   8549   8553     1   109.5600471 388.275200
   8551   8555   8565     1   107.2600461 396.643200
   8551   8550   8552     1   109.5600471 388.275200
   8552   8550   8569     1   109.8800469 414.216000
   8553   8549   8556     1   110.2600474 425.931200
   8554   8551   8555     1   109.4300470 427.604800
   8554   8551   8564     1   109.5800467 425.931200
   8557   8562   8563     1   107.2600461 396.643200
   8560   8557   8562     1   110.2600474 425.931200
   8560   8557   8561     1   108.4600466 328.025600
   8561   8557   8562     1   110.2600474 425.931200
   8566   8547   8567     1   110.2600474 425.931200
   8570   8571   8590     1   109.5600471 388.275200
   8570   8581   8584     1   109.5600471 388.275200
   8570   8581   8585     1   109.5600471 388.275200
   8571   8573   8577     1   109.5600471 388.275200
   8571   8591   8592     1   107.2600461 396.643200
   8571   8570   8572     1   109.5600471 388.275200
   8572   8570   8581     1   109.5600471 388.275200
   8572   8570   8588     1   109.7800468 425.094400
   8573   8574   8576     1   109.5600471 388.275200
   8573   8580   8582     1   107.2600461 396.643200
   8573   8571   8590     1   109.5600471 388.275200
   8574   8575   8578     1   110.2200475 386.601600
   8574   8593   8583     1   109.2900470 396.643200
   8574   8573   8577     1   109.5600471 388.275200
   8575   8579   8589     1   107.2600461 396.643200
   8575   8574   8576     1   109.5600471 388.275200
   8576   8574   8593     1   109.8800469 414.216000
   8577   8573   8580     1   110.2600474 425.931200
   8578   8575   8579     1   109.4300470 427.604800
   8578   8575   8588     1   109.5800467 425.931200
   8581   8586   8587     1   107.2600461 396.643200
   8584   8581   8586     1   110.2600474 425.931200
   8584   8581   8585     1   108.4600466 328.025600
   8585   8581   8586     1   110.2600474 425.931200
   8590   8571   8591     1   110.2600474 425.931200
   8595   8597   8598     1   108.8800464 416.726400
   8595   8597   8600     1   108.8800464 416.726400
   8596   8595   8597     1   117.6800502 383.254400
   8597   8599   8601     1   109.5600471 388.275200
   8597   8599   8602     1   109.5600471 388.275200
   8598   8597   8599     1   109.5600471 388.275200
   8598   8597   8600     1   108.4600466 328.025600
   8599   8597   8600     1   109.5600471 388.275200
   8599   8603   8668     1   110.1100470 384.091200
   8601   8599   8603     1   107.9000462 406.684800
   8601   8599   8602     1   108.4600466 328.025600
   8602   8599   8603     1   107.9000462 406.684800
   8603   8604   8613     1   107.9000462 406.684800
   8603   8604   8614     1   107.9000462 406.684800
   8603   8605   8606     1   107.9000462 406.684800
   8603   8605   8608     1   107.9000462 406.684800
   8604   8603   8668     1   110.1100470 384.091200
   8604   8615   8616     1   109.8000471 387.438400
   8604   8615   8617     1   109.8000471 387.438400
   8605   8603   8668     1   110.1100470 384.091200
   8605   8607   8609     1   109.8000471 387.438400
   8605   8607   8610     1   109.8000471 387.438400
   8606   8605   8607     1   109.5600471 388.275200
   8606   8605   8608     1   108.4600466 328.025600
   8607   8605   8608     1   109.5600471 388.275200
   8609   8607   8611     1   108.7700466 392.459200
   8609   8607   8610     1   107.5800459 329.699200
   8610   8607   8611     1   108.7700466 392.459200
   8611   8643   8633     1   119.3800509 410.868800
   8613   8604   8615     1   109.5600471 388.275200
   8613   8604   8614     1   108.4600466 328.025600
   8614   8604   8615     1   109.5600471 388.275200
   8616   8615   8618     1   108.7700466 392.459200
   8616   8615   8617     1   107.5800459 329.699200
   8617   8615   8618     1   108.7700466 392.459200
   8618   8667   8657     1   119.3800509 410.868800
   8620   8621   8640     1   109.5600471 388.275200
   8620   8631   8634     1   109.5600471 388.275200
   8620   8631   8635     1   109.5600471 388.275200
   8621   8620   8622     1   109.5600471 388.275200
   8621   8623   8627     1   109.5600471 388.275200
   8621   8641   8642     1   107.2600461 396.643200
   8622   8620   8631     1   109.5600471 388.275200
   8622   8620   8638     1   109.7800468 425.094400
   8623   8621   8640     1   109.5600471 388.275200
   8623   8624   8626     1   109.5600471 388.275200
   8623   8630   8632     1   107.2600461 396.643200
   8624   8623   8627     1   109.5600471 388.275200
   8624   8625   8628     1   110.2200475 386.601600
   8624   8643   8633     1   109.2900470 396.643200
   8625   8624   8626     1   109.5600471 388.275200
   8625   8629   8639     1   107.2600461 396.643200
   8626   8624   8643     1   109.8800469 414.216000
   8627   8623   8630     1   110.2600474 425.931200
   8628   8625   8629     1   109.4300470 427.604800
   8628   8625   8638     1   109.5800467 425.931200
   8631   8636   8637     1   107.2600461 396.643200
   8634   8631   8636     1   110.2600474 425.931200
   8634   8631   8635     1   108.4600466 328.025600
   8635   8631   8636     1   110.2600474 425.931200
   8640   8621   8641     1   110.2600474 425.931200
   8644   8645   8664     1   109.5600471 388.275200
   8644   8655   8658     1   109.5600471 388.275200
   8644   8655   8659     1   109.5600471 388.275200
   8645   8644   8646     1   109.5600471 388.275200
   8645   8647   8651     1   109.5600471 388.275200
   8645   8665   8666     1   107.2600461 396.643200
   8646   8644   8655     1   109.5600471 388.275200
   8646   8644   8662     1   109.7800468 425.094400
   8647   8645   8664     1   109.5600471 388.275200
   8647   8648   8650     1   109.5600471 388.275200
   8647   8654   8656     1   107.2600461 396.643200
   8648   8647   8651     1   109.5600471 388.275200
   8648   8649   8652     1   110.2200475 386.601600
   8648   8667   8657     1   109.2900470 396.643200
   8649   8648   8650     1   109.5600471 388.275200
   8649   8653   8663     1   107.2600461 396.643200
   8650   8648   8667     1   109.8800469 414.216000
   8651   8647   8654     1   110.2600474 425.931200
   8652   8649   8653     1   109.4300470 427.604800
   8652   8649   8662     1   109.5800467 425.931200
   8655   8660   8661     1   107.2600461 396.643200
   8658   8655   8660     1   110.2600474 425.931200
   8658   8655   8659     1   108.4600466 328.025600
   8659   8655   8660     1   110.2600474 425.931200
   8664   8645   8665     1   110.2600474 425.931200
   8669   8671   8672     1   108.8800464 416.726400
   8669   8671   8674     1   108.8800464 416.726400
   8670   8669   8671     1   117.6800502 383.254400
   8671   8673   8675     1   109.5600471 388.275200
   8671   8673   8676     1   109.5600471 388.275200
   8672   8671   8673     1   109.5600471 388.275200
   8672   8671   8674     1   108.4600466 328.025600
   8673   8677   8742     1   110.1100470 384.091200
   8673   8671   8674     1   109.5600471 388.275200
   8675   8673   8677     1   107.9000462 406.684800
   8675   8673   8676     1   108.4600466 328.025600
   8676   8673   8677     1   107.9000462 406.684800
   8677   8678   8687     1   107.9000462 406.684800
   8677   8678   8688     1   107.9000462 406.684800
   8677   8679   8680     1   107.9000462 406.684800
   8677   8679   8682     1   107.9000462 406.684800
   8678   8689   8690     1   109.8000471 387.438400
   8678   8689   8691     1   109.8000471 387.438400
   8678   8677   8742     1   110.1100470 384.091200
   8679   8681   8683     1   109.8000471 387.438400
   8679   8681   8684     1   109.8000471 387.438400
   8679   8677   8742     1   110.1100470 384.091200
   8680   8679   8681     1   109.5600471 388.275200
   8680   8679   8682     1   108.4600466 328.025600
   8681   8679   8682     1   109.5600471 388.275200
   8683   8681   8685     1   108.7700466 392.459200
   8683   8681   8684     1   107.5800459 329.699200
   8684   8681   8685     1   108.7700466 392.459200
   8685   8717   8707     1   119.3800509 410.868800
   8687   8678   8689     1   109.5600471 388.275200
   8687   8678   8688     1   108.4600466 328.025600
   8688   8678   8689     1   109.5600471 388.275200
   8690   8689   8692     1   108.7700466 392.459200
   8690   8689   8691     1   107.5800459 329.699200
   8691   8689   8692     1   108.7700466 392.459200
   8692   8741   8731     1   119.3800509 410.868800
   8694   8695   8714     1   109.5600471 388.275200
   8694   8705   8708     1   109.5600471 388.275200
   8694   8705   8709     1   109.5600471 388.275200
   8695   8697   8701     1   109.5600471 388.275200
   8695   8715   8716     1   107.2600461 396.643200
   8695   8694   8696     1   109.5600471 388.275200
   8696   8694   8705     1   109.5600471 388.275200
   8696   8694   8712     1   109.7800468 425.094400
   8697   8698   8700     1   109.5600471 388.275200
   8697   8704   8706     1   107.2600461 396.643200
   8697   8695   8714     1   109.5600471 388.275200
   8698   8699   8702     1   110.2200475 386.601600
   8698   8717   8707     1   109.2900470 396.643200
   8698   8697   8701     1   109.5600471 388.275200
   8699   8703   8713     1   107.2600461 396.643200
   8699   8698   8700     1   109.5600471 388.275200
   8700   8698   8717     1   109.8800469 414.216000
   8701   8697   8704     1   110.2600474 425.931200
   8702   8699   8703     1   109.4300470 427.604800
   8702   8699   8712     1   109.5800467 425.931200
   8705   8710   8711     1   107.2600461 396.643200
   8708   8705   8710     1   110.2600474 425.931200
   8708   8705   8709     1   108.4600466 328.025600
   8709   8705   8710     1   110.2600474 425.931200
   8714   8695   8715     1   110.2600474 425.931200
   8718   8719   8738     1   109.5600471 388.275200
   8718   8729   8732     1   109.5600471 388.275200
   8718   8729   8733     1   109.5600471 388.275200
   8719   8721   8725     1   109.5600471 388.275200
   8719   8739   8740     1   107.2600461 396.643200
   8719   8718   8720     1   109.5600471 388.275200
   8720   8718   8729     1   109.5600471 388.275200
   8720   8718   8736     1   109.7800468 425.094400
   8721   8722   8724     1   109.5600471 388.275200
   8721   8728   8730     1   107.2600461 396.643200
   8721   8719   8738     1   109.5600471 388.275200
   8722   8723   8726     1   110.2200475 386.601600
   8722   8741   8731     1   109.2900470 396.643200
   8722   8721   8725     1   109.5600471 388.275200
   8723   8727   8737     1   107.2600461 396.643200
   8723   8722   8724     1   109.5600471 388.275200
   8724   8722   8741     1   109.8800469 414.216000
   8725   8721   8728     1   110.2600474 425.931200
   8726   8723   8727     1   109.4300470 427.604800
   8726   8723   8736     1   109.5800467 425.931200
   8729   8734   8735     1   107.2600461 396.643200
   8732   8729   8734     1   110.2600474 425.931200
   8732   8729   8733     1   108.4600466 328.025600
   8733   8729   8734     1   110.2600474 425.931200
   8738   8719   8739     1   110.2600474 425.931200
   8743   8745   8746     1   108.8800464 416.726400
   8743   8745   8748     1   108.8800464 416.726400
   8744   8743   8745     1   117.6800502 383.254400
   8745   8747   8749     1   109.5600471 388.275200
   8745   8747   8750     1   109.5600471 388.275200
   8746   8745   8747     1   109.5600471 388.275200
   8746   8745   8748     1   108.4600466 328.025600
   8747   8745   8748     1   109.5600471 388.275200
   8747   8751   8816     1   110.1100470 384.091200
   8749   8747   8751     1   107.9000462 406.684800
   8749   8747   8750     1   108.4600466 328.025600
   8750   8747   8751     1   107.9000462 406.684800
   8751   8752   8761     1   107.9000462 406.684800
   8751   8752   8762     1   107.9000462 406.684800
   8751   8753   8754     1   107.9000462 406.684800
   8751   8753   8756     1   107.9000462 406.684800
   8752   8751   8816     1   110.1100470 384.091200
   8752   8763   8764     1   109.8000471 387.438400
   8752   8763   8765     1   109.8000471 387.438400
   8753   8751   8816     1   110.1100470 384.091200
   8753   8755   8757     1   109.8000471 387.438400
   8753   8755   8758     1   109.8000471 387.438400
   8754   8753   8755     1   109.5600471 388.275200
   8754   8753   8756     1   108.4600466 328.025600
   8755   8753   8756     1   109.5600471 388.275200
   8757   8755   8759     1   108.7700466 392.459200
   8757   8755   8758     1   107.5800459 329.699200
   8758   8755   8759     1   108.7700466 392.459200
   8759   8791   8781     1   119.3800509 410.868800
   8761   8752   8763     1   109.5600471 388.275200
   8761   8752   8762     1   108.4600466 328.025600
   8762   8752   8763     1   109.5600471 388.275200
   8764   8763   8766     1   108.7700466 392.459200
   8764   8763   8765     1   107.5800459 329.699200
   8765   8763   8766     1   108.7700466 392.459200
   8766   8815   8805     1   119.3800509 410.868800
   8768   8769   8788     1   109.5600471 388.275200
   8768   8779   8782     1   109.5600471 388.275200
   8768   8779   8783     1   109.5600471 388.275200
   8769   8768   8770     1   109.5600471 388.275200
   8769   8771   8775     1   109.5600471 388.275200
   8769   8789   8790     1   107.2600461 396.643200
   8770   8768   8779     1   109.5600471 388.275200
   8770   8768   8786     1   109.7800468 425.094400
   8771   8769   8788     1   109.5600471 388.275200
   8771   8772   8774     1   109.5600471 388.275200
   8771   8778   8780     1   107.2600461 396.643200
   8772   8771   8775     1   109.5600471 388.275200
   8772   8773   8776     1   110.2200475 386.601600
   8772   8791   8781     1   109.2900470 396.643200
   8773   8772   8774     1   109.5600471 388.275200
   8773   8777   8787     1   107.2600461 396.643200
   8774   8772   8791     1   109.8800469 414.216000
   8775   8771   8778     1   110.2600474 425.931200
   8776   8773   8777     1   109.4300470 427.604800
   8776   8773   8786     1   109.5800467 425.931200
   8779   8784   8785     1   107.2600461 396.643200
   8782   8779   8784     1   110.2600474 425.931200
   8782   8779   8783     1   108.4600466 328.025600
   8783   8779   8784     1   110.2600474 425.931200
   8788   8769   8789     1   110.2600474 425.931200
   8792   8793   8812     1   109.5600471 388.275200
   8792   8803   8806     1   109.5600471 388.275200
   8792   8803   8807     1   109.5600471 388.275200
   8793   8792   8794     1   109.5600471 388.275200
   8793   8795   8799     1   109.5600471 388.275200
   8793   8813   8814     1   107.2600461 396.643200
   8794   8792   8803     1   109.5600471 388.275200
   8794   8792   8810     1   109.7800468 425.094400
   8795   8793   8812     1   109.5600471 388.275200
   8795   8796   8798     1   109.5600471 388.275200
   8795   8802   8804     1   107.2600461 396.643200
   8796   8795   8799     1   109.5600471 388.275200
   8796   8797   8800     1   110.2200475 386.601600
   8796   8815   8805     1   109.2900470 396.643200
   8797   8796   8798     1   109.5600471 388.275200
   8797   8801   8811     1   107.2600461 396.643200
   8798   8796   8815     1   109.8800469 414.216000
   8799   8795   8802     1   110.2600474 425.931200
   8800   8797   8801     1   109.4300470 427.604800
   8800   8797   8810     1   109.5800467 425.931200
   8803   8808   8809     1   107.2600461 396.643200
   8806   8803   8808     1   110.2600474 425.931200
   8806   8803   8807     1   108.4600466 328.025600
   8807   8803   8808     1   110.2600474 425.931200
   8812   8793   8813     1   110.2600474 425.931200
   8817   8819   8820     1   108.8800464 416.726400
   8817   8819   8822     1   108.8800464 416.726400
   8818   8817   8819     1   117.6800502 383.254400
   8819   8821   8823     1   109.5600471 388.275200
   8819   8821   8824     1   109.5600471 388.275200
   8820   8819   8821     1   109.5600471 388.275200
   8820   8819   8822     1   108.4600466 328.025600
   8821   8825   8890     1   110.1100470 384.091200
   8821   8819   8822     1   109.5600471 388.275200
   8823   8821   8825     1   107.9000462 406.684800
   8823   8821   8824     1   108.4600466 328.025600
   8824   8821   8825     1   107.9000462 406.684800
   8825   8826   8835     1   107.9000462 406.684800
   8825   8826   8836     1   107.9000462 406.684800
   8825   8827   8828     1   107.9000462 406.684800
   8825   8827   8830     1   107.9000462 406.684800
   8826   8837   8838     1   109.8000471 387.438400
   8826   8837   8839     1   109.8000471 387.438400
   8826   8825   8890     1   110.1100470 384.091200
   8827   8829   8831     1   109.8000471 387.438400
   8827   8829   8832     1   109.8000471 387.438400
   8827   8825   8890     1   110.1100470 384.091200
   8828   8827   8829     1   109.5600471 388.275200
   8828   8827   8830     1   108.4600466 328.025600
   8829   8827   8830     1   109.5600471 388.275200
   8831   8829   8833     1   108.7700466 392.459200
   8831   8829   8832     1   107.5800459 329.699200
   8832   8829   8833     1   108.7700466 392.459200
   8833   8865   8855     1   119.3800509 410.868800
   8835   8826   8837     1   109.5600471 388.275200
   8835   8826   8836     1   108.4600466 328.025600
   8836   8826   8837     1   109.5600471 388.275200
   8838   8837   8840     1   108.7700466 392.459200
   8838   8837   8839     1   107.5800459 329.699200
   8839   8837   8840     1   108.7700466 392.459200
   8840   8889   8879     1   119.3800509 410.868800
   8842   8843   8862     1   109.5600471 388.275200
   8842   8853   8856     1   109.5600471 388.275200
   8842   8853   8857     1   109.5600471 388.275200
   8843   8845   8849     1   109.5600471 388.275200
   8843   8863   8864     1   107.2600461 396.643200
   8843   8842   8844     1   109.5600471 388.275200
   8844   8842   8853     1   109.5600471 388.275200
   8844   8842   8860     1   109.7800468 425.094400
   8845   8846   8848     1   109.5600471 388.275200
   8845   8852   8854     1   107.2600461 396.643200
   8845   8843   8862     1   109.5600471 388.275200
   8846   8847   8850     1   110.2200475 386.601600
   8846   8865   8855     1   109.2900470 396.643200
   8846   8845   8849     1   109.5600471 388.275200
   8847   8851   8861     1   107.2600461 396.643200
   8847   8846   8848     1   109.5600471 388.275200
   8848   8846   8865     1   109.8800469 414.216000
   8849   8845   8852     1   110.2600474 425.931200
   8850   8847   8851     1   109.4300470 427.604800
   8850   8847   8860     1   109.5800467 425.931200
   8853   8858   8859     1   107.2600461 396.643200
   8856   8853   8858     1   110.2600474 425.931200
   8856   8853   8857     1   108.4600466 328.025600
   8857   8853   8858     1   110.2600474 425.931200
   8862   8843   8863     1   110.2600474 425.931200
   8866   8867   8886     1   109.5600471 388.275200
   8866   8877   8880     1   109.5600471 388.275200
   8866   8877   8881     1   109.5600471 388.275200
   8867   8869   8873     1   109.5600471 388.275200
   8867   8887   8888     1   107.2600461 396.643200
   8867   8866   8868     1   109.5600471 388.275200
   8868   8866   8877     1   109.5600471 388.275200
   8868   8866   8884     1   109.7800468 425.094400
   8869   8870   8872     1   109.5600471 388.275200
   8869   8876   8878     1   107.2600461 396.643200
   8869   8867   8886     1   109.5600471 388.275200
   8870   8871   8874     1   110.2200475 386.601600
   8870   8889   8879     1   109.2900470 396.643200
   8870   8869   8873     1   109.5600471 388.275200
   8871   8875   8885     1   107.2600461 396.643200
   8871   8870   8872     1   109.5600471 388.275200
   8872   8870   8889     1   109.8800469 414.216000
   8873   8869   8876     1   110.2600474 425.931200
   8874   8871   8875     1   109.4300470 427.604800
   8874   8871   8884     1   109.5800467 425.931200
   8877   8882   8883     1   107.2600461 396.643200
   8880   8877   8882     1   110.2600474 425.931200
   8880   8877   8881     1   108.4600466 328.025600
   8881   8877   8882     1   110.2600474 425.931200
   8886   8867   8887     1   110.2600474 425.931200
   8891   8893   8894     1   108.8800464 416.726400
   8891   8893   8896     1   108.8800464 416.726400
   8892   8891   8893     1   117.6800502 383.254400
   8893   8895   8897     1   109.5600471 388.275200
   8893   8895   8898     1   109.5600471 388.275200
   8894   8893   8895     1   109.5600471 388.275200
   8894   8893   8896     1   108.4600466 328.025600
   8895   8893   8896     1   109.5600471 388.275200
   8895   8899   8964     1   110.1100470 384.091200
   8897   8895   8899     1   107.9000462 406.684800
   8897   8895   8898     1   108.4600466 328.025600
   8898   8895   8899     1   107.9000462 406.684800
   8899   8900   8909     1   107.9000462 406.684800
   8899   8900   8910     1   107.9000462 406.684800
   8899   8901   8902     1   107.9000462 406.684800
   8899   8901   8904     1   107.9000462 406.684800
   8900   8899   8964     1   110.1100470 384.091200
   8900   8911   8912     1   109.8000471 387.438400
   8900   8911   8913     1   109.8000471 387.438400
   8901   8899   8964     1   110.1100470 384.091200
   8901   8903   8905     1   109.8000471 387.438400
   8901   8903   8906     1   109.8000471 387.438400
   8902   8901   8903     1   109.5600471 388.275200
   8902   8901   8904     1   108.4600466 328.025600
   8903   8901   8904     1   109.5600471 388.275200
   8905   8903   8907     1   108.7700466 392.459200
   8905   8903   8906     1   107.5800459 329.699200
   8906   8903   8907     1   108.7700466 392.459200
   8907   8939   8929     1   119.3800509 410.868800
   8909   8900   8911     1   109.5600471 388.275200
   8909   8900   8910     1   108.4600466 328.025600
   8910   8900   8911     1   109.5600471 388.275200
   8912   8911   8914     1   108.7700466 392.459200
   8912   8911   8913     1   107.5800459 329.699200
   8913   8911   8914     1   108.7700466 392.459200
   8914   8963   8953     1   119.3800509 410.868800
   8916   8917   8936     1   109.5600471 388.275200
   8916   8927   8930     1   109.5600471 388.275200
   8916   8927   8931     1   109.5600471 388.275200
   8917   8916   8918     1   109.5600471 388.275200
   8917   8919   8923     1   109.5600471 388.275200
   8917   8937   8938     1   107.2600461 396.643200
   8918   8916   8927     1   109.5600471 388.275200
   8918   8916   8934     1   109.7800468 425.094400
   8919   8917   8936     1   109.5600471 388.275200
   8919   8920   8922     1   109.5600471 388.275200
   8919   8926   8928     1   107.2600461 396.643200
   8920   8919   8923     1   109.5600471 388.275200
   8920   8921   8924     1   110.2200475 386.601600
   8920   8939   8929     1   109.2900470 396.643200
   8921   8920   8922     1   109.5600471 388.275200
   8921   8925   8935     1   107.2600461 396.643200
   8922   8920   8939     1   109.8800469 414.216000
   8923   8919   8926     1   110.2600474 425.931200
   8924   8921   8925     1   109.4300470 427.604800
   8924   8921   8934     1   109.5800467 425.931200
   8927   8932   8933     1   107.2600461 396.643200
   8930   8927   8932     1   110.2600474 425.931200
   8930   8927   8931     1   108.4600466 328.025600
   8931   8927   8932     1   110.2600474 425.931200
   8936   8917   8937     1   110.2600474 425.931200
   8940   8941   8960     1   109.5600471 388.275200
   8940   8951   8954     1   109.5600471 388.275200
   8940   8951   8955     1   109.5600471 388.275200
   8941   8940   8942     1   109.5600471 388.275200
   8941   8943   8947     1   109.5600471 388.275200
   8941   8961   8962     1   107.2600461 396.643200
   8942   8940   8951     1   109.5600471 388.275200
   8942   8940   8958     1   109.7800468 425.094400
   8943   8941   8960     1   109.5600471 388.275200
   8943   8944   8946     1   109.5600471 388.275200
   8943   8950   8952     1   107.2600461 396.643200
   8944   8943   8947     1   109.5600471 388.275200
   8944   8945   8948     1   110.2200475 386.601600
   8944   8963   8953     1   109.2900470 396.643200
   8945   8944   8946     1   109.5600471 388.275200
   8945   8949   8959     1   107.2600461 396.643200
   8946   8944   8963     1   109.8800469 414.216000
   8947   8943   8950     1   110.2600474 425.931200
   8948   8945   8949     1   109.4300470 427.604800
   8948   8945   8958     1   109.5800467 425.931200
   8951   8956   8957     1   107.2600461 396.643200
   8954   8951   8956     1   110.2600474 425.931200
   8954   8951   8955     1   108.4600466 328.025600
   8955   8951   8956     1   110.2600474 425.931200
   8960   8941   8961     1   110.2600474 425.931200
   8965   8967   8968     1   108.8800464 416.726400
   8965   8967   8970     1   108.8800464 416.726400
   8966   8965   8967     1   117.6800502 383.254400
   8967   8969   8971     1   109.5600471 388.275200
   8967   8969   8972     1   109.5600471 388.275200
   8968   8967   8969     1   109.5600471 388.275200
   8968   8967   8970     1   108.4600466 328.025600
   8969   8973   9038     1   110.1100470 384.091200
   8969   8967   8970     1   109.5600471 388.275200
   8971   8969   8973     1   107.9000462 406.684800
   8971   8969   8972     1   108.4600466 328.025600
   8972   8969   8973     1   107.9000462 406.684800
   8973   8974   8983     1   107.9000462 406.684800
   8973   8974   8984     1   107.9000462 406.684800
   8973   8975   8976     1   107.9000462 406.684800
   8973   8975   8978     1   107.9000462 406.684800
   8974   8985   8986     1   109.8000471 387.438400
   8974   8985   8987     1   109.8000471 387.438400
   8974   8973   9038     1   110.1100470 384.091200
   8975   8977   8979     1   109.8000471 387.438400
   8975   8977   8980     1   109.8000471 387.438400
   8975   8973   9038     1   110.1100470 384.091200
   8976   8975   8977     1   109.5600471 388.275200
   8976   8975   8978     1   108.4600466 328.025600
   8977   8975   8978     1   109.5600471 388.275200
   8979   8977   8981     1   108.7700466 392.459200
   8979   8977   8980     1   107.5800459 329.699200
   8980   8977   8981     1   108.7700466 392.459200
   8981   9013   9003     1   119.3800509 410.868800
   8983   8974   8985     1   109.5600471 388.275200
   8983   8974   8984     1   108.4600466 328.025600
   8984   8974   8985     1   109.5600471 388.275200
   8986   8985   8988     1   108.7700466 392.459200
   8986   8985   8987     1   107.5800459 329.699200
   8987   8985   8988     1   108.7700466 392.459200
   8988   9037   9027     1   119.3800509 410.868800
   8990   8991   9010     1   109.5600471 388.275200
   8990   9001   9004     1   109.5600471 388.275200
   8990   9001   9005     1   109.5600471 388.275200
   8991   8993   8997     1   109.5600471 388.275200
   8991   9011   9012     1   107.2600461 396.643200
   8991   8990   8992     1   109.5600471 388.275200
   8992   8990   9001     1   109.5600471 388.275200
   8992   8990   9008     1   109.7800468 425.094400
   8993   8994   8996     1   109.5600471 388.275200
   8993   9000   9002     1   107.2600461 396.643200
   8993   8991   9010     1   109.5600471 388.275200
   8994   8995   8998     1   110.2200475 386.601600
   8994   9013   9003     1   109.2900470 396.643200
   8994   8993   8997     1   109.5600471 388.275200
   8995   8999   9009     1   107.2600461 396.643200
   8995   8994   8996     1   109.5600471 388.275200
   8996   8994   9013     1   109.8800469 414.216000
   8997   8993   9000     1   110.2600474 425.931200
   8998   8995   8999     1   109.4300470 427.604800
   8998   8995   9008     1   109.5800467 425.931200
   9001   9006   9007     1   107.2600461 396.643200
   9004   9001   9006     1   110.2600474 425.931200
   9004   9001   9005     1   108.4600466 328.025600
   9005   9001   9006     1   110.2600474 425.931200
   9010   8991   9011     1   110.2600474 425.931200
   9014   9015   9034     1   109.5600471 388.275200
   9014   9025   9028     1   109.5600471 388.275200
   9014   9025   9029     1   109.5600471 388.275200
   9015   9017   9021     1   109.5600471 388.275200
   9015   9035   9036     1   107.2600461 396.643200
   9015   9014   9016     1   109.5600471 388.275200
   9016   9014   9025     1   109.5600471 388.275200
   9016   9014   9032     1   109.7800468 425.094400
   9017   9018   9020     1   109.5600471 388.275200
   9017   9024   9026     1   107.2600461 396.643200
   9017   9015   9034     1   109.5600471 388.275200
   9018   9019   9022     1   110.2200475 386.601600
   9018   9037   9027     1   109.2900470 396.643200
   9018   9017   9021     1   109.5600471 388.275200
   9019   9023   9033     1   107.2600461 396.643200
   9019   9018   9020     1   109.5600471 388.275200
   9020   9018   9037     1   109.8800469 414.216000
   9021   9017   9024     1   110.2600474 425.931200
   9022   9019   9023     1   109.4300470 427.604800
   9022   9019   9032     1   109.5800467 425.931200
   9025   9030   9031     1   107.2600461 396.643200
   9028   9025   9030     1   110.2600474 425.931200
   9028   9025   9029     1   108.4600466 328.025600
   9029   9025   9030     1   110.2600474 425.931200
   9034   9015   9035     1   110.2600474 425.931200
   9039   9041   9042     1   108.8800464 416.726400
   9039   9041   9044     1   108.8800464 416.726400
   9040   9039   9041     1   117.6800502 383.254400
   9041   9043   9045     1   109.5600471 388.275200
   9041   9043   9046     1   109.5600471 388.275200
   9042   9041   9043     1   109.5600471 388.275200
   9042   9041   9044     1   108.4600466 328.025600
   9043   9041   9044     1   109.5600471 388.275200
   9043   9047   9112     1   110.1100470 384.091200
   9045   9043   9047     1   107.9000462 406.684800
   9045   9043   9046     1   108.4600466 328.025600
   9046   9043   9047     1   107.9000462 406.684800
   9047   9048   9057     1   107.9000462 406.684800
   9047   9048   9058     1   107.9000462 406.684800
   9047   9049   9050     1   107.9000462 406.684800
   9047   9049   9052     1   107.9000462 406.684800
   9048   9047   9112     1   110.1100470 384.091200
   9048   9059   9060     1   109.8000471 387.438400
   9048   9059   9061     1   109.8000471 387.438400
   9049   9047   9112     1   110.1100470 384.091200
   9049   9051   9053     1   109.8000471 387.438400
   9049   9051   9054     1   109.8000471 387.438400
   9050   9049   9051     1   109.5600471 388.275200
   9050   9049   9052     1   108.4600466 328.025600
   9051   9049   9052     1   109.5600471 388.275200
   9053   9051   9055     1   108.7700466 392.459200
   9053   9051   9054     1   107.5800459 329.699200
   9054   9051   9055     1   108.7700466 392.459200
   9055   9087   9077     1   119.3800509 410.868800
   9057   9048   9059     1   109.5600471 388.275200
   9057   9048   9058     1   108.4600466 328.025600
   9058   9048   9059     1   109.5600471 388.275200
   9060   9059   9062     1   108.7700466 392.459200
   9060   9059   9061     1   107.5800459 329.699200
   9061   9059   9062     1   108.7700466 392.459200
   9062   9111   9101     1   119.3800509 410.868800
   9064   9065   9084     1   109.5600471 388.275200
   9064   9075   9078     1   109.5600471 388.275200
   9064   9075   9079     1   109.5600471 388.275200
   9065   9064   9066     1   109.5600471 388.275200
   9065   9067   9071     1   109.5600471 388.275200
   9065   9085   9086     1   107.2600461 396.643200
   9066   9064   9075     1   109.5600471 388.275200
   9066   9064   9082     1   109.7800468 425.094400
   9067   9065   9084     1   109.5600471 388.275200
   9067   9068   9070     1   109.5600471 388.275200
   9067   9074   9076     1   107.2600461 396.643200
   9068   9067   9071     1   109.5600471 388.275200
   9068   9069   9072     1   110.2200475 386.601600
   9068   9087   9077     1   109.2900470 396.643200
   9069   9068   9070     1   109.5600471 388.275200
   9069   9073   9083     1   107.2600461 396.643200
   9070   9068   9087     1   109.8800469 414.216000
   9071   9067   9074     1   110.2600474 425.931200
   9072   9069   9073     1   109.4300470 427.604800
   9072   9069   9082     1   109.5800467 425.931200
   9075   9080   9081     1   107.2600461 396.643200
   9078   9075   9080     1   110.2600474 425.931200
   9078   9075   9079     1   108.4600466 328.025600
   9079   9075   9080     1   110.2600474 425.931200
   9084   9065   9085     1   110.2600474 425.931200
   9088   9089   9108     1   109.5600471 388.275200
   9088   9099   9102     1   109.5600471 388.275200
   9088   9099   9103     1   109.5600471 388.275200
   9089   9088   9090     1   109.5600471 388.275200
   9089   9091   9095     1   109.5600471 388.275200
   9089   9109   9110     1   107.2600461 396.643200
   9090   9088   9099     1   109.5600471 388.275200
   9090   9088   9106     1   109.7800468 425.094400
   9091   9089   9108     1   109.5600471 388.275200
   9091   9092   9094     1   109.5600471 388.275200
   9091   9098   9100     1   107.2600461 396.643200
   9092   9091   9095     1   109.5600471 388.275200
   9092   9093   9096     1   110.2200475 386.601600
   9092   9111   9101     1   109.2900470 396.643200
   9093   9092   9094     1   109.5600471 388.275200
   9093   9097   9107     1   107.2600461 396.643200
   9094   9092   9111     1   109.8800469 414.216000
   9095   9091   9098     1   110.2600474 425.931200
   9096   9093   9097     1   109.4300470 427.604800
   9096   9093   9106     1   109.5800467 425.931200
   9099   9104   9105     1   107.2600461 396.643200
   9102   9099   9104     1   110.2600474 425.931200
   9102   9099   9103     1   108.4600466 328.025600
   9103   9099   9104     1   110.2600474 425.931200
   9108   9089   9109     1   110.2600474 425.931200
   9113   9115   9116     1   108.8800464 416.726400
   9113   9115   9118     1   108.8800464 416.726400
   9114   9113   9115     1   117.6800502 383.254400
   9115   9117   9119     1   109.5600471 388.275200
   9115   9117   9120     1   109.5600471 388.275200
   9116   9115   9117     1   109.5600471 388.275200
   9116   9115   9118     1   108.4600466 328.025600
   9117   9121   9186     1   110.1100470 384.091200
   9117   9115   9118     1   109.5600471 388.275200
   9119   9117   9121     1   107.9000462 406.684800
   9119   9117   9120     1   108.4600466 328.025600
   9120   9117   9121     1   107.9000462 406.684800
   9121   9122   9131     1   107.9000462 406.684800
   9121   9122   9132     1   107.9000462 406.684800
   9121   9123   9124     1   107.9000462 406.684800
   9121   9123   9126     1   107.9000462 406.684800
   9122   9133   9134     1   109.8000471 387.438400
   9122   9133   9135     1   109.8000471 387.438400
   9122   9121   9186     1   110.1100470 384.091200
   9123   9125   9127     1   109.8000471 387.438400
   9123   9125   9128     1   109.8000471 387.438400
   9123   9121   9186     1   110.1100470 384.091200
   9124   9123   9125     1   109.5600471 388.275200
   9124   9123   9126     1   108.4600466 328.025600
   9125   9123   9126     1   109.5600471 388.275200
   9127   9125   9129     1   108.7700466 392.459200
   9127   9125   9128     1   107.5800459 329.699200
   9128   9125   9129     1   108.7700466 392.459200
   9129   9161   9151     1   119.3800509 410.868800
   9131   9122   9133     1   109.5600471 388.275200
   9131   9122   9132     1   108.4600466 328.025600
   9132   9122   9133     1   109.5600471 388.275200
   9134   9133   9136     1   108.7700466 392.459200
   9134   9133   9135     1   107.5800459 329.699200
   9135   9133   9136     1   108.7700466 392.459200
   9136   9185   9175     1   119.3800509 410.868800
   9138   9139   9158     1   109.5600471 388.275200
   9138   9149   9152     1   109.5600471 388.275200
   9138   9149   9153     1   109.5600471 388.275200
   9139   9141   9145     1   109.5600471 388.275200
   9139   9159   9160     1   107.2600461 396.643200
   9139   9138   9140     1   109.5600471 388.275200
   9140   9138   9149     1   109.5600471 388.275200
   9140   9138   9156     1   109.7800468 425.094400
   9141   9142   9144     1   109.5600471 388.275200
   9141   9148   9150     1   107.2600461 396.643200
   9141   9139   9158     1   109.5600471 388.275200
   9142   9143   9146     1   110.2200475 386.601600
   9142   9161   9151     1   109.2900470 396.643200
   9142   9141   9145     1   109.5600471 388.275200
   9143   9147   9157     1   107.2600461 396.643200
   9143   9142   9144     1   109.5600471 388.275200
   9144   9142   9161     1   109.8800469 414.216000
   9145   9141   9148     1   110.2600474 425.931200
   9146   9143   9147     1   109.4300470 427.604800
   9146   9143   9156     1   109.5800467 425.931200
   9149   9154   9155     1   107.2600461 396.643200
   9152   9149   9154     1   110.2600474 425.931200
   9152   9149   9153     1   108.4600466 328.025600
   9153   9149   9154     1   110.2600474 425.931200
   9158   9139   9159     1   110.2600474 425.931200
   9162   9163   9182     1   109.5600471 388.275200
   9162   9173   9176     1   109.5600471 388.275200
   9162   9173   9177     1   109.5600471 388.275200
   9163   9165   9169     1   109.5600471 388.275200
   9163   9183   9184     1   107.2600461 396.643200
   9163   9162   9164     1   109.5600471 388.275200
   9164   9162   9173     1   109.5600471 388.275200
   9164   9162   9180     1   109.7800468 425.094400
   9165   9166   9168     1   109.5600471 388.275200
   9165   9172   9174     1   107.2600461 396.643200
   9165   9163   9182     1   109.5600471 388.275200
   9166   9167   9170     1   110.2200475 386.601600
   9166   9185   9175     1   109.2900470 396.643200
   9166   9165   9169     1   109.5600471 388.275200
   9167   9171   9181     1   107.2600461 396.643200
   9167   9166   9168     1   109.5600471 388.275200
   9168   9166   9185     1   109.8800469 414.216000
   9169   9165   9172     1   110.2600474 425.931200
   9170   9167   9171     1   109.4300470 427.604800
   9170   9167   9180     1   109.5800467 425.931200
   9173   9178   9179     1   107.2600461 396.643200
   9176   9173   9178     1   110.2600474 425.931200
   9176   9173   9177     1   108.4600466 328.025600
   9177   9173   9178     1   110.2600474 425.931200
   9182   9163   9183     1   110.2600474 425.931200
   9187   9189   9190     1   108.8800464 416.726400
   9187   9189   9192     1   108.8800464 416.726400
   9188   9187   9189     1   117.6800502 383.254400
   9189   9191   9193     1   109.5600471 388.275200
   9189   9191   9194     1   109.5600471 388.275200
   9190   9189   9191     1   109.5600471 388.275200
   9190   9189   9192     1   108.4600466 328.025600
   9191   9189   9192     1   109.5600471 388.275200
   9191   9195   9260     1   110.1100470 384.091200
   9193   9191   9195     1   107.9000462 406.684800
   9193   9191   9194     1   108.4600466 328.025600
   9194   9191   9195     1   107.9000462 406.684800
   9195   9196   9205     1   107.9000462 406.684800
   9195   9196   9206     1   107.9000462 406.684800
   9195   9197   9198     1   107.9000462 406.684800
   9195   9197   9200     1   107.9000462 406.684800
   9196   9195   9260     1   110.1100470 384.091200
   9196   9207   9208     1   109.8000471 387.438400
   9196   9207   9209     1   109.8000471 387.438400
   9197   9195   9260     1   110.1100470 384.091200
   9197   9199   9201     1   109.8000471 387.438400
   9197   9199   9202     1   109.8000471 387.438400
   9198   9197   9199     1   109.5600471 388.275200
   9198   9197   9200     1   108.4600466 328.025600
   9199   9197   9200     1   109.5600471 388.275200
   9201   9199   9203     1   108.7700466 392.459200
   9201   9199   9202     1   107.5800459 329.699200
   9202   9199   9203     1   108.7700466 392.459200
   9203   9235   9225     1   119.3800509 410.868800
   9205   9196   9207     1   109.5600471 388.275200
   9205   9196   9206     1   108.4600466 328.025600
   9206   9196   9207     1   109.5600471 388.275200
   9208   9207   9210     1   108.7700466 392.459200
   9208   9207   9209     1   107.5800459 329.699200
   9209   9207   9210     1   108.7700466 392.459200
   9210   9259   9249     1   119.3800509 410.868800
   9212   9213   9232     1   109.5600471 388.275200
   9212   9223   9226     1   109.5600471 388.275200
   9212   9223   9227     1   109.5600471 388.275200
   9213   9212   9214     1   109.5600471 388.275200
   9213   9215   9219     1   109.5600471 388.275200
   9213   9233   9234     1   107.2600461 396.643200
   9214   9212   9223     1   109.5600471 388.275200
   9214   9212   9230     1   109.7800468 425.094400
   9215   9213   9232     1   109.5600471 388.275200
   9215   9216   9218     1   109.5600471 388.275200
   9215   9222   9224     1   107.2600461 396.643200
   9216   9215   9219     1   109.5600471 388.275200
   9216   9217   9220     1   110.2200475 386.601600
   9216   9235   9225     1   109.2900470 396.643200
   9217   9216   9218     1   109.5600471 388.275200
   9217   9221   9231     1   107.2600461 396.643200
   9218   9216   9235     1   109.8800469 414.216000
   9219   9215   9222     1   110.2600474 425.931200
   9220   9217   9221     1   109.4300470 427.604800
   9220   9217   9230     1   109.5800467 425.931200
   9223   9228   9229     1   107.2600461 396.643200
   9226   9223   9228     1   110.2600474 425.931200
   9226   9223   9227     1   108.4600466 328.025600
   9227   9223   9228     1   110.2600474 425.931200
   9232   9213   9233     1   110.2600474 425.931200
   9236   9237   9256     1   109.5600471 388.275200
   9236   9247   9250     1   109.5600471 388.275200
   9236   9247   9251     1   109.5600471 388.275200
   9237   9236   9238     1   109.5600471 388.275200
   9237   9239   9243     1   109.5600471 388.275200
   9237   9257   9258     1   107.2600461 396.643200
   9238   9236   9247     1   109.5600471 388.275200
   9238   9236   9254     1   109.7800468 425.094400
   9239   9237   9256     1   109.5600471 388.275200
   9239   9240   9242     1   109.5600471 388.275200
   9239   9246   9248     1   107.2600461 396.643200
   9240   9239   9243     1   109.5600471 388.275200
   9240   9241   9244     1   110.2200475 386.601600
   9240   9259   9249     1   109.2900470 396.643200
   9241   9240   9242     1   109.5600471 388.275200
   9241   9245   9255     1   107.2600461 396.643200
   9242   9240   9259     1   109.8800469 414.216000
   9243   9239   9246     1   110.2600474 425.931200
   9244   9241   9245     1   109.4300470 427.604800
   9244   9241   9254     1   109.5800467 425.931200
   9247   9252   9253     1   107.2600461 396.643200
   9250   9247   9252     1   110.2600474 425.931200
   9250   9247   9251     1   108.4600466 328.025600
   9251   9247   9252     1   110.2600474 425.931200
   9256   9237   9257     1   110.2600474 425.931200
   9261   9263   9264     1   108.8800464 416.726400
   9261   9263   9266     1   108.8800464 416.726400
   9262   9261   9263     1   117.6800502 383.254400
   9263   9265   9267     1   109.5600471 388.275200
   9263   9265   9268     1   109.5600471 388.275200
   9264   9263   9265     1   109.5600471 388.275200
   9264   9263   9266     1   108.4600466 328.025600
   9265   9269   9334     1   110.1100470 384.091200
   9265   9263   9266     1   109.5600471 388.275200
   9267   9265   9269     1   107.9000462 406.684800
   9267   9265   9268     1   108.4600466 328.025600
   9268   9265   9269     1   107.9000462 406.684800
   9269   9270   9279     1   107.9000462 406.684800
   9269   9270   9280     1   107.9000462 406.684800
   9269   9271   9272     1   107.9000462 406.684800
   9269   9271   9274     1   107.9000462 406.684800
   9270   9281   9282     1   109.8000471 387.438400
   9270   9281   9283     1   109.8000471 387.438400
   9270   9269   9334     1   110.1100470 384.091200
   9271   9273   9275     1   109.8000471 387.438400
   9271   9273   9276     1   109.8000471 387.438400
   9271   9269   9334     1   110.1100470 384.091200
   9272   9271   9273     1   109.5600471 388.275200
   9272   9271   9274     1   108.4600466 328.025600
   9273   9271   9274     1   109.5600471 388.275200
   9275   9273   9277     1   108.7700466 392.459200
   9275   9273   9276     1   107.5800459 329.699200
   9276   9273   9277     1   108.7700466 392.459200
   9277   9309   9299     1   119.3800509 410.868800
   9279   9270   9281     1   109.5600471 388.275200
   9279   9270   9280     1   108.4600466 328.025600
   9280   9270   9281     1   109.5600471 388.275200
   9282   9281   9284     1   108.7700466 392.459200
   9282   9281   9283     1   107.5800459 329.699200
   9283   9281   9284     1   108.7700466 392.459200
   9284   9333   9323     1   119.3800509 410.868800
   9286   9287   9306     1   109.5600471 388.275200
   9286   9297   9300     1   109.5600471 388.275200
   9286   9297   9301     1   109.5600471 388.275200
   9287   9289   9293     1   109.5600471 388.275200
   9287   9307   9308     1   107.2600461 396.643200
   9287   9286   9288     1   109.5600471 388.275200
   9288   9286   9297     1   109.5600471 388.275200
   9288   9286   9304     1   109.7800468 425.094400
   9289   9290   9292     1   109.5600471 388.275200
   9289   9296   9298     1   107.2600461 396.643200
   9289   9287   9306     1   109.5600471 388.275200
   9290   9291   9294     1   110.2200475 386.601600
   9290   9309   9299     1   109.2900470 396.643200
   9290   9289   9293     1   109.5600471 388.275200
   9291   9295   9305     1   107.2600461 396.643200
   9291   9290   9292     1   109.5600471 388.275200
   9292   9290   9309     1   109.8800469 414.216000
   9293   9289   9296     1   110.2600474 425.931200
   9294   9291   9295     1   109.4300470 427.604800
   9294   9291   9304     1   109.5800467 425.931200
   9297   9302   9303     1   107.2600461 396.643200
   9300   9297   9302     1   110.2600474 425.931200
   9300   9297   9301     1   108.4600466 328.025600
   9301   9297   9302     1   110.2600474 425.931200
   9306   9287   9307     1   110.2600474 425.931200
   9310   9311   9330     1   109.5600471 388.275200
   9310   9321   9324     1   109.5600471 388.275200
   9310   9321   9325     1   109.5600471 388.275200
   9311   9313   9317     1   109.5600471 388.275200
   9311   9331   9332     1   107.2600461 396.643200
   9311   9310   9312     1   109.5600471 388.275200
   9312   9310   9321     1   109.5600471 388.275200
   9312   9310   9328     1   109.7800468 425.094400
   9313   9314   9316     1   109.5600471 388.275200
   9313   9320   9322     1   107.2600461 396.643200
   9313   9311   9330     1   109.5600471 388.275200
   9314   9315   9318     1   110.2200475 386.601600
   9314   9333   9323     1   109.2900470 396.643200
   9314   9313   9317     1   109.5600471 388.275200
   9315   9319   9329     1   107.2600461 396.643200
   9315   9314   9316     1   109.5600471 388.275200
   9316   9314   9333     1   109.8800469 414.216000
   9317   9313   9320     1   110.2600474 425.931200
   9318   9315   9319     1   109.4300470 427.604800
   9318   9315   9328     1   109.5800467 425.931200
   9321   9326   9327     1   107.2600461 396.643200
   9324   9321   9326     1   110.2600474 425.931200
   9324   9321   9325     1   108.4600466 328.025600
   9325   9321   9326     1   110.2600474 425.931200
   9330   9311   9331     1   110.2600474 425.931200
   9335   9337   9338     1   108.8800464 416.726400
   9335   9337   9340     1   108.8800464 416.726400
   9336   9335   9337     1   117.6800502 383.254400
   9337   9339   9341     1   109.5600471 388.275200
   9337   9339   9342     1   109.5600471 388.275200
   9338   9337   9339     1   109.5600471 388.275200
   9338   9337   9340     1   108.4600466 328.025600
   9339   9337   9340     1   109.5600471 388.275200
   9339   9343   9408     1   110.1100470 384.091200
   9341   9339   9343     1   107.9000462 406.684800
   9341   9339   9342     1   108.4600466 328.025600
   9342   9339   9343     1   107.9000462 406.684800
   9343   9344   9353     1   107.9000462 406.684800
   9343   9344   9354     1   107.9000462 406.684800
   9343   9345   9346     1   107.9000462 406.684800
   9343   9345   9348     1   107.9000462 406.684800
   9344   9343   9408     1   110.1100470 384.091200
   9344   9355   9356     1   109.8000471 387.438400
   9344   9355   9357     1   109.8000471 387.438400
   9345   9343   9408     1   110.1100470 384.091200
   9345   9347   9349     1   109.8000471 387.438400
   9345   9347   9350     1   109.8000471 387.438400
   9346   9345   9347     1   109.5600471 388.275200
   9346   9345   9348     1   108.4600466 328.025600
   9347   9345   9348     1   109.5600471 388.275200
   9349   9347   9351     1   108.7700466 392.459200
   9349   9347   9350     1   107.5800459 329.699200
   9350   9347   9351     1   108.7700466 392.459200
   9351   9383   9373     1   119.3800509 410.868800
   9353   9344   9355     1   109.5600471 388.275200
   9353   9344   9354     1   108.4600466 328.025600
   9354   9344   9355     1   109.5600471 388.275200
   9356   9355   9358     1   108.7700466 392.459200
   9356   9355   9357     1   107.5800459 329.699200
   9357   9355   9358     1   108.7700466 392.459200
   9358   9407   9397     1   119.3800509 410.868800
   9360   9361   9380     1   109.5600471 388.275200
   9360   9371   9374     1   109.5600471 388.275200
   9360   9371   9375     1   109.5600471 388.275200
   9361   9360   9362     1   109.5600471 388.275200
   9361   9363   9367     1   109.5600471 388.275200
   9361   9381   9382     1   107.2600461 396.643200
   9362   9360   9371     1   109.5600471 388.275200
   9362   9360   9378     1   109.7800468 425.094400
   9363   9361   9380     1   109.5600471 388.275200
   9363   9364   9366     1   109.5600471 388.275200
   9363   9370   9372     1   107.2600461 396.643200
   9364   9363   9367     1   109.5600471 388.275200
   9364   9365   9368     1   110.2200475 386.601600
   9364   9383   9373     1   109.2900470 396.643200
   9365   9364   9366     1   109.5600471 388.275200
   9365   9369   9379     1   107.2600461 396.643200
   9366   9364   9383     1   109.8800469 414.216000
   9367   9363   9370     1   110.2600474 425.931200
   9368   9365   9369     1   109.4300470 427.604800
   9368   9365   9378     1   109.5800467 425.931200
   9371   9376   9377     1   107.2600461 396.643200
   9374   9371   9376     1   110.2600474 425.931200
   9374   9371   9375     1   108.4600466 328.025600
   9375   9371   9376     1   110.2600474 425.931200
   9380   9361   9381     1   110.2600474 425.931200
   9384   9385   9404     1   109.5600471 388.275200
   9384   9395   9398     1   109.5600471 388.275200
   9384   9395   9399     1   109.5600471 388.275200
   9385   9384   9386     1   109.5600471 388.275200
   9385   9387   9391     1   109.5600471 388.275200
   9385   9405   9406     1   107.2600461 396.643200
   9386   9384   9395     1   109.5600471 388.275200
   9386   9384   9402     1   109.7800468 425.094400
   9387   9385   9404     1   109.5600471 388.275200
   9387   9388   9390     1   109.5600471 388.275200
   9387   9394   9396     1   107.2600461 396.643200
   9388   9387   9391     1   109.5600471 388.275200
   9388   9389   9392     1   110.2200475 386.601600
   9388   9407   9397     1   109.2900470 396.643200
   9389   9388   9390     1   109.5600471 388.275200
   9389   9393   9403     1   107.2600461 396.643200
   9390   9388   9407     1   109.8800469 414.216000
   9391   9387   9394     1   110.2600474 425.931200
   9392   9389   9393     1   109.4300470 427.604800
   9392   9389   9402     1   109.5800467 425.931200
   9395   9400   9401     1   107.2600461 396.643200
   9398   9395   9400     1   110.2600474 425.931200
   9398   9395   9399     1   108.4600466 328.025600
   9399   9395   9400     1   110.2600474 425.931200
   9404   9385   9405     1   110.2600474 425.931200
   9409   9411   9412     1   108.8800464 416.726400
   9409   9411   9414     1   108.8800464 416.726400
   9410   9409   9411     1   117.6800502 383.254400
   9411   9413   9415     1   109.5600471 388.275200
   9411   9413   9416     1   109.5600471 388.275200
   9412   9411   9413     1   109.5600471 388.275200
   9412   9411   9414     1   108.4600466 328.025600
   9413   9417   9482     1   110.1100470 384.091200
   9413   9411   9414     1   109.5600471 388.275200
   9415   9413   9417     1   107.9000462 406.684800
   9415   9413   9416     1   108.4600466 328.025600
   9416   9413   9417     1   107.9000462 406.684800
   9417   9418   9427     1   107.9000462 406.684800
   9417   9418   9428     1   107.9000462 406.684800
   9417   9419   9420     1   107.9000462 406.684800
   9417   9419   9422     1   107.9000462 406.684800
   9418   9429   9430     1   109.8000471 387.438400
   9418   9429   9431     1   109.8000471 387.438400
   9418   9417   9482     1   110.1100470 384.091200
   9419   9421   9423     1   109.8000471 387.438400
   9419   9421   9424     1   109.8000471 387.438400
   9419   9417   9482     1   110.1100470 384.091200
   9420   9419   9421     1   109.5600471 388.275200
   9420   9419   9422     1   108.4600466 328.025600
   9421   9419   9422     1   109.5600471 388.275200
   9423   9421   9425     1   108.7700466 392.459200
   9423   9421   9424     1   107.5800459 329.699200
   9424   9421   9425     1   108.7700466 392.459200
   9425   9457   9447     1   119.3800509 410.868800
   9427   9418   9429     1   109.5600471 388.275200
   9427   9418   9428     1   108.4600466 328.025600
   9428   9418   9429     1   109.5600471 388.275200
   9430   9429   9432     1   108.7700466 392.459200
   9430   9429   9431     1   107.5800459 329.699200
   9431   9429   9432     1   108.7700466 392.459200
   9432   9481   9471     1   119.3800509 410.868800
   9434   9435   9454     1   109.5600471 388.275200
   9434   9445   9448     1   109.5600471 388.275200
   9434   9445   9449     1   109.5600471 388.275200
   9435   9437   9441     1   109.5600471 388.275200
   9435   9455   9456     1   107.2600461 396.643200
   9435   9434   9436     1   109.5600471 388.275200
   9436   9434   9445     1   109.5600471 388.275200
   9436   9434   9452     1   109.7800468 425.094400
   9437   9438   9440     1   109.5600471 388.275200
   9437   9444   9446     1   107.2600461 396.643200
   9437   9435   9454     1   109.5600471 388.275200
   9438   9439   9442     1   110.2200475 386.601600
   9438   9457   9447     1   109.2900470 396.643200
   9438   9437   9441     1   109.5600471 388.275200
   9439   9443   9453     1   107.2600461 396.643200
   9439   9438   9440     1   109.5600471 388.275200
   9440   9438   9457     1   109.8800469 414.216000
   9441   9437   9444     1   110.2600474 425.931200
   9442   9439   9443     1   109.4300470 427.604800
   9442   9439   9452     1   109.5800467 425.931200
   9445   9450   9451     1   107.2600461 396.643200
   9448   9445   9450     1   110.2600474 425.931200
   9448   9445   9449     1   108.4600466 328.025600
   9449   9445   9450     1   110.2600474 425.931200
   9454   9435   9455     1   110.2600474 425.931200
   9458   9459   9478     1   109.5600471 388.275200
   9458   9469   9472     1   109.5600471 388.275200
   9458   9469   9473     1   109.5600471 388.275200
   9459   9461   9465     1   109.5600471 388.275200
   9459   9479   9480     1   107.2600461 396.643200
   9459   9458   9460     1   109.5600471 388.275200
   9460   9458   9469     1   109.5600471 388.275200
   9460   9458   9476     1   109.7800468 425.094400
   9461   9462   9464     1   109.5600471 388.275200
   9461   9468   9470     1   107.2600461 396.643200
   9461   9459   9478     1   109.5600471 388.275200
   9462   9463   9466     1   110.2200475 386.601600
   9462   9481   9471     1   109.2900470 396.643200
   9462   9461   9465     1   109.5600471 388.275200
   9463   9467   9477     1   107.2600461 396.643200
   9463   9462   9464     1   109.5600471 388.275200
   9464   9462   9481     1   109.8800469 414.216000
   9465   9461   9468     1   110.2600474 425.931200
   9466   9463   9467     1   109.4300470 427.604800
   9466   9463   9476     1   109.5800467 425.931200
   9469   9474   9475     1   107.2600461 396.643200
   9472   9469   9474     1   110.2600474 425.931200
   9472   9469   9473     1   108.4600466 328.025600
   9473   9469   9474     1   110.2600474 425.931200
   9478   9459   9479     1   110.2600474 425.931200
   9483   9485   9486     1   108.8800464 416.726400
   9483   9485   9488     1   108.8800464 416.726400
   9484   9483   9485     1   117.6800502 383.254400
   9485   9487   9489     1   109.5600471 388.275200
   9485   9487   9490     1   109.5600471 388.275200
   9486   9485   9487     1   109.5600471 388.275200
   9486   9485   9488     1   108.4600466 328.025600
   9487   9485   9488     1   109.5600471 388.275200
   9487   9491   9556     1   110.1100470 384.091200
   9489   9487   9491     1   107.9000462 406.684800
   9489   9487   9490     1   108.4600466 328.025600
   9490   9487   9491     1   107.9000462 406.684800
   9491   9492   9501     1   107.9000462 406.684800
   9491   9492   9502     1   107.9000462 406.684800
   9491   9493   9494     1   107.9000462 406.684800
   9491   9493   9496     1   107.9000462 406.684800
   9492   9491   9556     1   110.1100470 384.091200
   9492   9503   9504     1   109.8000471 387.438400
   9492   9503   9505     1   109.8000471 387.438400
   9493   9491   9556     1   110.1100470 384.091200
   9493   9495   9497     1   109.8000471 387.438400
   9493   9495   9498     1   109.8000471 387.438400
   9494   9493   9495     1   109.5600471 388.275200
   9494   9493   9496     1   108.4600466 328.025600
   9495   9493   9496     1   109.5600471 388.275200
   9497   9495   9499     1   108.7700466 392.459200
   9497   9495   9498     1   107.5800459 329.699200
   9498   9495   9499     1   108.7700466 392.459200
   9499   9531   9521     1   119.3800509 410.868800
   9501   9492   9503     1   109.5600471 388.275200
   9501   9492   9502     1   108.4600466 328.025600
   9502   9492   9503     1   109.5600471 388.275200
   9504   9503   9506     1   108.7700466 392.459200
   9504   9503   9505     1   107.5800459 329.699200
   9505   9503   9506     1   108.7700466 392.459200
   9506   9555   9545     1   119.3800509 410.868800
   9508   9509   9528     1   109.5600471 388.275200
   9508   9519   9522     1   109.5600471 388.275200
   9508   9519   9523     1   109.5600471 388.275200
   9509   9508   9510     1   109.5600471 388.275200
   9509   9511   9515     1   109.5600471 388.275200
   9509   9529   9530     1   107.2600461 396.643200
   9510   9508   9519     1   109.5600471 388.275200
   9510   9508   9526     1   109.7800468 425.094400
   9511   9509   9528     1   109.5600471 388.275200
   9511   9512   9514     1   109.5600471 388.275200
   9511   9518   9520     1   107.2600461 396.643200
   9512   9511   9515     1   109.5600471 388.275200
   9512   9513   9516     1   110.2200475 386.601600
   9512   9531   9521     1   109.2900470 396.643200
   9513   9512   9514     1   109.5600471 388.275200
   9513   9517   9527     1   107.2600461 396.643200
   9514   9512   9531     1   109.8800469 414.216000
   9515   9511   9518     1   110.2600474 425.931200
   9516   9513   9517     1   109.4300470 427.604800
   9516   9513   9526     1   109.5800467 425.931200
   9519   9524   9525     1   107.2600461 396.643200
   9522   9519   9524     1   110.2600474 425.931200
   9522   9519   9523     1   108.4600466 328.025600
   9523   9519   9524     1   110.2600474 425.931200
   9528   9509   9529     1   110.2600474 425.931200
   9532   9533   9552     1   109.5600471 388.275200
   9532   9543   9546     1   109.5600471 388.275200
   9532   9543   9547     1   109.5600471 388.275200
   9533   9532   9534     1   109.5600471 388.275200
   9533   9535   9539     1   109.5600471 388.275200
   9533   9553   9554     1   107.2600461 396.643200
   9534   9532   9543     1   109.5600471 388.275200
   9534   9532   9550     1   109.7800468 425.094400
   9535   9533   9552     1   109.5600471 388.275200
   9535   9536   9538     1   109.5600471 388.275200
   9535   9542   9544     1   107.2600461 396.643200
   9536   9535   9539     1   109.5600471 388.275200
   9536   9537   9540     1   110.2200475 386.601600
   9536   9555   9545     1   109.2900470 396.643200
   9537   9536   9538     1   109.5600471 388.275200
   9537   9541   9551     1   107.2600461 396.643200
   9538   9536   9555     1   109.8800469 414.216000
   9539   9535   9542     1   110.2600474 425.931200
   9540   9537   9541     1   109.4300470 427.604800
   9540   9537   9550     1   109.5800467 425.931200
   9543   9548   9549     1   107.2600461 396.643200
   9546   9543   9548     1   110.2600474 425.931200
   9546   9543   9547     1   108.4600466 328.025600
   9547   9543   9548     1   110.2600474 425.931200
   9552   9533   9553     1   110.2600474 425.931200
   9557   9559   9560     1   108.8800464 416.726400
   9557   9559   9562     1   108.8800464 416.726400
   9558   9557   9559     1   117.6800502 383.254400
   9559   9561   9563     1   109.5600471 388.275200
   9559   9561   9564     1   109.5600471 388.275200
   9560   9559   9561     1   109.5600471 388.275200
   9560   9559   9562     1   108.4600466 328.025600
   9561   9565   9630     1   110.1100470 384.091200
   9561   9559   9562     1   109.5600471 388.275200
   9563   9561   9565     1   107.9000462 406.684800
   9563   9561   9564     1   108.4600466 328.025600
   9564   9561   9565     1   107.9000462 406.684800
   9565   9566   9575     1   107.9000462 406.684800
   9565   9566   9576     1   107.9000462 406.684800
   9565   9567   9568     1   107.9000462 406.684800
   9565   9567   9570     1   107.9000462 406.684800
   9566   9577   9578     1   109.8000471 387.438400
   9566   9577   9579     1   109.8000471 387.438400
   9566   9565   9630     1   110.1100470 384.091200
   9567   9569   9571     1   109.8000471 387.438400
   9567   9569   9572     1   109.8000471 387.438400
   9567   9565   9630     1   110.1100470 384.091200
   9568   9567   9569     1   109.5600471 388.275200
   9568   9567   9570     1   108.4600466 328.025600
   9569   9567   9570     1   109.5600471 388.275200
   9571   9569   9573     1   108.7700466 392.459200
   9571   9569   9572     1   107.5800459 329.699200
   9572   9569   9573     1   108.7700466 392.459200
   9573   9605   9595     1   119.3800509 410.868800
   9575   9566   9577     1   109.5600471 388.275200
   9575   9566   9576     1   108.4600466 328.025600
   9576   9566   9577     1   109.5600471 388.275200
   9578   9577   9580     1   108.7700466 392.459200
   9578   9577   9579     1   107.5800459 329.699200
   9579   9577   9580     1   108.7700466 392.459200
   9580   9629   9619     1   119.3800509 410.868800
   9582   9583   9602     1   109.5600471 388.275200
   9582   9593   9596     1   109.5600471 388.275200
   9582   9593   9597     1   109.5600471 388.275200
   9583   9585   9589     1   109.5600471 388.275200
   9583   9603   9604     1   107.2600461 396.643200
   9583   9582   9584     1   109.5600471 388.275200
   9584   9582   9593     1   109.5600471 388.275200
   9584   9582   9600     1   109.7800468 425.094400
   9585   9586   9588     1   109.5600471 388.275200
   9585   9592   9594     1   107.2600461 396.643200
   9585   9583   9602     1   109.5600471 388.275200
   9586   9587   9590     1   110.2200475 386.601600
   9586   9605   9595     1   109.2900470 396.643200
   9586   9585   9589     1   109.5600471 388.275200
   9587   9591   9601     1   107.2600461 396.643200
   9587   9586   9588     1   109.5600471 388.275200
   9588   9586   9605     1   109.8800469 414.216000
   9589   9585   9592     1   110.2600474 425.931200
   9590   9587   9591     1   109.4300470 427.604800
   9590   9587   9600     1   109.5800467 425.931200
   9593   9598   9599     1   107.2600461 396.643200
   9596   9593   9598     1   110.2600474 425.931200
   9596   9593   9597     1   108.4600466 328.025600
   9597   9593   9598     1   110.2600474 425.931200
   9602   9583   9603     1   110.2600474 425.931200
   9606   9607   9626     1   109.5600471 388.275200
   9606   9617   9620     1   109.5600471 388.275200
   9606   9617   9621     1   109.5600471 388.275200
   9607   9609   9613     1   109.5600471 388.275200
   9607   9627   9628     1   107.2600461 396.643200
   9607   9606   9608     1   109.5600471 388.275200
   9608   9606   9617     1   109.5600471 388.275200
   9608   9606   9624     1   109.7800468 425.094400
   9609   9610   9612     1   109.5600471 388.275200
   9609   9616   9618     1   107.2600461 396.643200
   9609   9607   9626     1   109.5600471 388.275200
   9610   9611   9614     1   110.2200475 386.601600
   9610   9629   9619     1   109.2900470 396.643200
   9610   9609   9613     1   109.5600471 388.275200
   9611   9615   9625     1   107.2600461 396.643200
   9611   9610   9612     1   109.5600471 388.275200
   9612   9610   9629     1   109.8800469 414.216000
   9613   9609   9616     1   110.2600474 425.931200
   9614   9611   9615     1   109.4300470 427.604800
   9614   9611   9624     1   109.5800467 425.931200
   9617   9622   9623     1   107.2600461 396.643200
   9620   9617   9622     1   110.2600474 425.931200
   9620   9617   9621     1   108.4600466 328.025600
   9621   9617   9622     1   110.2600474 425.931200
   9626   9607   9627     1   110.2600474 425.931200
   9631   9633   9634     1   108.8800464 416.726400
   9631   9633   9636     1   108.8800464 416.726400
   9632   9631   9633     1   117.6800502 383.254400
   9633   9635   9637     1   109.5600471 388.275200
   9633   9635   9638     1   109.5600471 388.275200
   9634   9633   9635     1   109.5600471 388.275200
   9634   9633   9636     1   108.4600466 328.025600
   9635   9633   9636     1   109.5600471 388.275200
   9635   9639   9704     1   110.1100470 384.091200
   9637   9635   9639     1   107.9000462 406.684800
   9637   9635   9638     1   108.4600466 328.025600
   9638   9635   9639     1   107.9000462 406.684800
   9639   9640   9649     1   107.9000462 406.684800
   9639   9640   9650     1   107.9000462 406.684800
   9639   9641   9642     1   107.9000462 406.684800
   9639   9641   9644     1   107.9000462 406.684800
   9640   9639   9704     1   110.1100470 384.091200
   9640   9651   9652     1   109.8000471 387.438400
   9640   9651   9653     1   109.8000471 387.438400
   9641   9639   9704     1   110.1100470 384.091200
   9641   9643   9645     1   109.8000471 387.438400
   9641   9643   9646     1   109.8000471 387.438400
   9642   9641   9643     1   109.5600471 388.275200
   9642   9641   9644     1   108.4600466 328.025600
   9643   9641   9644     1   109.5600471 388.275200
   9645   9643   9647     1   108.7700466 392.459200
   9645   9643   9646     1   107.5800459 329.699200
   9646   9643   9647     1   108.7700466 392.459200
   9647   9679   9669     1   119.3800509 410.868800
   9649   9640   9651     1   109.5600471 388.275200
   9649   9640   9650     1   108.4600466 328.025600
   9650   9640   9651     1   109.5600471 388.275200
   9652   9651   9654     1   108.7700466 392.459200
   9652   9651   9653     1   107.5800459 329.699200
   9653   9651   9654     1   108.7700466 392.459200
   9654   9703   9693     1   119.3800509 410.868800
   9656   9657   9676     1   109.5600471 388.275200
   9656   9667   9670     1   109.5600471 388.275200
   9656   9667   9671     1   109.5600471 388.275200
   9657   9656   9658     1   109.5600471 388.275200
   9657   9659   9663     1   109.5600471 388.275200
   9657   9677   9678     1   107.2600461 396.643200
   9658   9656   9667     1   109.5600471 388.275200
   9658   9656   9674     1   109.7800468 425.094400
   9659   9657   9676     1   109.5600471 388.275200
   9659   9660   9662     1   109.5600471 388.275200
   9659   9666   9668     1   107.2600461 396.643200
   9660   9659   9663     1   109.5600471 388.275200
   9660   9661   9664     1   110.2200475 386.601600
   9660   9679   9669     1   109.2900470 396.643200
   9661   9660   9662     1   109.5600471 388.275200
   9661   9665   9675     1   107.2600461 396.643200
   9662   9660   9679     1   109.8800469 414.216000
   9663   9659   9666     1   110.2600474 425.931200
   9664   9661   9665     1   109.4300470 427.604800
   9664   9661   9674     1   109.5800467 425.931200
   9667   9672   9673     1   107.2600461 396.643200
   9670   9667   9672     1   110.2600474 425.931200
   9670   9667   9671     1   108.4600466 328.025600
   9671   9667   9672     1   110.2600474 425.931200
   9676   9657   9677     1   110.2600474 425.931200
   9680   9681   9700     1   109.5600471 388.275200
   9680   9691   9694     1   109.5600471 388.275200
   9680   9691   9695     1   109.5600471 388.275200
   9681   9680   9682     1   109.5600471 388.275200
   9681   9683   9687     1   109.5600471 388.275200
   9681   9701   9702     1   107.2600461 396.643200
   9682   9680   9691     1   109.5600471 388.275200
   9682   9680   9698     1   109.7800468 425.094400
   9683   9681   9700     1   109.5600471 388.275200
   9683   9684   9686     1   109.5600471 388.275200
   9683   9690   9692     1   107.2600461 396.643200
   9684   9683   9687     1   109.5600471 388.275200
   9684   9685   9688     1   110.2200475 386.601600
   9684   9703   9693     1   109.2900470 396.643200
   9685   9684   9686     1   109.5600471 388.275200
   9685   9689   9699     1   107.2600461 396.643200
   9686   9684   9703     1   109.8800469 414.216000
   9687   9683   9690     1   110.2600474 425.931200
   9688   9685   9689     1   109.4300470 427.604800
   9688   9685   9698     1   109.5800467 425.931200
   9691   9696   9697     1   107.2600461 396.643200
   9694   9691   9696     1   110.2600474 425.931200
   9694   9691   9695     1   108.4600466 328.025600
   9695   9691   9696     1   110.2600474 425.931200
   9700   9681   9701     1   110.2600474 425.931200
   9705   9707   9708     1   108.8800464 416.726400
   9705   9707   9710     1   108.8800464 416.726400
   9706   9705   9707     1   117.6800502 383.254400
   9707   9709   9711     1   109.5600471 388.275200
   9707   9709   9712     1   109.5600471 388.275200
   9708   9707   9709     1   109.5600471 388.275200
   9708   9707   9710     1   108.4600466 328.025600
   9709   9713   9778     1   110.1100470 384.091200
   9709   9707   9710     1   109.5600471 388.275200
   9711   9709   9713     1   107.9000462 406.684800
   9711   9709   9712     1   108.4600466 328.025600
   9712   9709   9713     1   107.9000462 406.684800
   9713   9714   9723     1   107.9000462 406.684800
   9713   9714   9724     1   107.9000462 406.684800
   9713   9715   9716     1   107.9000462 406.684800
   9713   9715   9718     1   107.9000462 406.684800
   9714   9725   9726     1   109.8000471 387.438400
   9714   9725   9727     1   109.8000471 387.438400
   9714   9713   9778     1   110.1100470 384.091200
   9715   9717   9719     1   109.8000471 387.438400
   9715   9717   9720     1   109.8000471 387.438400
   9715   9713   9778     1   110.1100470 384.091200
   9716   9715   9717     1   109.5600471 388.275200
   9716   9715   9718     1   108.4600466 328.025600
   9717   9715   9718     1   109.5600471 388.275200
   9719   9717   9721     1   108.7700466 392.459200
   9719   9717   9720     1   107.5800459 329.699200
   9720   9717   9721     1   108.7700466 392.459200
   9721   9753   9743     1   119.3800509 410.868800
   9723   9714   9725     1   109.5600471 388.275200
   9723   9714   9724     1   108.4600466 328.025600
   9724   9714   9725     1   109.5600471 388.275200
   9726   9725   9728     1   108.7700466 392.459200
   9726   9725   9727     1   107.5800459 329.699200
   9727   9725   9728     1   108.7700466 392.459200
   9728   9777   9767     1   119.3800509 410.868800
   9730   9731   9750     1   109.5600471 388.275200
   9730   9741   9744     1   109.5600471 388.275200
   9730   9741   9745     1   109.5600471 388.275200
   9731   9733   9737     1   109.5600471 388.275200
   9731   9751   9752     1   107.2600461 396.643200
   9731   9730   9732     1   109.5600471 388.275200
   9732   9730   9741     1   109.5600471 388.275200
   9732   9730   9748     1   109.7800468 425.094400
   9733   9734   9736     1   109.5600471 388.275200
   9733   9740   9742     1   107.2600461 396.643200
   9733   9731   9750     1   109.5600471 388.275200
   9734   9735   9738     1   110.2200475 386.601600
   9734   9753   9743     1   109.2900470 396.643200
   9734   9733   9737     1   109.5600471 388.275200
   9735   9739   9749     1   107.2600461 396.643200
   9735   9734   9736     1   109.5600471 388.275200
   9736   9734   9753     1   109.8800469 414.216000
   9737   9733   9740     1   110.2600474 425.931200
   9738   9735   9739     1   109.4300470 427.604800
   9738   9735   9748     1   109.5800467 425.931200
   9741   9746   9747     1   107.2600461 396.643200
   9744   9741   9746     1   110.2600474 425.931200
   9744   9741   9745     1   108.4600466 328.025600
   9745   9741   9746     1   110.2600474 425.931200
   9750   9731   9751     1   110.2600474 425.931200
   9754   9755   9774     1   109.5600471 388.275200
   9754   9765   9768     1   109.5600471 388.275200
   9754   9765   9769     1   109.5600471 388.275200
   9755   9757   9761     1   109.5600471 388.275200
   9755   9775   9776     1   107.2600461 396.643200
   9755   9754   9756     1   109.5600471 388.275200
   9756   9754   9765     1   109.5600471 388.275200
   9756   9754   9772     1   109.7800468 425.094400
   9757   9758   9760     1   109.5600471 388.275200
   9757   9764   9766     1   107.2600461 396.643200
   9757   9755   9774     1   109.5600471 388.275200
   9758   9759   9762     1   110.2200475 386.601600
   9758   9777   9767     1   109.2900470 396.643200
   9758   9757   9761     1   109.5600471 388.275200
   9759   9763   9773     1   107.2600461 396.643200
   9759   9758   9760     1   109.5600471 388.275200
   9760   9758   9777     1   109.8800469 414.216000
   9761   9757   9764     1   110.2600474 425.931200
   9762   9759   9763     1   109.4300470 427.604800
   9762   9759   9772     1   109.5800467 425.931200
   9765   9770   9771     1   107.2600461 396.643200
   9768   9765   9770     1   110.2600474 425.931200
   9768   9765   9769     1   108.4600466 328.025600
   9769   9765   9770     1   110.2600474 425.931200
   9774   9755   9775     1   110.2600474 425.931200
   9779   9781   9782     1   108.8800464 416.726400
   9779   9781   9784     1   108.8800464 416.726400
   9780   9779   9781     1   117.6800502 383.254400
   9781   9783   9785     1   109.5600471 388.275200
   9781   9783   9786     1   109.5600471 388.275200
   9782   9781   9783     1   109.5600471 388.275200
   9782   9781   9784     1   108.4600466 328.025600
   9783   9781   9784     1   109.5600471 388.275200
   9783   9787   9852     1   110.1100470 384.091200
   9785   9783   9787     1   107.9000462 406.684800
   9785   9783   9786     1   108.4600466 328.025600
   9786   9783   9787     1   107.9000462 406.684800
   9787   9788   9797     1   107.9000462 406.684800
   9787   9788   9798     1   107.9000462 406.684800
   9787   9789   9790     1   107.9000462 406.684800
   9787   9789   9792     1   107.9000462 406.684800
   9788   9787   9852     1   110.1100470 384.091200
   9788   9799   9800     1   109.8000471 387.438400
   9788   9799   9801     1   109.8000471 387.438400
   9789   9787   9852     1   110.1100470 384.091200
   9789   9791   9793     1   109.8000471 387.438400
   9789   9791   9794     1   109.8000471 387.438400
   9790   9789   9791     1   109.5600471 388.275200
   9790   9789   9792     1   108.4600466 328.025600
   9791   9789   9792     1   109.5600471 388.275200
   9793   9791   9795     1   108.7700466 392.459200
   9793   9791   9794     1   107.5800459 329.699200
   9794   9791   9795     1   108.7700466 392.459200
   9795   9827   9817     1   119.3800509 410.868800
   9797   9788   9799     1   109.5600471 388.275200
   9797   9788   9798     1   108.4600466 328.025600
   9798   9788   9799     1   109.5600471 388.275200
   9800   9799   9802     1   108.7700466 392.459200
   9800   9799   9801     1   107.5800459 329.699200
   9801   9799   9802     1   108.7700466 392.459200
   9802   9851   9841     1   119.3800509 410.868800
   9804   9805   9824     1   109.5600471 388.275200
   9804   9815   9818     1   109.5600471 388.275200
   9804   9815   9819     1   109.5600471 388.275200
   9805   9804   9806     1   109.5600471 388.275200
   9805   9807   9811     1   109.5600471 388.275200
   9805   9825   9826     1   107.2600461 396.643200
   9806   9804   9815     1   109.5600471 388.275200
   9806   9804   9822     1   109.7800468 425.094400
   9807   9805   9824     1   109.5600471 388.275200
   9807   9808   9810     1   109.5600471 388.275200
   9807   9814   9816     1   107.2600461 396.643200
   9808   9807   9811     1   109.5600471 388.275200
   9808   9809   9812     1   110.2200475 386.601600
   9808   9827   9817     1   109.2900470 396.643200
   9809   9808   9810     1   109.5600471 388.275200
   9809   9813   9823     1   107.2600461 396.643200
   9810   9808   9827     1   109.8800469 414.216000
   9811   9807   9814     1   110.2600474 425.931200
   9812   9809   9813     1   109.4300470 427.604800
   9812   9809   9822     1   109.5800467 425.931200
   9815   9820   9821     1   107.2600461 396.643200
   9818   9815   9820     1   110.2600474 425.931200
   9818   9815   9819     1   108.4600466 328.025600
   9819   9815   9820     1   110.2600474 425.931200
   9824   9805   9825     1   110.2600474 425.931200
   9828   9829   9848     1   109.5600471 388.275200
   9828   9839   9842     1   109.5600471 388.275200
   9828   9839   9843     1   109.5600471 388.275200
   9829   9828   9830     1   109.5600471 388.275200
   9829   9831   9835     1   109.5600471 388.275200
   9829   9849   9850     1   107.2600461 396.643200
   9830   9828   9839     1   109.5600471 388.275200
   9830   9828   9846     1   109.7800468 425.094400
   9831   9829   9848     1   109.5600471 388.275200
   9831   9832   9834     1   109.5600471 388.275200
   9831   9838   9840     1   107.2600461 396.643200
   9832   9831   9835     1   109.5600471 388.275200
   9832   9833   9836     1   110.2200475 386.601600
   9832   9851   9841     1   109.2900470 396.643200
   9833   9832   9834     1   109.5600471 388.275200
   9833   9837   9847     1   107.2600461 396.643200
   9834   9832   9851     1   109.8800469 414.216000
   9835   9831   9838     1   110.2600474 425.931200
   9836   9833   9837     1   109.4300470 427.604800
   9836   9833   9846     1   109.5800467 425.931200
   9839   9844   9845     1   107.2600461 396.643200
   9842   9839   9844     1   110.2600474 425.931200
   9842   9839   9843     1   108.4600466 328.025600
   9843   9839   9844     1   110.2600474 425.931200
   9848   9829   9849     1   110.2600474 425.931200
   9853   9855   9856     1   108.8800464 416.726400
   9853   9855   9858     1   108.8800464 416.726400
   9854   9853   9855     1   117.6800502 383.254400
   9855   9857   9859     1   109.5600471 388.275200
   9855   9857   9860     1   109.5600471 388.275200
   9856   9855   9857     1   109.5600471 388.275200
   9856   9855   9858     1   108.4600466 328.025600
   9857   9861   9926     1   110.1100470 384.091200
   9857   9855   9858     1   109.5600471 388.275200
   9859   9857   9861     1   107.9000462 406.684800
   9859   9857   9860     1   108.4600466 328.025600
   9860   9857   9861     1   107.9000462 406.684800
   9861   9862   9871     1   107.9000462 406.684800
   9861   9862   9872     1   107.9000462 406.684800
   9861   9863   9864     1   107.9000462 406.684800
   9861   9863   9866     1   107.9000462 406.684800
   9862   9873   9874     1   109.8000471 387.438400
   9862   9873   9875     1   109.8000471 387.438400
   9862   9861   9926     1   110.1100470 384.091200
   9863   9865   9867     1   109.8000471 387.438400
   9863   9865   9868     1   109.8000471 387.438400
   9863   9861   9926     1   110.1100470 384.091200
   9864   9863   9865     1   109.5600471 388.275200
   9864   9863   9866     1   108.4600466 328.025600
   9865   9863   9866     1   109.5600471 388.275200
   9867   9865   9869     1   108.7700466 392.459200
   9867   9865   9868     1   107.5800459 329.699200
   9868   9865   9869     1   108.7700466 392.459200
   9869   9901   9891     1   119.3800509 410.868800
   9871   9862   9873     1   109.5600471 388.275200
   9871   9862   9872     1   108.4600466 328.025600
   9872   9862   9873     1   109.5600471 388.275200
   9874   9873   9876     1   108.7700466 392.459200
   9874   9873   9875     1   107.5800459 329.699200
   9875   9873   9876     1   108.7700466 392.459200
   9876   9925   9915     1   119.3800509 410.868800
   9878   9879   9898     1   109.5600471 388.275200
   9878   9889   9892     1   109.5600471 388.275200
   9878   9889   9893     1   109.5600471 388.275200
   9879   9881   9885     1   109.5600471 388.275200
   9879   9899   9900     1   107.2600461 396.643200
   9879   9878   9880     1   109.5600471 388.275200
   9880   9878   9889     1   109.5600471 388.275200
   9880   9878   9896     1   109.7800468 425.094400
   9881   9882   9884     1   109.5600471 388.275200
   9881   9888   9890     1   107.2600461 396.643200
   9881   9879   9898     1   109.5600471 388.275200
   9882   9883   9886     1   110.2200475 386.601600
   9882   9901   9891     1   109.2900470 396.643200
   9882   9881   9885     1   109.5600471 388.275200
   9883   9887   9897     1   107.2600461 396.643200
   9883   9882   9884     1   109.5600471 388.275200
   9884   9882   9901     1   109.8800469 414.216000
   9885   9881   9888     1   110.2600474 425.931200
   9886   9883   9887     1   109.4300470 427.604800
   9886   9883   9896     1   109.5800467 425.931200
   9889   9894   9895     1   107.2600461 396.643200
   9892   9889   9894     1   110.2600474 425.931200
   9892   9889   9893     1   108.4600466 328.025600
   9893   9889   9894     1   110.2600474 425.931200
   9898   9879   9899     1   110.2600474 425.931200
   9902   9903   9922     1   109.5600471 388.275200
   9902   9913   9916     1   109.5600471 388.275200
   9902   9913   9917     1   109.5600471 388.275200
   9903   9905   9909     1   109.5600471 388.275200
   9903   9923   9924     1   107.2600461 396.643200
   9903   9902   9904     1   109.5600471 388.275200
   9904   9902   9913     1   109.5600471 388.275200
   9904   9902   9920     1   109.7800468 425.094400
   9905   9906   9908     1   109.5600471 388.275200
   9905   9912   9914     1   107.2600461 396.643200
   9905   9903   9922     1   109.5600471 388.275200
   9906   9907   9910     1   110.2200475 386.601600
   9906   9925   9915     1   109.2900470 396.643200
   9906   9905   9909     1   109.5600471 388.275200
   9907   9911   9921     1   107.2600461 396.643200
   9907   9906   9908     1   109.5600471 388.275200
   9908   9906   9925     1   109.8800469 414.216000
   9909   9905   9912     1   110.2600474 425.931200
   9910   9907   9911     1   109.4300470 427.604800
   9910   9907   9920     1   109.5800467 425.931200
   9913   9918   9919     1   107.2600461 396.643200
   9916   9913   9918     1   110.2600474 425.931200
   9916   9913   9917     1   108.4600466 328.025600
   9917   9913   9918     1   110.2600474 425.931200
   9922   9903   9923     1   110.2600474 425.931200
   9927   9929   9930     1   108.8800464 416.726400
   9927   9929   9932     1   108.8800464 416.726400
   9928   9927   9929     1   117.6800502 383.254400
   9929   9931   9933     1   109.5600471 388.275200
   9929   9931   9934     1   109.5600471 388.275200
   9930   9929   9931     1   109.5600471 388.275200
   9930   9929   9932     1   108.4600466 328.025600
   9931   9929   9932     1   109.5600471 388.275200
   9931   9935  10000     1   110.1100470 384.091200
   9933   9931   9935     1   107.9000462 406.684800
   9933   9931   9934     1   108.4600466 328.025600
   9934   9931   9935     1   107.9000462 406.684800
   9935   9936   9945     1   107.9000462 406.684800
   9935   9936   9946     1   107.9000462 406.684800
   9935   9937   9938     1   107.9000462 406.684800
   9935   9937   9940     1   107.9000462 406.684800
   9936   9935  10000     1   110.1100470 384.091200
   9936   9947   9948     1   109.8000471 387.438400
   9936   9947   9949     1   109.8000471 387.438400
   9937   9935  10000     1   110.1100470 384.091200
   9937   9939   9941     1   109.8000471 387.438400
   9937   9939   9942     1   109.8000471 387.438400
   9938   9937   9939     1   109.5600471 388.275200
   9938   9937   9940     1   108.4600466 328.025600
   9939   9937   9940     1   109.5600471 388.275200
   9941   9939   9943     1   108.7700466 392.459200
   9941   9939   9942     1   107.5800459 329.699200
   9942   9939   9943     1   108.7700466 392.459200
   9943   9975   9965     1   119.3800509 410.868800
   9945   9936   9947     1   109.5600471 388.275200
   9945   9936   9946     1   108.4600466 328.025600
   9946   9936   9947     1   109.5600471 388.275200
   9948   9947   9950     1   108.7700466 392.459200
   9948   9947   9949     1   107.5800459 329.699200
   9949   9947   9950     1   108.7700466 392.459200
   9950   9999   9989     1   119.3800509 410.868800
   9952   9953   9972     1   109.5600471 388.275200
   9952   9963   9966     1   109.5600471 388.275200
   9952   9963   9967     1   109.5600471 388.275200
   9953   9952   9954     1   109.5600471 388.275200
   9953   9955   9959     1   109.5600471 388.275200
   9953   9973   9974     1   107.2600461 396.643200
   9954   9952   9963     1   109.5600471 388.275200
   9954   9952   9970     1   109.7800468 425.094400
   9955   9953   9972     1   109.5600471 388.275200
   9955   9956   9958     1   109.5600471 388.275200
   9955   9962   9964     1   107.2600461 396.643200
   9956   9955   9959     1   109.5600471 388.275200
   9956   9957   9960     1   110.2200475 386.601600
   9956   9975   9965     1   109.2900470 396.643200
   9957   9956   9958     1   109.5600471 388.275200
   9957   9961   9971     1   107.2600461 396.643200
   9958   9956   9975     1   109.8800469 414.216000
   9959   9955   9962     1   110.2600474 425.931200
   9960   9957   9961     1   109.4300470 427.604800
   9960   9957   9970     1   109.5800467 425.931200
   9963   9968   9969     1   107.2600461 396.643200
   9966   9963   9968     1   110.2600474 425.931200
   9966   9963   9967     1   108.4600466 328.025600
   9967   9963   9968     1   110.2600474 425.931200
   9972   9953   9973     1   110.2600474 425.931200
   9976   9977   9996     1   109.5600471 388.275200
   9976   9987   9990     1   109.5600471 388.275200
   9976   9987   9991     1   109.5600471 388.275200
   9977   9976   9978     1   109.5600471 388.275200
   9977   9979   9983     1   109.5600471 388.275200
   9977   9997   9998     1   107.2600461 396.643200
   9978   9976   9987     1   109.5600471 388.275200
   9978   9976   9994     1   109.7800468 425.094400
   9979   9977   9996     1   109.5600471 388.275200
   9979   9980   9982     1   109.5600471 388.275200
   9979   9986   9988     1   107.2600461 396.643200
   9980   9979   9983     1   109.5600471 388.275200
   9980   9981   9984     1   110.2200475 386.601600
   9980   9999   9989     1   109.2900470 396.643200
   9981   9980   9982     1   109.5600471 388.275200
   9981   9985   9995     1   107.2600461 396.643200
   9982   9980   9999     1   109.8800469 414.216000
   9983   9979   9986     1   110.2600474 425.931200
   9984   9981   9985     1   109.4300470 427.604800
   9984   9981   9994     1   109.5800467 425.931200
   9987   9992   9993     1   107.2600461 396.643200
   9990   9987   9992     1   110.2600474 425.931200
   9990   9987   9991     1   108.4600466 328.025600
   9991   9987   9992     1   110.2600474 425.931200
   9996   9977   9997     1   110.2600474 425.931200
  10001  10003  10004     1   108.8800464 416.726400
  10001  10003  10006     1   108.8800464 416.726400
  10002  10001  10003     1   117.6800502 383.254400
  10003  10005  10007     1   109.5600471 388.275200
  10003  10005  10008     1   109.5600471 388.275200
  10004  10003  10005     1   109.5600471 388.275200
  10004  10003  10006     1   108.4600466 328.025600
  10005  10009  10074     1   110.1100470 384.091200
  10005  10003  10006     1   109.5600471 388.275200
  10007  10005  10009     1   107.9000462 406.684800
  10007  10005  10008     1   108.4600466 328.025600
  10008  10005  10009     1   107.9000462 406.684800
  10009  10010  10019     1   107.9000462 406.684800
  10009  10010  10020     1   107.9000462 406.684800
  10009  10011  10012     1   107.9000462 406.684800
  10009  10011  10014     1   107.9000462 406.684800
  10010  10021  10022     1   109.8000471 387.438400
  10010  10021  10023     1   109.8000471 387.438400
  10010  10009  10074     1   110.1100470 384.091200
  10011  10013  10015     1   109.8000471 387.438400
  10011  10013  10016     1   109.8000471 387.438400
  10011  10009  10074     1   110.1100470 384.091200
  10012  10011  10013     1   109.5600471 388.275200
  10012  10011  10014     1   108.4600466 328.025600
  10013  10011  10014     1   109.5600471 388.275200
  10015  10013  10017     1   108.7700466 392.459200
  10015  10013  10016     1   107.5800459 329.699200
  10016  10013  10017     1   108.7700466 392.459200
  10017  10049  10039     1   119.3800509 410.868800
  10019  10010  10021     1   109.5600471 388.275200
  10019  10010  10020     1   108.4600466 328.025600
  10020  10010  10021     1   109.5600471 388.275200
  10022  10021  10024     1   108.7700466 392.459200
  10022  10021  10023     1   107.5800459 329.699200
  10023  10021  10024     1   108.7700466 392.459200
  10024  10073  10063     1   119.3800509 410.868800
  10026  10027  10046     1   109.5600471 388.275200
  10026  10037  10040     1   109.5600471 388.275200
  10026  10037  10041     1   109.5600471 388.275200
  10027  10029  10033     1   109.5600471 388.275200
  10027  10047  10048     1   107.2600461 396.643200
  10027  10026  10028     1   109.5600471 388.275200
  10028  10026  10037     1   109.5600471 388.275200
  10028  10026  10044     1   109.7800468 425.094400
  10029  10030  10032     1   109.5600471 388.275200
  10029  10036  10038     1   107.2600461 396.643200
  10029  10027  10046     1   109.5600471 388.275200
  10030  10031  10034     1   110.2200475 386.601600
  10030  10049  10039     1   109.2900470 396.643200
  10030  10029  10033     1   109.5600471 388.275200
  10031  10035  10045     1   107.2600461 396.643200
  10031  10030  10032     1   109.5600471 388.275200
  10032  10030  10049     1   109.8800469 414.216000
  10033  10029  10036     1   110.2600474 425.931200
  10034  10031  10035     1   109.4300470 427.604800
  10034  10031  10044     1   109.5800467 425.931200
  10037  10042  10043     1   107.2600461 396.643200
  10040  10037  10042     1   110.2600474 425.931200
  10040  10037  10041     1   108.4600466 328.025600
  10041  10037  10042     1   110.2600474 425.931200
  10046  10027  10047     1   110.2600474 425.931200
  10050  10051  10070     1   109.5600471 388.275200
  10050  10061  10064     1   109.5600471 388.275200
  10050  10061  10065     1   109.5600471 388.275200
  10051  10053  10057     1   109.5600471 388.275200
  10051  10071  10072     1   107.2600461 396.643200
  10051  10050  10052     1   109.5600471 388.275200
  10052  10050  10061     1   109.5600471 388.275200
  10052  10050  10068     1   109.7800468 425.094400
  10053  10054  10056     1   109.5600471 388.275200
  10053  10060  10062     1   107.2600461 396.643200
  10053  10051  10070     1   109.5600471 388.275200
  10054  10055  10058     1   110.2200475 386.601600
  10054  10073  10063     1   109.2900470 396.643200
  10054  10053  10057     1   109.5600471 388.275200
  10055  10059  10069     1   107.2600461 396.643200
  10055  10054  10056     1   109.5600471 388.275200
  10056  10054  10073     1   109.8800469 414.216000
  10057  10053  10060     1   110.2600474 425.931200
  10058  10055  10059     1   109.4300470 427.604800
  10058  10055  10068     1   109.5800467 425.931200
  10061  10066  10067     1   107.2600461 396.643200
  10064  10061  10066     1   110.2600474 425.931200
  10064  10061  10065     1   108.4600466 328.025600
  10065  10061  10066     1   110.2600474 425.931200
  10070  10051  10071     1   110.2600474 425.931200
  10075  10077  10078     1   108.8800464 416.726400
  10075  10077  10080     1   108.8800464 416.726400
  10076  10075  10077     1   117.6800502 383.254400
  10077  10079  10081     1   109.5600471 388.275200
  10077  10079  10082     1   109.5600471 388.275200
  10078  10077  10079     1   109.5600471 388.275200
  10078  10077  10080     1   108.4600466 328.025600
  10079  10077  10080     1   109.5600471 388.275200
  10079  10083  10148     1   110.1100470 384.091200
  10081  10079  10083     1   107.9000462 406.684800
  10081  10079  10082     1   108.4600466 328.025600
  10082  10079  10083     1   107.9000462 406.684800
  10083  10084  10093     1   107.9000462 406.684800
  10083  10084  10094     1   107.9000462 406.684800
  10083  10085  10086     1   107.9000462 406.684800
  10083  10085  10088     1   107.9000462 406.684800
  10084  10083  10148     1   110.1100470 384.091200
  10084  10095  10096     1   109.8000471 387.438400
  10084  10095  10097     1   109.8000471 387.438400
  10085  10083  10148     1   110.1100470 384.091200
  10085  10087  10089     1   109.8000471 387.438400
  10085  10087  10090     1   109.8000471 387.438400
  10086  10085  10087     1   109.5600471 388.275200
  10086  10085  10088     1   108.4600466 328.025600
  10087  10085  10088     1   109.5600471 388.275200
  10089  10087  10091     1   108.7700466 392.459200
  10089  10087  10090     1   107.5800459 329.699200
  10090  10087  10091     1   108.7700466 392.459200
  10091  10123  10113     1   119.3800509 410.868800
  10093  10084  10095     1   109.5600471 388.275200
  10093  10084  10094     1   108.4600466 328.025600
  10094  10084  10095     1   109.5600471 388.275200
  10096  10095  10098     1   108.7700466 392.459200
  10096  10095  10097     1   107.5800459 329.699200
  10097  10095  10098     1   108.7700466 392.459200
  10098  10147  10137     1   119.3800509 410.868800
  10100  10101  10120     1   109.5600471 388.275200
  10100  10111  10114     1   109.5600471 388.275200
  10100  10111  10115     1   109.5600471 388.275200
  10101  10100  10102     1   109.5600471 388.275200
  10101  10103  10107     1   109.5600471 388.275200
  10101  10121  10122     1   107.2600461 396.643200
  10102  10100  10111     1   109.5600471 388.275200
  10102  10100  10118     1   109.7800468 425.094400
  10103  10101  10120     1   109.5600471 388.275200
  10103  10104  10106     1   109.5600471 388.275200
  10103  10110  10112     1   107.2600461 396.643200
  10104  10103  10107     1   109.5600471 388.275200
  10104  10105  10108     1   110.2200475 386.601600
  10104  10123  10113     1   109.2900470 396.643200
  10105  10104  10106     1   109.5600471 388.275200
  10105  10109  10119     1   107.2600461 396.643200
  10106  10104  10123     1   109.8800469 414.216000
  10107  10103  10110     1   110.2600474 425.931200
  10108  10105  10109     1   109.4300470 427.604800
  10108  10105  10118     1   109.5800467 425.931200
  10111  10116  10117     1   107.2600461 396.643200
  10114  10111  10116     1   110.2600474 425.931200
  10114  10111  10115     1   108.4600466 328.025600
  10115  10111  10116     1   110.2600474 425.931200
  10120  10101  10121     1   110.2600474 425.931200
  10124  10125  10144     1   109.5600471 388.275200
  10124  10135  10138     1   109.5600471 388.275200
  10124  10135  10139     1   109.5600471 388.275200
  10125  10124  10126     1   109.5600471 388.275200
  10125  10127  10131     1   109.5600471 388.275200
  10125  10145  10146     1   107.2600461 396.643200
  10126  10124  10135     1   109.5600471 388.275200
  10126  10124  10142     1   109.7800468 425.094400
  10127  10125  10144     1   109.5600471 388.275200
  10127  10128  10130     1   109.5600471 388.275200
  10127  10134  10136     1   107.2600461 396.643200
  10128  10127  10131     1   109.5600471 388.275200
  10128  10129  10132     1   110.2200475 386.601600
  10128  10147  10137     1   109.2900470 396.643200
  10129  10128  10130     1   109.5600471 388.275200
  10129  10133  10143     1   107.2600461 396.643200
  10130  10128  10147     1   109.8800469 414.216000
  10131  10127  10134     1   110.2600474 425.931200
  10132  10129  10133     1   109.4300470 427.604800
  10132  10129  10142     1   109.5800467 425.931200
  10135  10140  10141     1   107.2600461 396.643200
  10138  10135  10140     1   110.2600474 425.931200
  10138  10135  10139     1   108.4600466 328.025600
  10139  10135  10140     1   110.2600474 425.931200
  10144  10125  10145     1   110.2600474 425.931200
  10149  10151  10152     1   108.8800464 416.726400
  10149  10151  10154     1   108.8800464 416.726400
  10150  10149  10151     1   117.6800502 383.254400
  10151  10153  10155     1   109.5600471 388.275200
  10151  10153  10156     1   109.5600471 388.275200
  10152  10151  10153     1   109.5600471 388.275200
  10152  10151  10154     1   108.4600466 328.025600
  10153  10157  10222     1   110.1100470 384.091200
  10153  10151  10154     1   109.5600471 388.275200
  10155  10153  10157     1   107.9000462 406.684800
  10155  10153  10156     1   108.4600466 328.025600
  10156  10153  10157     1   107.9000462 406.684800
  10157  10158  10167     1   107.9000462 406.684800
  10157  10158  10168     1   107.9000462 406.684800
  10157  10159  10160     1   107.9000462 406.684800
  10157  10159  10162     1   107.9000462 406.684800
  10158  10169  10170     1   109.8000471 387.438400
  10158  10169  10171     1   109.8000471 387.438400
  10158  10157  10222     1   110.1100470 384.091200
  10159  10161  10163     1   109.8000471 387.438400
  10159  10161  10164     1   109.8000471 387.438400
  10159  10157  10222     1   110.1100470 384.091200
  10160  10159  10161     1   109.5600471 388.275200
  10160  10159  10162     1   108.4600466 328.025600
  10161  10159  10162     1   109.5600471 388.275200
  10163  10161  10165     1   108.7700466 392.459200
  10163  10161  10164     1   107.5800459 329.699200
  10164  10161  10165     1   108.7700466 392.459200
  10165  10197  10187     1   119.3800509 410.868800
  10167  10158  10169     1   109.5600471 388.275200
  10167  10158  10168     1   108.4600466 328.025600
  10168  10158  10169     1   109.5600471 388.275200
  10170  10169  10172     1   108.7700466 392.459200
  10170  10169  10171     1   107.5800459 329.699200
  10171  10169  10172     1   108.7700466 392.459200
  10172  10221  10211     1   119.3800509 410.868800
  10174  10175  10194     1   109.5600471 388.275200
  10174  10185  10188     1   109.5600471 388.275200
  10174  10185  10189     1   109.5600471 388.275200
  10175  10177  10181     1   109.5600471 388.275200
  10175  10195  10196     1   107.2600461 396.643200
  10175  10174  10176     1   109.5600471 388.275200
  10176  10174  10185     1   109.5600471 388.275200
  10176  10174  10192     1   109.7800468 425.094400
  10177  10178  10180     1   109.5600471 388.275200
  10177  10184  10186     1   107.2600461 396.643200
  10177  10175  10194     1   109.5600471 388.275200
  10178  10179  10182     1   110.2200475 386.601600
  10178  10197  10187     1   109.2900470 396.643200
  10178  10177  10181     1   109.5600471 388.275200
  10179  10183  10193     1   107.2600461 396.643200
  10179  10178  10180     1   109.5600471 388.275200
  10180  10178  10197     1   109.8800469 414.216000
  10181  10177  10184     1   110.2600474 425.931200
  10182  10179  10183     1   109.4300470 427.604800
  10182  10179  10192     1   109.5800467 425.931200
  10185  10190  10191     1   107.2600461 396.643200
  10188  10185  10190     1   110.2600474 425.931200
  10188  10185  10189     1   108.4600466 328.025600
  10189  10185  10190     1   110.2600474 425.931200
  10194  10175  10195     1   110.2600474 425.931200
  10198  10199  10218     1   109.5600471 388.275200
  10198  10209  10212     1   109.5600471 388.275200
  10198  10209  10213     1   109.5600471 388.275200
  10199  10201  10205     1   109.5600471 388.275200
  10199  10219  10220     1   107.2600461 396.643200
  10199  10198  10200     1   109.5600471 388.275200
  10200  10198  10209     1   109.5600471 388.275200
  10200  10198  10216     1   109.7800468 425.094400
  10201  10202  10204     1   109.5600471 388.275200
  10201  10208  10210     1   107.2600461 396.643200
  10201  10199  10218     1   109.5600471 388.275200
  10202  10203  10206     1   110.2200475 386.601600
  10202  10221  10211     1   109.2900470 396.643200
  10202  10201  10205     1   109.5600471 388.275200
  10203  10207  10217     1   107.2600461 396.643200
  10203  10202  10204     1   109.5600471 388.275200
  10204  10202  10221     1   109.8800469 414.216000
  10205  10201  10208     1   110.2600474 425.931200
  10206  10203  10207     1   109.4300470 427.604800
  10206  10203  10216     1   109.5800467 425.931200
  10209  10214  10215     1   107.2600461 396.643200
  10212  10209  10214     1   110.2600474 425.931200
  10212  10209  10213     1   108.4600466 328.025600
  10213  10209  10214     1   110.2600474 425.931200
  10218  10199  10219     1   110.2600474 425.931200
  10223  10225  10226     1   108.8800464 416.726400
  10223  10225  10228     1   108.8800464 416.726400
  10224  10223  10225     1   117.6800502 383.254400
  10225  10227  10229     1   109.5600471 388.275200
  10225  10227  10230     1   109.5600471 388.275200
  10226  10225  10227     1   109.5600471 388.275200
  10226  10225  10228     1   108.4600466 328.025600
  10227  10225  10228     1   109.5600471 388.275200
  10227  10231  10296     1   110.1100470 384.091200
  10229  10227  10231     1   107.9000462 406.684800
  10229  10227  10230     1   108.4600466 328.025600
  10230  10227  10231     1   107.9000462 406.684800
  10231  10232  10241     1   107.9000462 406.684800
  10231  10232  10242     1   107.9000462 406.684800
  10231  10233  10234     1   107.9000462 406.684800
  10231  10233  10236     1   107.9000462 406.684800
  10232  10231  10296     1   110.1100470 384.091200
  10232  10243  10244     1   109.8000471 387.438400
  10232  10243  10245     1   109.8000471 387.438400
  10233  10231  10296     1   110.1100470 384.091200
  10233  10235  10237     1   109.8000471 387.438400
  10233  10235  10238     1   109.8000471 387.438400
  10234  10233  10235     1   109.5600471 388.275200
  10234  10233  10236     1   108.4600466 328.025600
  10235  10233  10236     1   109.5600471 388.275200
  10237  10235  10239     1   108.7700466 392.459200
  10237  10235  10238     1   107.5800459 329.699200
  10238  10235  10239     1   108.7700466 392.459200
  10239  10271  10261     1   119.3800509 410.868800
  10241  10232  10243     1   109.5600471 388.275200
  10241  10232  10242     1   108.4600466 328.025600
  10242  10232  10243     1   109.5600471 388.275200
  10244  10243  10246     1   108.7700466 392.459200
  10244  10243  10245     1   107.5800459 329.699200
  10245  10243  10246     1   108.7700466 392.459200
  10246  10295  10285     1   119.3800509 410.868800
  10248  10249  10268     1   109.5600471 388.275200
  10248  10259  10262     1   109.5600471 388.275200
  10248  10259  10263     1   109.5600471 388.275200
  10249  10248  10250     1   109.5600471 388.275200
  10249  10251  10255     1   109.5600471 388.275200
  10249  10269  10270     1   107.2600461 396.643200
  10250  10248  10259     1   109.5600471 388.275200
  10250  10248  10266     1   109.7800468 425.094400
  10251  10249  10268     1   109.5600471 388.275200
  10251  10252  10254     1   109.5600471 388.275200
  10251  10258  10260     1   107.2600461 396.643200
  10252  10251  10255     1   109.5600471 388.275200
  10252  10253  10256     1   110.2200475 386.601600
  10252  10271  10261     1   109.2900470 396.643200
  10253  10252  10254     1   109.5600471 388.275200
  10253  10257  10267     1   107.2600461 396.643200
  10254  10252  10271     1   109.8800469 414.216000
  10255  10251  10258     1   110.2600474 425.931200
  10256  10253  10257     1   109.4300470 427.604800
  10256  10253  10266     1   109.5800467 425.931200
  10259  10264  10265     1   107.2600461 396.643200
  10262  10259  10264     1   110.2600474 425.931200
  10262  10259  10263     1   108.4600466 328.025600
  10263  10259  10264     1   110.2600474 425.931200
  10268  10249  10269     1   110.2600474 425.931200
  10272  10273  10292     1   109.5600471 388.275200
  10272  10283  10286     1   109.5600471 388.275200
  10272  10283  10287     1   109.5600471 388.275200
  10273  10272  10274     1   109.5600471 388.275200
  10273  10275  10279     1   109.5600471 388.275200
  10273  10293  10294     1   107.2600461 396.643200
  10274  10272  10283     1   109.5600471 388.275200
  10274  10272  10290     1   109.7800468 425.094400
  10275  10273  10292     1   109.5600471 388.275200
  10275  10276  10278     1   109.5600471 388.275200
  10275  10282  10284     1   107.2600461 396.643200
  10276  10275  10279     1   109.5600471 388.275200
  10276  10277  10280     1   110.2200475 386.601600
  10276  10295  10285     1   109.2900470 396.643200
  10277  10276  10278     1   109.5600471 388.275200
  10277  10281  10291     1   107.2600461 396.643200
  10278  10276  10295     1   109.8800469 414.216000
  10279  10275  10282     1   110.2600474 425.931200
  10280  10277  10281     1   109.4300470 427.604800
  10280  10277  10290     1   109.5800467 425.931200
  10283  10288  10289     1   107.2600461 396.643200
  10286  10283  10288     1   110.2600474 425.931200
  10286  10283  10287     1   108.4600466 328.025600
  10287  10283  10288     1   110.2600474 425.931200
  10292  10273  10293     1   110.2600474 425.931200
  10297  10299  10300     1   108.8800464 416.726400
  10297  10299  10302     1   108.8800464 416.726400
  10298  10297  10299     1   117.6800502 383.254400
  10299  10301  10303     1   109.5600471 388.275200
  10299  10301  10304     1   109.5600471 388.275200
  10300  10299  10301     1   109.5600471 388.275200
  10300  10299  10302     1   108.4600466 328.025600
  10301  10305  10370     1   110.1100470 384.091200
  10301  10299  10302     1   109.5600471 388.275200
  10303  10301  10305     1   107.9000462 406.684800
  10303  10301  10304     1   108.4600466 328.025600
  10304  10301  10305     1   107.9000462 406.684800
  10305  10306  10315     1   107.9000462 406.684800
  10305  10306  10316     1   107.9000462 406.684800
  10305  10307  10308     1   107.9000462 406.684800
  10305  10307  10310     1   107.9000462 406.684800
  10306  10317  10318     1   109.8000471 387.438400
  10306  10317  10319     1   109.8000471 387.438400
  10306  10305  10370     1   110.1100470 384.091200
  10307  10309  10311     1   109.8000471 387.438400
  10307  10309  10312     1   109.8000471 387.438400
  10307  10305  10370     1   110.1100470 384.091200
  10308  10307  10309     1   109.5600471 388.275200
  10308  10307  10310     1   108.4600466 328.025600
  10309  10307  10310     1   109.5600471 388.275200
  10311  10309  10313     1   108.7700466 392.459200
  10311  10309  10312     1   107.5800459 329.699200
  10312  10309  10313     1   108.7700466 392.459200
  10313  10345  10335     1   119.3800509 410.868800
  10315  10306  10317     1   109.5600471 388.275200
  10315  10306  10316     1   108.4600466 328.025600
  10316  10306  10317     1   109.5600471 388.275200
  10318  10317  10320     1   108.7700466 392.459200
  10318  10317  10319     1   107.5800459 329.699200
  10319  10317  10320     1   108.7700466 392.459200
  10320  10369  10359     1   119.3800509 410.868800
  10322  10323  10342     1   109.5600471 388.275200
  10322  10333  10336     1   109.5600471 388.275200
  10322  10333  10337     1   109.5600471 388.275200
  10323  10325  10329     1   109.5600471 388.275200
  10323  10343  10344     1   107.2600461 396.643200
  10323  10322  10324     1   109.5600471 388.275200
  10324  10322  10333     1   109.5600471 388.275200
  10324  10322  10340     1   109.7800468 425.094400
  10325  10326  10328     1   109.5600471 388.275200
  10325  10332  10334     1   107.2600461 396.643200
  10325  10323  10342     1   109.5600471 388.275200
  10326  10327  10330     1   110.2200475 386.601600
  10326  10345  10335     1   109.2900470 396.643200
  10326  10325  10329     1   109.5600471 388.275200
  10327  10331  10341     1   107.2600461 396.643200
  10327  10326  10328     1   109.5600471 388.275200
  10328  10326  10345     1   109.8800469 414.216000
  10329  10325  10332     1   110.2600474 425.931200
  10330  10327  10331     1   109.4300470 427.604800
  10330  10327  10340     1   109.5800467 425.931200
  10333  10338  10339     1   107.2600461 396.643200
  10336  10333  10338     1   110.2600474 425.931200
  10336  10333  10337     1   108.4600466 328.025600
  10337  10333  10338     1   110.2600474 425.931200
  10342  10323  10343     1   110.2600474 425.931200
  10346  10347  10366     1   109.5600471 388.275200
  10346  10357  10360     1   109.5600471 388.275200
  10346  10357  10361     1   109.5600471 388.275200
  10347  10349  10353     1   109.5600471 388.275200
  10347  10367  10368     1   107.2600461 396.643200
  10347  10346  10348     1   109.5600471 388.275200
  10348  10346  10357     1   109.5600471 388.275200
  10348  10346  10364     1   109.7800468 425.094400
  10349  10350  10352     1   109.5600471 388.275200
  10349  10356  10358     1   107.2600461 396.643200
  10349  10347  10366     1   109.5600471 388.275200
  10350  10351  10354     1   110.2200475 386.601600
  10350  10369  10359     1   109.2900470 396.643200
  10350  10349  10353     1   109.5600471 388.275200
  10351  10355  10365     1   107.2600461 396.643200
  10351  10350  10352     1   109.5600471 388.275200
  10352  10350  10369     1   109.8800469 414.216000
  10353  10349  10356     1   110.2600474 425.931200
  10354  10351  10355     1   109.4300470 427.604800
  10354  10351  10364     1   109.5800467 425.931200
  10357  10362  10363     1   107.2600461 396.643200
  10360  10357  10362     1   110.2600474 425.931200
  10360  10357  10361     1   108.4600466 328.025600
  10361  10357  10362     1   110.2600474 425.931200
  10366  10347  10367     1   110.2600474 425.931200
  10371  10373  10374     1   108.8800464 416.726400
  10371  10373  10376     1   108.8800464 416.726400
  10372  10371  10373     1   117.6800502 383.254400
  10373  10375  10377     1   109.5600471 388.275200
  10373  10375  10378     1   109.5600471 388.275200
  10374  10373  10375     1   109.5600471 388.275200
  10374  10373  10376     1   108.4600466 328.025600
  10375  10373  10376     1   109.5600471 388.275200
  10375  10379  10444     1   110.1100470 384.091200
  10377  10375  10379     1   107.9000462 406.684800
  10377  10375  10378     1   108.4600466 328.025600
  10378  10375  10379     1   107.9000462 406.684800
  10379  10380  10389     1   107.9000462 406.684800
  10379  10380  10390     1   107.9000462 406.684800
  10379  10381  10382     1   107.9000462 406.684800
  10379  10381  10384     1   107.9000462 406.684800
  10380  10379  10444     1   110.1100470 384.091200
  10380  10391  10392     1   109.8000471 387.438400
  10380  10391  10393     1   109.8000471 387.438400
  10381  10379  10444     1   110.1100470 384.091200
  10381  10383  10385     1   109.8000471 387.438400
  10381  10383  10386     1   109.8000471 387.438400
  10382  10381  10383     1   109.5600471 388.275200
  10382  10381  10384     1   108.4600466 328.025600
  10383  10381  10384     1   109.5600471 388.275200
  10385  10383  10387     1   108.7700466 392.459200
  10385  10383  10386     1   107.5800459 329.699200
  10386  10383  10387     1   108.7700466 392.459200
  10387  10419  10409     1   119.3800509 410.868800
  10389  10380  10391     1   109.5600471 388.275200
  10389  10380  10390     1   108.4600466 328.025600
  10390  10380  10391     1   109.5600471 388.275200
  10392  10391  10394     1   108.7700466 392.459200
  10392  10391  10393     1   107.5800459 329.699200
  10393  10391  10394     1   108.7700466 392.459200
  10394  10443  10433     1   119.3800509 410.868800
  10396  10397  10416     1   109.5600471 388.275200
  10396  10407  10410     1   109.5600471 388.275200
  10396  10407  10411     1   109.5600471 388.275200
  10397  10396  10398     1   109.5600471 388.275200
  10397  10399  10403     1   109.5600471 388.275200
  10397  10417  10418     1   107.2600461 396.643200
  10398  10396  10407     1   109.5600471 388.275200
  10398  10396  10414     1   109.7800468 425.094400
  10399  10397  10416     1   109.5600471 388.275200
  10399  10400  10402     1   109.5600471 388.275200
  10399  10406  10408     1   107.2600461 396.643200
  10400  10399  10403     1   109.5600471 388.275200
  10400  10401  10404     1   110.2200475 386.601600
  10400  10419  10409     1   109.2900470 396.643200
  10401  10400  10402     1   109.5600471 388.275200
  10401  10405  10415     1   107.2600461 396.643200
  10402  10400  10419     1   109.8800469 414.216000
  10403  10399  10406     1   110.2600474 425.931200
  10404  10401  10405     1   109.4300470 427.604800
  10404  10401  10414     1   109.5800467 425.931200
  10407  10412  10413     1   107.2600461 396.643200
  10410  10407  10412     1   110.2600474 425.931200
  10410  10407  10411     1   108.4600466 328.025600
  10411  10407  10412     1   110.2600474 425.931200
  10416  10397  10417     1   110.2600474 425.931200
  10420  10421  10440     1   109.5600471 388.275200
  10420  10431  10434     1   109.5600471 388.275200
  10420  10431  10435     1   109.5600471 388.275200
  10421  10420  10422     1   109.5600471 388.275200
  10421  10423  10427     1   109.5600471 388.275200
  10421  10441  10442     1   107.2600461 396.643200
  10422  10420  10431     1   109.5600471 388.275200
  10422  10420  10438     1   109.7800468 425.094400
  10423  10421  10440     1   109.5600471 388.275200
  10423  10424  10426     1   109.5600471 388.275200
  10423  10430  10432     1   107.2600461 396.643200
  10424  10423  10427     1   109.5600471 388.275200
  10424  10425  10428     1   110.2200475 386.601600
  10424  10443  10433     1   109.2900470 396.643200
  10425  10424  10426     1   109.5600471 388.275200
  10425  10429  10439     1   107.2600461 396.643200
  10426  10424  10443     1   109.8800469 414.216000
  10427  10423  10430     1   110.2600474 425.931200
  10428  10425  10429     1   109.4300470 427.604800
  10428  10425  10438     1   109.5800467 425.931200
  10431  10436  10437     1   107.2600461 396.643200
  10434  10431  10436     1   110.2600474 425.931200
  10434  10431  10435     1   108.4600466 328.025600
  10435  10431  10436     1   110.2600474 425.931200
  10440  10421  10441     1   110.2600474 425.931200
  10445  10447  10448     1   108.8800464 416.726400
  10445  10447  10450     1   108.8800464 416.726400
  10446  10445  10447     1   117.6800502 383.254400
  10447  10449  10451     1   109.5600471 388.275200
  10447  10449  10452     1   109.5600471 388.275200
  10448  10447  10449     1   109.5600471 388.275200
  10448  10447  10450     1   108.4600466 328.025600
  10449  10453  10518     1   110.1100470 384.091200
  10449  10447  10450     1   109.5600471 388.275200
  10451  10449  10453     1   107.9000462 406.684800
  10451  10449  10452     1   108.4600466 328.025600
  10452  10449  10453     1   107.9000462 406.684800
  10453  10454  10463     1   107.9000462 406.684800
  10453  10454  10464     1   107.9000462 406.684800
  10453  10455  10456     1   107.9000462 406.684800
  10453  10455  10458     1   107.9000462 406.684800
  10454  10465  10466     1   109.8000471 387.438400
  10454  10465  10467     1   109.8000471 387.438400
  10454  10453  10518     1   110.1100470 384.091200
  10455  10457  10459     1   109.8000471 387.438400
  10455  10457  10460     1   109.8000471 387.438400
  10455  10453  10518     1   110.1100470 384.091200
  10456  10455  10457     1   109.5600471 388.275200
  10456  10455  10458     1   108.4600466 328.025600
  10457  10455  10458     1   109.5600471 388.275200
  10459  10457  10461     1   108.7700466 392.459200
  10459  10457  10460     1   107.5800459 329.699200
  10460  10457  10461     1   108.7700466 392.459200
  10461  10493  10483     1   119.3800509 410.868800
  10463  10454  10465     1   109.5600471 388.275200
  10463  10454  10464     1   108.4600466 328.025600
  10464  10454  10465     1   109.5600471 388.275200
  10466  10465  10468     1   108.7700466 392.459200
  10466  10465  10467     1   107.5800459 329.699200
  10467  10465  10468     1   108.7700466 392.459200
  10468  10517  10507     1   119.3800509 410.868800
  10470  10471  10490     1   109.5600471 388.275200
  10470  10481  10484     1   109.5600471 388.275200
  10470  10481  10485     1   109.5600471 388.275200
  10471  10473  10477     1   109.5600471 388.275200
  10471  10491  10492     1   107.2600461 396.643200
  10471  10470  10472     1   109.5600471 388.275200
  10472  10470  10481     1   109.5600471 388.275200
  10472  10470  10488     1   109.7800468 425.094400
  10473  10474  10476     1   109.5600471 388.275200
  10473  10480  10482     1   107.2600461 396.643200
  10473  10471  10490     1   109.5600471 388.275200
  10474  10475  10478     1   110.2200475 386.601600
  10474  10493  10483     1   109.2900470 396.643200
  10474  10473  10477     1   109.5600471 388.275200
  10475  10479  10489     1   107.2600461 396.643200
  10475  10474  10476     1   109.5600471 388.275200
  10476  10474  10493     1   109.8800469 414.216000
  10477  10473  10480     1   110.2600474 425.931200
  10478  10475  10479     1   109.4300470 427.604800
  10478  10475  10488     1   109.5800467 425.931200
  10481  10486  10487     1   107.2600461 396.643200
  10484  10481  10486     1   110.2600474 425.931200
  10484  10481  10485     1   108.4600466 328.025600
  10485  10481  10486     1   110.2600474 425.931200
  10490  10471  10491     1   110.2600474 425.931200
  10494  10495  10514     1   109.5600471 388.275200
  10494  10505  10508     1   109.5600471 388.275200
  10494  10505  10509     1   109.5600471 388.275200
  10495  10497  10501     1   109.5600471 388.275200
  10495  10515  10516     1   107.2600461 396.643200
  10495  10494  10496     1   109.5600471 388.275200
  10496  10494  10505     1   109.5600471 388.275200
  10496  10494  10512     1   109.7800468 425.094400
  10497  10498  10500     1   109.5600471 388.275200
  10497  10504  10506     1   107.2600461 396.643200
  10497  10495  10514     1   109.5600471 388.275200
  10498  10499  10502     1   110.2200475 386.601600
  10498  10517  10507     1   109.2900470 396.643200
  10498  10497  10501     1   109.5600471 388.275200
  10499  10503  10513     1   107.2600461 396.643200
  10499  10498  10500     1   109.5600471 388.275200
  10500  10498  10517     1   109.8800469 414.216000
  10501  10497  10504     1   110.2600474 425.931200
  10502  10499  10503     1   109.4300470 427.604800
  10502  10499  10512     1   109.5800467 425.931200
  10505  10510  10511     1   107.2600461 396.643200
  10508  10505  10510     1   110.2600474 425.931200
  10508  10505  10509     1   108.4600466 328.025600
  10509  10505  10510     1   110.2600474 425.931200
  10514  10495  10515     1   110.2600474 425.931200
  10519  10521  10522     1   108.8800464 416.726400
  10519  10521  10524     1   108.8800464 416.726400
  10520  10519  10521     1   117.6800502 383.254400
  10521  10523  10525     1   109.5600471 388.275200
  10521  10523  10526     1   109.5600471 388.275200
  10522  10521  10523     1   109.5600471 388.275200
  10522  10521  10524     1   108.4600466 328.025600
  10523  10521  10524     1   109.5600471 388.275200
  10523  10527  10592     1   110.1100470 384.091200
  10525  10523  10527     1   107.9000462 406.684800
  10525  10523  10526     1   108.4600466 328.025600
  10526  10523  10527     1   107.9000462 406.684800
  10527  10528  10537     1   107.9000462 406.684800
  10527  10528  10538     1   107.9000462 406.684800
  10527  10529  10530     1   107.9000462 406.684800
  10527  10529  10532     1   107.9000462 406.684800
  10528  10527  10592     1   110.1100470 384.091200
  10528  10539  10540     1   109.8000471 387.438400
  10528  10539  10541     1   109.8000471 387.438400
  10529  10527  10592     1   110.1100470 384.091200
  10529  10531  10533     1   109.8000471 387.438400
  10529  10531  10534     1   109.8000471 387.438400
  10530  10529  10531     1   109.5600471 388.275200
  10530  10529  10532     1   108.4600466 328.025600
  10531  10529  10532     1   109.5600471 388.275200
  10533  10531  10535     1   108.7700466 392.459200
  10533  10531  10534     1   107.5800459 329.699200
  10534  10531  10535     1   108.7700466 392.459200
  10535  10567  10557     1   119.3800509 410.868800
  10537  10528  10539     1   109.5600471 388.275200
  10537  10528  10538     1   108.4600466 328.025600
  10538  10528  10539     1   109.5600471 388.275200
  10540  10539  10542     1   108.7700466 392.459200
  10540  10539  10541     1   107.5800459 329.699200
  10541  10539  10542     1   108.7700466 392.459200
  10542  10591  10581     1   119.3800509 410.868800
  10544  10545  10564     1   109.5600471 388.275200
  10544  10555  10558     1   109.5600471 388.275200
  10544  10555  10559     1   109.5600471 388.275200
  10545  10544  10546     1   109.5600471 388.275200
  10545  10547  10551     1   109.5600471 388.275200
  10545  10565  10566     1   107.2600461 396.643200
  10546  10544  10555     1   109.5600471 388.275200
  10546  10544  10562     1   109.7800468 425.094400
  10547  10545  10564     1   109.5600471 388.275200
  10547  10548  10550     1   109.5600471 388.275200
  10547  10554  10556     1   107.2600461 396.643200
  10548  10547  10551     1   109.5600471 388.275200
  10548  10549  10552     1   110.2200475 386.601600
  10548  10567  10557     1   109.2900470 396.643200
  10549  10548  10550     1   109.5600471 388.275200
  10549  10553  10563     1   107.2600461 396.643200
  10550  10548  10567     1   109.8800469 414.216000
  10551  10547  10554     1   110.2600474 425.931200
  10552  10549  10553     1   109.4300470 427.604800
  10552  10549  10562     1   109.5800467 425.931200
  10555  10560  10561     1   107.2600461 396.643200
  10558  10555  10560     1   110.2600474 425.931200
  10558  10555  10559     1   108.4600466 328.025600
  10559  10555  10560     1   110.2600474 425.931200
  10564  10545  10565     1   110.2600474 425.931200
  10568  10569  10588     1   109.5600471 388.275200
  10568  10579  10582     1   109.5600471 388.275200
  10568  10579  10583     1   109.5600471 388.275200
  10569  10568  10570     1   109.5600471 388.275200
  10569  10571  10575     1   109.5600471 388.275200
  10569  10589  10590     1   107.2600461 396.643200
  10570  10568  10579     1   109.5600471 388.275200
  10570  10568  10586     1   109.7800468 425.094400
  10571  10569  10588     1   109.5600471 388.275200
  10571  10572  10574     1   109.5600471 388.275200
  10571  10578  10580     1   107.2600461 396.643200
  10572  10571  10575     1   109.5600471 388.275200
  10572  10573  10576     1   110.2200475 386.601600
  10572  10591  10581     1   109.2900470 396.643200
  10573  10572  10574     1   109.5600471 388.275200
  10573  10577  10587     1   107.2600461 396.643200
  10574  10572  10591     1   109.8800469 414.216000
  10575  10571  10578     1   110.2600474 425.931200
  10576  10573  10577     1   109.4300470 427.604800
  10576  10573  10586     1   109.5800467 425.931200
  10579  10584  10585     1   107.2600461 396.643200
  10582  10579  10584     1   110.2600474 425.931200
  10582  10579  10583     1   108.4600466 328.025600
  10583  10579  10584     1   110.2600474 425.931200
  10588  10569  10589     1   110.2600474 425.931200
  10593  10595  10596     1   108.8800464 416.726400
  10593  10595  10598     1   108.8800464 416.726400
  10594  10593  10595     1   117.6800502 383.254400
  10595  10597  10599     1   109.5600471 388.275200
  10595  10597  10600     1   109.5600471 388.275200
  10596  10595  10597     1   109.5600471 388.275200
  10596  10595  10598     1   108.4600466 328.025600
  10597  10601  10666     1   110.1100470 384.091200
  10597  10595  10598     1   109.5600471 388.275200
  10599  10597  10601     1   107.9000462 406.684800
  10599  10597  10600     1   108.4600466 328.025600
  10600  10597  10601     1   107.9000462 406.684800
  10601  10602  10611     1   107.9000462 406.684800
  10601  10602  10612     1   107.9000462 406.684800
  10601  10603  10604     1   107.9000462 406.684800
  10601  10603  10606     1   107.9000462 406.684800
  10602  10613  10614     1   109.8000471 387.438400
  10602  10613  10615     1   109.8000471 387.438400
  10602  10601  10666     1   110.1100470 384.091200
  10603  10605  10607     1   109.8000471 387.438400
  10603  10605  10608     1   109.8000471 387.438400
  10603  10601  10666     1   110.1100470 384.091200
  10604  10603  10605     1   109.5600471 388.275200
  10604  10603  10606     1   108.4600466 328.025600
  10605  10603  10606     1   109.5600471 388.275200
  10607  10605  10609     1   108.7700466 392.459200
  10607  10605  10608     1   107.5800459 329.699200
  10608  10605  10609     1   108.7700466 392.459200
  10609  10641  10631     1   119.3800509 410.868800
  10611  10602  10613     1   109.5600471 388.275200
  10611  10602  10612     1   108.4600466 328.025600
  10612  10602  10613     1   109.5600471 388.275200
  10614  10613  10616     1   108.7700466 392.459200
  10614  10613  10615     1   107.5800459 329.699200
  10615  10613  10616     1   108.7700466 392.459200
  10616  10665  10655     1   119.3800509 410.868800
  10618  10619  10638     1   109.5600471 388.275200
  10618  10629  10632     1   109.5600471 388.275200
  10618  10629  10633     1   109.5600471 388.275200
  10619  10621  10625     1   109.5600471 388.275200
  10619  10639  10640     1   107.2600461 396.643200
  10619  10618  10620     1   109.5600471 388.275200
  10620  10618  10629     1   109.5600471 388.275200
  10620  10618  10636     1   109.7800468 425.094400
  10621  10622  10624     1   109.5600471 388.275200
  10621  10628  10630     1   107.2600461 396.643200
  10621  10619  10638     1   109.5600471 388.275200
  10622  10623  10626     1   110.2200475 386.601600
  10622  10641  10631     1   109.2900470 396.643200
  10622  10621  10625     1   109.5600471 388.275200
  10623  10627  10637     1   107.2600461 396.643200
  10623  10622  10624     1   109.5600471 388.275200
  10624  10622  10641     1   109.8800469 414.216000
  10625  10621  10628     1   110.2600474 425.931200
  10626  10623  10627     1   109.4300470 427.604800
  10626  10623  10636     1   109.5800467 425.931200
  10629  10634  10635     1   107.2600461 396.643200
  10632  10629  10634     1   110.2600474 425.931200
  10632  10629  10633     1   108.4600466 328.025600
  10633  10629  10634     1   110.2600474 425.931200
  10638  10619  10639     1   110.2600474 425.931200
  10642  10643  10662     1   109.5600471 388.275200
  10642  10653  10656     1   109.5600471 388.275200
  10642  10653  10657     1   109.5600471 388.275200
  10643  10645  10649     1   109.5600471 388.275200
  10643  10663  10664     1   107.2600461 396.643200
  10643  10642  10644     1   109.5600471 388.275200
  10644  10642  10653     1   109.5600471 388.275200
  10644  10642  10660     1   109.7800468 425.094400
  10645  10646  10648     1   109.5600471 388.275200
  10645  10652  10654     1   107.2600461 396.643200
  10645  10643  10662     1   109.5600471 388.275200
  10646  10647  10650     1   110.2200475 386.601600
  10646  10665  10655     1   109.2900470 396.643200
  10646  10645  10649     1   109.5600471 388.275200
  10647  10651  10661     1   107.2600461 396.643200
  10647  10646  10648     1   109.5600471 388.275200
  10648  10646  10665     1   109.8800469 414.216000
  10649  10645  10652     1   110.2600474 425.931200
  10650  10647  10651     1   109.4300470 427.604800
  10650  10647  10660     1   109.5800467 425.931200
  10653  10658  10659     1   107.2600461 396.643200
  10656  10653  10658     1   110.2600474 425.931200
  10656  10653  10657     1   108.4600466 328.025600
  10657  10653  10658     1   110.2600474 425.931200
  10662  10643  10663     1   110.2600474 425.931200
  10667  10669  10670     1   108.8800464 416.726400
  10667  10669  10672     1   108.8800464 416.726400
  10668  10667  10669     1   117.6800502 383.254400
  10669  10671  10673     1   109.5600471 388.275200
  10669  10671  10674     1   109.5600471 388.275200
  10670  10669  10671     1   109.5600471 388.275200
  10670  10669  10672     1   108.4600466 328.025600
  10671  10669  10672     1   109.5600471 388.275200
  10671  10675  10740     1   110.1100470 384.091200
  10673  10671  10675     1   107.9000462 406.684800
  10673  10671  10674     1   108.4600466 328.025600
  10674  10671  10675     1   107.9000462 406.684800
  10675  10676  10685     1   107.9000462 406.684800
  10675  10676  10686     1   107.9000462 406.684800
  10675  10677  10678     1   107.9000462 406.684800
  10675  10677  10680     1   107.9000462 406.684800
  10676  10675  10740     1   110.1100470 384.091200
  10676  10687  10688     1   109.8000471 387.438400
  10676  10687  10689     1   109.8000471 387.438400
  10677  10675  10740     1   110.1100470 384.091200
  10677  10679  10681     1   109.8000471 387.438400
  10677  10679  10682     1   109.8000471 387.438400
  10678  10677  10679     1   109.5600471 388.275200
  10678  10677  10680     1   108.4600466 328.025600
  10679  10677  10680     1   109.5600471 388.275200
  10681  10679  10683     1   108.7700466 392.459200
  10681  10679  10682     1   107.5800459 329.699200
  10682  10679  10683     1   108.7700466 392.459200
  10683  10715  10705     1   119.3800509 410.868800
  10685  10676  10687     1   109.5600471 388.275200
  10685  10676  10686     1   108.4600466 328.025600
  10686  10676  10687     1   109.5600471 388.275200
  10688  10687  10690     1   108.7700466 392.459200
  10688  10687  10689     1   107.5800459 329.699200
  10689  10687  10690     1   108.7700466 392.459200
  10690  10739  10729     1   119.3800509 410.868800
  10692  10693  10712     1   109.5600471 388.275200
  10692  10703  10706     1   109.5600471 388.275200
  10692  10703  10707     1   109.5600471 388.275200
  10693  10692  10694     1   109.5600471 388.275200
  10693  10695  10699     1   109.5600471 388.275200
  10693  10713  10714     1   107.2600461 396.643200
  10694  10692  10703     1   109.5600471 388.275200
  10694  10692  10710     1   109.7800468 425.094400
  10695  10693  10712     1   109.5600471 388.275200
  10695  10696  10698     1   109.5600471 388.275200
  10695  10702  10704     1   107.2600461 396.643200
  10696  10695  10699     1   109.5600471 388.275200
  10696  10697  10700     1   110.2200475 386.601600
  10696  10715  10705     1   109.2900470 396.643200
  10697  10696  10698     1   109.5600471 388.275200
  10697  10701  10711     1   107.2600461 396.643200
  10698  10696  10715     1   109.8800469 414.216000
  10699  10695  10702     1   110.2600474 425.931200
  10700  10697  10701     1   109.4300470 427.604800
  10700  10697  10710     1   109.5800467 425.931200
  10703  10708  10709     1   107.2600461 396.643200
  10706  10703  10708     1   110.2600474 425.931200
  10706  10703  10707     1   108.4600466 328.025600
  10707  10703  10708     1   110.2600474 425.931200
  10712  10693  10713     1   110.2600474 425.931200
  10716  10717  10736     1   109.5600471 388.275200
  10716  10727  10730     1   109.5600471 388.275200
  10716  10727  10731     1   109.5600471 388.275200
  10717  10716  10718     1   109.5600471 388.275200
  10717  10719  10723     1   109.5600471 388.275200
  10717  10737  10738     1   107.2600461 396.643200
  10718  10716  10727     1   109.5600471 388.275200
  10718  10716  10734     1   109.7800468 425.094400
  10719  10717  10736     1   109.5600471 388.275200
  10719  10720  10722     1   109.5600471 388.275200
  10719  10726  10728     1   107.2600461 396.643200
  10720  10719  10723     1   109.5600471 388.275200
  10720  10721  10724     1   110.2200475 386.601600
  10720  10739  10729     1   109.2900470 396.643200
  10721  10720  10722     1   109.5600471 388.275200
  10721  10725  10735     1   107.2600461 396.643200
  10722  10720  10739     1   109.8800469 414.216000
  10723  10719  10726     1   110.2600474 425.931200
  10724  10721  10725     1   109.4300470 427.604800
  10724  10721  10734     1   109.5800467 425.931200
  10727  10732  10733     1   107.2600461 396.643200
  10730  10727  10732     1   110.2600474 425.931200
  10730  10727  10731     1   108.4600466 328.025600
  10731  10727  10732     1   110.2600474 425.931200
  10736  10717  10737     1   110.2600474 425.931200
  10741  10743  10744     1   108.8800464 416.726400
  10741  10743  10746     1   108.8800464 416.726400
  10742  10741  10743     1   117.6800502 383.254400
  10743  10745  10747     1   109.5600471 388.275200
  10743  10745  10748     1   109.5600471 388.275200
  10744  10743  10745     1   109.5600471 388.275200
  10744  10743  10746     1   108.4600466 328.025600
  10745  10749  10814     1   110.1100470 384.091200
  10745  10743  10746     1   109.5600471 388.275200
  10747  10745  10749     1   107.9000462 406.684800
  10747  10745  10748     1   108.4600466 328.025600
  10748  10745  10749     1   107.9000462 406.684800
  10749  10750  10759     1   107.9000462 406.684800
  10749  10750  10760     1   107.9000462 406.684800
  10749  10751  10752     1   107.9000462 406.684800
  10749  10751  10754     1   107.9000462 406.684800
  10750  10761  10762     1   109.8000471 387.438400
  10750  10761  10763     1   109.8000471 387.438400
  10750  10749  10814     1   110.1100470 384.091200
  10751  10753  10755     1   109.8000471 387.438400
  10751  10753  10756     1   109.8000471 387.438400
  10751  10749  10814     1   110.1100470 384.091200
  10752  10751  10753     1   109.5600471 388.275200
  10752  10751  10754     1   108.4600466 328.025600
  10753  10751  10754     1   109.5600471 388.275200
  10755  10753  10757     1   108.7700466 392.459200
  10755  10753  10756     1   107.5800459 329.699200
  10756  10753  10757     1   108.7700466 392.459200
  10757  10789  10779     1   119.3800509 410.868800
  10759  10750  10761     1   109.5600471 388.275200
  10759  10750  10760     1   108.4600466 328.025600
  10760  10750  10761     1   109.5600471 388.275200
  10762  10761  10764     1   108.7700466 392.459200
  10762  10761  10763     1   107.5800459 329.699200
  10763  10761  10764     1   108.7700466 392.459200
  10764  10813  10803     1   119.3800509 410.868800
  10766  10767  10786     1   109.5600471 388.275200
  10766  10777  10780     1   109.5600471 388.275200
  10766  10777  10781     1   109.5600471 388.275200
  10767  10769  10773     1   109.5600471 388.275200
  10767  10787  10788     1   107.2600461 396.643200
  10767  10766  10768     1   109.5600471 388.275200
  10768  10766  10777     1   109.5600471 388.275200
  10768  10766  10784     1   109.7800468 425.094400
  10769  10770  10772     1   109.5600471 388.275200
  10769  10776  10778     1   107.2600461 396.643200
  10769  10767  10786     1   109.5600471 388.275200
  10770  10771  10774     1   110.2200475 386.601600
  10770  10789  10779     1   109.2900470 396.643200
  10770  10769  10773     1   109.5600471 388.275200
  10771  10775  10785     1   107.2600461 396.643200
  10771  10770  10772     1   109.5600471 388.275200
  10772  10770  10789     1   109.8800469 414.216000
  10773  10769  10776     1   110.2600474 425.931200
  10774  10771  10775     1   109.4300470 427.604800
  10774  10771  10784     1   109.5800467 425.931200
  10777  10782  10783     1   107.2600461 396.643200
  10780  10777  10782     1   110.2600474 425.931200
  10780  10777  10781     1   108.4600466 328.025600
  10781  10777  10782     1   110.2600474 425.931200
  10786  10767  10787     1   110.2600474 425.931200
  10790  10791  10810     1   109.5600471 388.275200
  10790  10801  10804     1   109.5600471 388.275200
  10790  10801  10805     1   109.5600471 388.275200
  10791  10793  10797     1   109.5600471 388.275200
  10791  10811  10812     1   107.2600461 396.643200
  10791  10790  10792     1   109.5600471 388.275200
  10792  10790  10801     1   109.5600471 388.275200
  10792  10790  10808     1   109.7800468 425.094400
  10793  10794  10796     1   109.5600471 388.275200
  10793  10800  10802     1   107.2600461 396.643200
  10793  10791  10810     1   109.5600471 388.275200
  10794  10795  10798     1   110.2200475 386.601600
  10794  10813  10803     1   109.2900470 396.643200
  10794  10793  10797     1   109.5600471 388.275200
  10795  10799  10809     1   107.2600461 396.643200
  10795  10794  10796     1   109.5600471 388.275200
  10796  10794  10813     1   109.8800469 414.216000
  10797  10793  10800     1   110.2600474 425.931200
  10798  10795  10799     1   109.4300470 427.604800
  10798  10795  10808     1   109.5800467 425.931200
  10801  10806  10807     1   107.2600461 396.643200
  10804  10801  10806     1   110.2600474 425.931200
  10804  10801  10805     1   108.4600466 328.025600
  10805  10801  10806     1   110.2600474 425.931200
  10810  10791  10811     1   110.2600474 425.931200
  10815  10817  10818     1   108.8800464 416.726400
  10815  10817  10820     1   108.8800464 416.726400
  10816  10815  10817     1   117.6800502 383.254400
  10817  10819  10821     1   109.5600471 388.275200
  10817  10819  10822     1   109.5600471 388.275200
  10818  10817  10819     1   109.5600471 388.275200
  10818  10817  10820     1   108.4600466 328.025600
  10819  10817  10820     1   109.5600471 388.275200
  10819  10823  10888     1   110.1100470 384.091200
  10821  10819  10823     1   107.9000462 406.684800
  10821  10819  10822     1   108.4600466 328.025600
  10822  10819  10823     1   107.9000462 406.684800
  10823  10824  10833     1   107.9000462 406.684800
  10823  10824  10834     1   107.9000462 406.684800
  10823  10825  10826     1   107.9000462 406.684800
  10823  10825  10828     1   107.9000462 406.684800
  10824  10823  10888     1   110.1100470 384.091200
  10824  10835  10836     1   109.8000471 387.438400
  10824  10835  10837     1   109.8000471 387.438400
  10825  10823  10888     1   110.1100470 384.091200
  10825  10827  10829     1   109.8000471 387.438400
  10825  10827  10830     1   109.8000471 387.438400
  10826  10825  10827     1   109.5600471 388.275200
  10826  10825  10828     1   108.4600466 328.025600
  10827  10825  10828     1   109.5600471 388.275200
  10829  10827  10831     1   108.7700466 392.459200
  10829  10827  10830     1   107.5800459 329.699200
  10830  10827  10831     1   108.7700466 392.459200
  10831  10863  10853     1   119.3800509 410.868800
  10833  10824  10835     1   109.5600471 388.275200
  10833  10824  10834     1   108.4600466 328.025600
  10834  10824  10835     1   109.5600471 388.275200
  10836  10835  10838     1   108.7700466 392.459200
  10836  10835  10837     1   107.5800459 329.699200
  10837  10835  10838     1   108.7700466 392.459200
  10838  10887  10877     1   119.3800509 410.868800
  10840  10841  10860     1   109.5600471 388.275200
  10840  10851  10854     1   109.5600471 388.275200
  10840  10851  10855     1   109.5600471 388.275200
  10841  10840  10842     1   109.5600471 388.275200
  10841  10843  10847     1   109.5600471 388.275200
  10841  10861  10862     1   107.2600461 396.643200
  10842  10840  10851     1   109.5600471 388.275200
  10842  10840  10858     1   109.7800468 425.094400
  10843  10841  10860     1   109.5600471 388.275200
  10843  10844  10846     1   109.5600471 388.275200
  10843  10850  10852     1   107.2600461 396.643200
  10844  10843  10847     1   109.5600471 388.275200
  10844  10845  10848     1   110.2200475 386.601600
  10844  10863  10853     1   109.2900470 396.643200
  10845  10844  10846     1   109.5600471 388.275200
  10845  10849  10859     1   107.2600461 396.643200
  10846  10844  10863     1   109.8800469 414.216000
  10847  10843  10850     1   110.2600474 425.931200
  10848  10845  10849     1   109.4300470 427.604800
  10848  10845  10858     1   109.5800467 425.931200
  10851  10856  10857     1   107.2600461 396.643200
  10854  10851  10856     1   110.2600474 425.931200
  10854  10851  10855     1   108.4600466 328.025600
  10855  10851  10856     1   110.2600474 425.931200
  10860  10841  10861     1   110.2600474 425.931200
  10864  10865  10884     1   109.5600471 388.275200
  10864  10875  10878     1   109.5600471 388.275200
  10864  10875  10879     1   109.5600471 388.275200
  10865  10864  10866     1   109.5600471 388.275200
  10865  10867  10871     1   109.5600471 388.275200
  10865  10885  10886     1   107.2600461 396.643200
  10866  10864  10875     1   109.5600471 388.275200
  10866  10864  10882     1   109.7800468 425.094400
  10867  10865  10884     1   109.5600471 388.275200
  10867  10868  10870     1   109.5600471 388.275200
  10867  10874  10876     1   107.2600461 396.643200
  10868  10867  10871     1   109.5600471 388.275200
  10868  10869  10872     1   110.2200475 386.601600
  10868  10887  10877     1   109.2900470 396.643200
  10869  10868  10870     1   109.5600471 388.275200
  10869  10873  10883     1   107.2600461 396.643200
  10870  10868  10887     1   109.8800469 414.216000
  10871  10867  10874     1   110.2600474 425.931200
  10872  10869  10873     1   109.4300470 427.604800
  10872  10869  10882     1   109.5800467 425.931200
  10875  10880  10881     1   107.2600461 396.643200
  10878  10875  10880     1   110.2600474 425.931200
  10878  10875  10879     1   108.4600466 328.025600
  10879  10875  10880     1   110.2600474 425.931200
  10884  10865  10885     1   110.2600474 425.931200
  10889  10891  10892     1   108.8800464 416.726400
  10889  10891  10894     1   108.8800464 416.726400
  10890  10889  10891     1   117.6800502 383.254400
  10891  10893  10895     1   109.5600471 388.275200
  10891  10893  10896     1   109.5600471 388.275200
  10892  10891  10893     1   109.5600471 388.275200
  10892  10891  10894     1   108.4600466 328.025600
  10893  10897  10962     1   110.1100470 384.091200
  10893  10891  10894     1   109.5600471 388.275200
  10895  10893  10897     1   107.9000462 406.684800
  10895  10893  10896     1   108.4600466 328.025600
  10896  10893  10897     1   107.9000462 406.684800
  10897  10898  10907     1   107.9000462 406.684800
  10897  10898  10908     1   107.9000462 406.684800
  10897  10899  10900     1   107.9000462 406.684800
  10897  10899  10902     1   107.9000462 406.684800
  10898  10909  10910     1   109.8000471 387.438400
  10898  10909  10911     1   109.8000471 387.438400
  10898  10897  10962     1   110.1100470 384.091200
  10899  10901  10903     1   109.8000471 387.438400
  10899  10901  10904     1   109.8000471 387.438400
  10899  10897  10962     1   110.1100470 384.091200
  10900  10899  10901     1   109.5600471 388.275200
  10900  10899  10902     1   108.4600466 328.025600
  10901  10899  10902     1   109.5600471 388.275200
  10903  10901  10905     1   108.7700466 392.459200
  10903  10901  10904     1   107.5800459 329.699200
  10904  10901  10905     1   108.7700466 392.459200
  10905  10937  10927     1   119.3800509 410.868800
  10907  10898  10909     1   109.5600471 388.275200
  10907  10898  10908     1   108.4600466 328.025600
  10908  10898  10909     1   109.5600471 388.275200
  10910  10909  10912     1   108.7700466 392.459200
  10910  10909  10911     1   107.5800459 329.699200
  10911  10909  10912     1   108.7700466 392.459200
  10912  10961  10951     1   119.3800509 410.868800
  10914  10915  10934     1   109.5600471 388.275200
  10914  10925  10928     1   109.5600471 388.275200
  10914  10925  10929     1   109.5600471 388.275200
  10915  10917  10921     1   109.5600471 388.275200
  10915  10935  10936     1   107.2600461 396.643200
  10915  10914  10916     1   109.5600471 388.275200
  10916  10914  10925     1   109.5600471 388.275200
  10916  10914  10932     1   109.7800468 425.094400
  10917  10918  10920     1   109.5600471 388.275200
  10917  10924  10926     1   107.2600461 396.643200
  10917  10915  10934     1   109.5600471 388.275200
  10918  10919  10922     1   110.2200475 386.601600
  10918  10937  10927     1   109.2900470 396.643200
  10918  10917  10921     1   109.5600471 388.275200
  10919  10923  10933     1   107.2600461 396.643200
  10919  10918  10920     1   109.5600471 388.275200
  10920  10918  10937     1   109.8800469 414.216000
  10921  10917  10924     1   110.2600474 425.931200
  10922  10919  10923     1   109.4300470 427.604800
  10922  10919  10932     1   109.5800467 425.931200
  10925  10930  10931     1   107.2600461 396.643200
  10928  10925  10930     1   110.2600474 425.931200
  10928  10925  10929     1   108.4600466 328.025600
  10929  10925  10930     1   110.2600474 425.931200
  10934  10915  10935     1   110.2600474 425.931200
  10938  10939  10958     1   109.5600471 388.275200
  10938  10949  10952     1   109.5600471 388.275200
  10938  10949  10953     1   109.5600471 388.275200
  10939  10941  10945     1   109.5600471 388.275200
  10939  10959  10960     1   107.2600461 396.643200
  10939  10938  10940     1   109.5600471 388.275200
  10940  10938  10949     1   109.5600471 388.275200
  10940  10938  10956     1   109.7800468 425.094400
  10941  10942  10944     1   109.5600471 388.275200
  10941  10948  10950     1   107.2600461 396.643200
  10941  10939  10958     1   109.5600471 388.275200
  10942  10943  10946     1   110.2200475 386.601600
  10942  10961  10951     1   109.2900470 396.643200
  10942  10941  10945     1   109.5600471 388.275200
  10943  10947  10957     1   107.2600461 396.643200
  10943  10942  10944     1   109.5600471 388.275200
  10944  10942  10961     1   109.8800469 414.216000
  10945  10941  10948     1   110.2600474 425.931200
  10946  10943  10947     1   109.4300470 427.604800
  10946  10943  10956     1   109.5800467 425.931200
  10949  10954  10955     1   107.2600461 396.643200
  10952  10949  10954     1   110.2600474 425.931200
  10952  10949  10953     1   108.4600466 328.025600
  10953  10949  10954     1   110.2600474 425.931200
  10958  10939  10959     1   110.2600474 425.931200
  10963  10965  10966     1   108.8800464 416.726400
  10963  10965  10968     1   108.8800464 416.726400
  10964  10963  10965     1   117.6800502 383.254400
  10965  10967  10969     1   109.5600471 388.275200
  10965  10967  10970     1   109.5600471 388.275200
  10966  10965  10967     1   109.5600471 388.275200
  10966  10965  10968     1   108.4600466 328.025600
  10967  10965  10968     1   109.5600471 388.275200
  10967  10971  11036     1   110.1100470 384.091200
  10969  10967  10971     1   107.9000462 406.684800
  10969  10967  10970     1   108.4600466 328.025600
  10970  10967  10971     1   107.9000462 406.684800
  10971  10972  10981     1   107.9000462 406.684800
  10971  10972  10982     1   107.9000462 406.684800
  10971  10973  10974     1   107.9000462 406.684800
  10971  10973  10976     1   107.9000462 406.684800
  10972  10971  11036     1   110.1100470 384.091200
  10972  10983  10984     1   109.8000471 387.438400
  10972  10983  10985     1   109.8000471 387.438400
  10973  10971  11036     1   110.1100470 384.091200
  10973  10975  10977     1   109.8000471 387.438400
  10973  10975  10978     1   109.8000471 387.438400
  10974  10973  10975     1   109.5600471 388.275200
  10974  10973  10976     1   108.4600466 328.025600
  10975  10973  10976     1   109.5600471 388.275200
  10977  10975  10979     1   108.7700466 392.459200
  10977  10975  10978     1   107.5800459 329.699200
  10978  10975  10979     1   108.7700466 392.459200
  10979  11011  11001     1   119.3800509 410.868800
  10981  10972  10983     1   109.5600471 388.275200
  10981  10972  10982     1   108.4600466 328.025600
  10982  10972  10983     1   109.5600471 388.275200
  10984  10983  10986     1   108.7700466 392.459200
  10984  10983  10985     1   107.5800459 329.699200
  10985  10983  10986     1   108.7700466 392.459200
  10986  11035  11025     1   119.3800509 410.868800
  10988  10989  11008     1   109.5600471 388.275200
  10988  10999  11002     1   109.5600471 388.275200
  10988  10999  11003     1   109.5600471 388.275200
  10989  10988  10990     1   109.5600471 388.275200
  10989  10991  10995     1   109.5600471 388.275200
  10989  11009  11010     1   107.2600461 396.643200
  10990  10988  10999     1   109.5600471 388.275200
  10990  10988  11006     1   109.7800468 425.094400
  10991  10989  11008     1   109.5600471 388.275200
  10991  10992  10994     1   109.5600471 388.275200
  10991  10998  11000     1   107.2600461 396.643200
  10992  10991  10995     1   109.5600471 388.275200
  10992  10993  10996     1   110.2200475 386.601600
  10992  11011  11001     1   109.2900470 396.643200
  10993  10992  10994     1   109.5600471 388.275200
  10993  10997  11007     1   107.2600461 396.643200
  10994  10992  11011     1   109.8800469 414.216000
  10995  10991  10998     1   110.2600474 425.931200
  10996  10993  10997     1   109.4300470 427.604800
  10996  10993  11006     1   109.5800467 425.931200
  10999  11004  11005     1   107.2600461 396.643200
  11002  10999  11004     1   110.2600474 425.931200
  11002  10999  11003     1   108.4600466 328.025600
  11003  10999  11004     1   110.2600474 425.931200
  11008  10989  11009     1   110.2600474 425.931200
  11012  11013  11032     1   109.5600471 388.275200
  11012  11023  11026     1   109.5600471 388.275200
  11012  11023  11027     1   109.5600471 388.275200
  11013  11012  11014     1   109.5600471 388.275200
  11013  11015  11019     1   109.5600471 388.275200
  11013  11033  11034     1   107.2600461 396.643200
  11014  11012  11023     1   109.5600471 388.275200
  11014  11012  11030     1   109.7800468 425.094400
  11015  11013  11032     1   109.5600471 388.275200
  11015  11016  11018     1   109.5600471 388.275200
  11015  11022  11024     1   107.2600461 396.643200
  11016  11015  11019     1   109.5600471 388.275200
  11016  11017  11020     1   110.2200475 386.601600
  11016  11035  11025     1   109.2900470 396.643200
  11017  11016  11018     1   109.5600471 388.275200
  11017  11021  11031     1   107.2600461 396.643200
  11018  11016  11035     1   109.8800469 414.216000
  11019  11015  11022     1   110.2600474 425.931200
  11020  11017  11021     1   109.4300470 427.604800
  11020  11017  11030     1   109.5800467 425.931200
  11023  11028  11029     1   107.2600461 396.643200
  11026  11023  11028     1   110.2600474 425.931200
  11026  11023  11027     1   108.4600466 328.025600
  11027  11023  11028     1   110.2600474 425.931200
  11032  11013  11033     1   110.2600474 425.931200
  11037  11039  11040     1   108.8800464 416.726400
  11037  11039  11042     1   108.8800464 416.726400
  11038  11037  11039     1   117.6800502 383.254400
  11039  11041  11043     1   109.5600471 388.275200
  11039  11041  11044     1   109.5600471 388.275200
  11040  11039  11041     1   109.5600471 388.275200
  11040  11039  11042     1   108.4600466 328.025600
  11041  11045  11110     1   110.1100470 384.091200
  11041  11039  11042     1   109.5600471 388.275200
  11043  11041  11045     1   107.9000462 406.684800
  11043  11041  11044     1   108.4600466 328.025600
  11044  11041  11045     1   107.9000462 406.684800
  11045  11046  11055     1   107.9000462 406.684800
  11045  11046  11056     1   107.9000462 406.684800
  11045  11047  11048     1   107.9000462 406.684800
  11045  11047  11050     1   107.9000462 406.684800
  11046  11057  11058     1   109.8000471 387.438400
  11046  11057  11059     1   109.8000471 387.438400
  11046  11045  11110     1   110.1100470 384.091200
  11047  11049  11051     1   109.8000471 387.438400
  11047  11049  11052     1   109.8000471 387.438400
  11047  11045  11110     1   110.1100470 384.091200
  11048  11047  11049     1   109.5600471 388.275200
  11048  11047  11050     1   108.4600466 328.025600
  11049  11047  11050     1   109.5600471 388.275200
  11051  11049  11053     1   108.7700466 392.459200
  11051  11049  11052     1   107.5800459 329.699200
  11052  11049  11053     1   108.7700466 392.459200
  11053  11085  11075     1   119.3800509 410.868800
  11055  11046  11057     1   109.5600471 388.275200
  11055  11046  11056     1   108.4600466 328.025600
  11056  11046  11057     1   109.5600471 388.275200
  11058  11057  11060     1   108.7700466 392.459200
  11058  11057  11059     1   107.5800459 329.699200
  11059  11057  11060     1   108.7700466 392.459200
  11060  11109  11099     1   119.3800509 410.868800
  11062  11063  11082     1   109.5600471 388.275200
  11062  11073  11076     1   109.5600471 388.275200
  11062  11073  11077     1   109.5600471 388.275200
  11063  11065  11069     1   109.5600471 388.275200
  11063  11083  11084     1   107.2600461 396.643200
  11063  11062  11064     1   109.5600471 388.275200
  11064  11062  11073     1   109.5600471 388.275200
  11064  11062  11080     1   109.7800468 425.094400
  11065  11066  11068     1   109.5600471 388.275200
  11065  11072  11074     1   107.2600461 396.643200
  11065  11063  11082     1   109.5600471 388.275200
  11066  11067  11070     1   110.2200475 386.601600
  11066  11085  11075     1   109.2900470 396.643200
  11066  11065  11069     1   109.5600471 388.275200
  11067  11071  11081     1   107.2600461 396.643200
  11067  11066  11068     1   109.5600471 388.275200
  11068  11066  11085     1   109.8800469 414.216000
  11069  11065  11072     1   110.2600474 425.931200
  11070  11067  11071     1   109.4300470 427.604800
  11070  11067  11080     1   109.5800467 425.931200
  11073  11078  11079     1   107.2600461 396.643200
  11076  11073  11078     1   110.2600474 425.931200
  11076  11073  11077     1   108.4600466 328.025600
  11077  11073  11078     1   110.2600474 425.931200
  11082  11063  11083     1   110.2600474 425.931200
  11086  11087  11106     1   109.5600471 388.275200
  11086  11097  11100     1   109.5600471 388.275200
  11086  11097  11101     1   109.5600471 388.275200
  11087  11089  11093     1   109.5600471 388.275200
  11087  11107  11108     1   107.2600461 396.643200
  11087  11086  11088     1   109.5600471 388.275200
  11088  11086  11097     1   109.5600471 388.275200
  11088  11086  11104     1   109.7800468 425.094400
  11089  11090  11092     1   109.5600471 388.275200
  11089  11096  11098     1   107.2600461 396.643200
  11089  11087  11106     1   109.5600471 388.275200
  11090  11091  11094     1   110.2200475 386.601600
  11090  11109  11099     1   109.2900470 396.643200
  11090  11089  11093     1   109.5600471 388.275200
  11091  11095  11105     1   107.2600461 396.643200
  11091  11090  11092     1   109.5600471 388.275200
  11092  11090  11109     1   109.8800469 414.216000
  11093  11089  11096     1   110.2600474 425.931200
  11094  11091  11095     1   109.4300470 427.604800
  11094  11091  11104     1   109.5800467 425.931200
  11097  11102  11103     1   107.2600461 396.643200
  11100  11097  11102     1   110.2600474 425.931200
  11100  11097  11101     1   108.4600466 328.025600
  11101  11097  11102     1   110.2600474 425.931200
  11106  11087  11107     1   110.2600474 425.931200
  11111  11113  11114     1   108.8800464 416.726400
  11111  11113  11116     1   108.8800464 416.726400
  11112  11111  11113     1   117.6800502 383.254400
  11113  11115  11117     1   109.5600471 388.275200
  11113  11115  11118     1   109.5600471 388.275200
  11114  11113  11115     1   109.5600471 388.275200
  11114  11113  11116     1   108.4600466 328.025600
  11115  11113  11116     1   109.5600471 388.275200
  11115  11119  11184     1   110.1100470 384.091200
  11117  11115  11119     1   107.9000462 406.684800
  11117  11115  11118     1   108.4600466 328.025600
  11118  11115  11119     1   107.9000462 406.684800
  11119  11120  11129     1   107.9000462 406.684800
  11119  11120  11130     1   107.9000462 406.684800
  11119  11121  11122     1   107.9000462 406.684800
  11119  11121  11124     1   107.9000462 406.684800
  11120  11119  11184     1   110.1100470 384.091200
  11120  11131  11132     1   109.8000471 387.438400
  11120  11131  11133     1   109.8000471 387.438400
  11121  11119  11184     1   110.1100470 384.091200
  11121  11123  11125     1   109.8000471 387.438400
  11121  11123  11126     1   109.8000471 387.438400
  11122  11121  11123     1   109.5600471 388.275200
  11122  11121  11124     1   108.4600466 328.025600
  11123  11121  11124     1   109.5600471 388.275200
  11125  11123  11127     1   108.7700466 392.459200
  11125  11123  11126     1   107.5800459 329.699200
  11126  11123  11127     1   108.7700466 392.459200
  11127  11159  11149     1   119.3800509 410.868800
  11129  11120  11131     1   109.5600471 388.275200
  11129  11120  11130     1   108.4600466 328.025600
  11130  11120  11131     1   109.5600471 388.275200
  11132  11131  11134     1   108.7700466 392.459200
  11132  11131  11133     1   107.5800459 329.699200
  11133  11131  11134     1   108.7700466 392.459200
  11134  11183  11173     1   119.3800509 410.868800
  11136  11137  11156     1   109.5600471 388.275200
  11136  11147  11150     1   109.5600471 388.275200
  11136  11147  11151     1   109.5600471 388.275200
  11137  11136  11138     1   109.5600471 388.275200
  11137  11139  11143     1   109.5600471 388.275200
  11137  11157  11158     1   107.2600461 396.643200
  11138  11136  11147     1   109.5600471 388.275200
  11138  11136  11154     1   109.7800468 425.094400
  11139  11137  11156     1   109.5600471 388.275200
  11139  11140  11142     1   109.5600471 388.275200
  11139  11146  11148     1   107.2600461 396.643200
  11140  11139  11143     1   109.5600471 388.275200
  11140  11141  11144     1   110.2200475 386.601600
  11140  11159  11149     1   109.2900470 396.643200
  11141  11140  11142     1   109.5600471 388.275200
  11141  11145  11155     1   107.2600461 396.643200
  11142  11140  11159     1   109.8800469 414.216000
  11143  11139  11146     1   110.2600474 425.931200
  11144  11141  11145     1   109.4300470 427.604800
  11144  11141  11154     1   109.5800467 425.931200
  11147  11152  11153     1   107.2600461 396.643200
  11150  11147  11152     1   110.2600474 425.931200
  11150  11147  11151     1   108.4600466 328.025600
  11151  11147  11152     1   110.2600474 425.931200
  11156  11137  11157     1   110.2600474 425.931200
  11160  11161  11180     1   109.5600471 388.275200
  11160  11171  11174     1   109.5600471 388.275200
  11160  11171  11175     1   109.5600471 388.275200
  11161  11160  11162     1   109.5600471 388.275200
  11161  11163  11167     1   109.5600471 388.275200
  11161  11181  11182     1   107.2600461 396.643200
  11162  11160  11171     1   109.5600471 388.275200
  11162  11160  11178     1   109.7800468 425.094400
  11163  11161  11180     1   109.5600471 388.275200
  11163  11164  11166     1   109.5600471 388.275200
  11163  11170  11172     1   107.2600461 396.643200
  11164  11163  11167     1   109.5600471 388.275200
  11164  11165  11168     1   110.2200475 386.601600
  11164  11183  11173     1   109.2900470 396.643200
  11165  11164  11166     1   109.5600471 388.275200
  11165  11169  11179     1   107.2600461 396.643200
  11166  11164  11183     1   109.8800469 414.216000
  11167  11163  11170     1   110.2600474 425.931200
  11168  11165  11169     1   109.4300470 427.604800
  11168  11165  11178     1   109.5800467 425.931200
  11171  11176  11177     1   107.2600461 396.643200
  11174  11171  11176     1   110.2600474 425.931200
  11174  11171  11175     1   108.4600466 328.025600
  11175  11171  11176     1   110.2600474 425.931200
  11180  11161  11181     1   110.2600474 425.931200
  11185  11187  11188     1   108.8800464 416.726400
  11185  11187  11190     1   108.8800464 416.726400
  11186  11185  11187     1   117.6800502 383.254400
  11187  11189  11191     1   109.5600471 388.275200
  11187  11189  11192     1   109.5600471 388.275200
  11188  11187  11189     1   109.5600471 388.275200
  11188  11187  11190     1   108.4600466 328.025600
  11189  11193  11258     1   110.1100470 384.091200
  11189  11187  11190     1   109.5600471 388.275200
  11191  11189  11193     1   107.9000462 406.684800
  11191  11189  11192     1   108.4600466 328.025600
  11192  11189  11193     1   107.9000462 406.684800
  11193  11194  11203     1   107.9000462 406.684800
  11193  11194  11204     1   107.9000462 406.684800
  11193  11195  11196     1   107.9000462 406.684800
  11193  11195  11198     1   107.9000462 406.684800
  11194  11205  11206     1   109.8000471 387.438400
  11194  11205  11207     1   109.8000471 387.438400
  11194  11193  11258     1   110.1100470 384.091200
  11195  11197  11199     1   109.8000471 387.438400
  11195  11197  11200     1   109.8000471 387.438400
  11195  11193  11258     1   110.1100470 384.091200
  11196  11195  11197     1   109.5600471 388.275200
  11196  11195  11198     1   108.4600466 328.025600
  11197  11195  11198     1   109.5600471 388.275200
  11199  11197  11201     1   108.7700466 392.459200
  11199  11197  11200     1   107.5800459 329.699200
  11200  11197  11201     1   108.7700466 392.459200
  11201  11233  11223     1   119.3800509 410.868800
  11203  11194  11205     1   109.5600471 388.275200
  11203  11194  11204     1   108.4600466 328.025600
  11204  11194  11205     1   109.5600471 388.275200
  11206  11205  11208     1   108.7700466 392.459200
  11206  11205  11207     1   107.5800459 329.699200
  11207  11205  11208     1   108.7700466 392.459200
  11208  11257  11247     1   119.3800509 410.868800
  11210  11211  11230     1   109.5600471 388.275200
  11210  11221  11224     1   109.5600471 388.275200
  11210  11221  11225     1   109.5600471 388.275200
  11211  11213  11217     1   109.5600471 388.275200
  11211  11231  11232     1   107.2600461 396.643200
  11211  11210  11212     1   109.5600471 388.275200
  11212  11210  11221     1   109.5600471 388.275200
  11212  11210  11228     1   109.7800468 425.094400
  11213  11214  11216     1   109.5600471 388.275200
  11213  11220  11222     1   107.2600461 396.643200
  11213  11211  11230     1   109.5600471 388.275200
  11214  11215  11218     1   110.2200475 386.601600
  11214  11233  11223     1   109.2900470 396.643200
  11214  11213  11217     1   109.5600471 388.275200
  11215  11219  11229     1   107.2600461 396.643200
  11215  11214  11216     1   109.5600471 388.275200
  11216  11214  11233     1   109.8800469 414.216000
  11217  11213  11220     1   110.2600474 425.931200
  11218  11215  11219     1   109.4300470 427.604800
  11218  11215  11228     1   109.5800467 425.931200
  11221  11226  11227     1   107.2600461 396.643200
  11224  11221  11226     1   110.2600474 425.931200
  11224  11221  11225     1   108.4600466 328.025600
  11225  11221  11226     1   110.2600474 425.931200
  11230  11211  11231     1   110.2600474 425.931200
  11234  11235  11254     1   109.5600471 388.275200
  11234  11245  11248     1   109.5600471 388.275200
  11234  11245  11249     1   109.5600471 388.275200
  11235  11237  11241     1   109.5600471 388.275200
  11235  11255  11256     1   107.2600461 396.643200
  11235  11234  11236     1   109.5600471 388.275200
  11236  11234  11245     1   109.5600471 388.275200
  11236  11234  11252     1   109.7800468 425.094400
  11237  11238  11240     1   109.5600471 388.275200
  11237  11244  11246     1   107.2600461 396.643200
  11237  11235  11254     1   109.5600471 388.275200
  11238  11239  11242     1   110.2200475 386.601600
  11238  11257  11247     1   109.2900470 396.643200
  11238  11237  11241     1   109.5600471 388.275200
  11239  11243  11253     1   107.2600461 396.643200
  11239  11238  11240     1   109.5600471 388.275200
  11240  11238  11257     1   109.8800469 414.216000
  11241  11237  11244     1   110.2600474 425.931200
  11242  11239  11243     1   109.4300470 427.604800
  11242  11239  11252     1   109.5800467 425.931200
  11245  11250  11251     1   107.2600461 396.643200
  11248  11245  11250     1   110.2600474 425.931200
  11248  11245  11249     1   108.4600466 328.025600
  11249  11245  11250     1   110.2600474 425.931200
  11254  11235  11255     1   110.2600474 425.931200
  11259  11261  11262     1   108.8800464 416.726400
  11259  11261  11264     1   108.8800464 416.726400
  11260  11259  11261     1   117.6800502 383.254400
  11261  11263  11265     1   109.5600471 388.275200
  11261  11263  11266     1   109.5600471 388.275200
  11262  11261  11263     1   109.5600471 388.275200
  11262  11261  11264     1   108.4600466 328.025600
  11263  11261  11264     1   109.5600471 388.275200
  11263  11267  11332     1   110.1100470 384.091200
  11265  11263  11267     1   107.9000462 406.684800
  11265  11263  11266     1   108.4600466 328.025600
  11266  11263  11267     1   107.9000462 406.684800
  11267  11268  11277     1   107.9000462 406.684800
  11267  11268  11278     1   107.9000462 406.684800
  11267  11269  11270     1   107.9000462 406.684800
  11267  11269  11272     1   107.9000462 406.684800
  11268  11267  11332     1   110.1100470 384.091200
  11268  11279  11280     1   109.8000471 387.438400
  11268  11279  11281     1   109.8000471 387.438400
  11269  11267  11332     1   110.1100470 384.091200
  11269  11271  11273     1   109.8000471 387.438400
  11269  11271  11274     1   109.8000471 387.438400
  11270  11269  11271     1   109.5600471 388.275200
  11270  11269  11272     1   108.4600466 328.025600
  11271  11269  11272     1   109.5600471 388.275200
  11273  11271  11275     1   108.7700466 392.459200
  11273  11271  11274     1   107.5800459 329.699200
  11274  11271  11275     1   108.7700466 392.459200
  11275  11307  11297     1   119.3800509 410.868800
  11277  11268  11279     1   109.5600471 388.275200
  11277  11268  11278     1   108.4600466 328.025600
  11278  11268  11279     1   109.5600471 388.275200
  11280  11279  11282     1   108.7700466 392.459200
  11280  11279  11281     1   107.5800459 329.699200
  11281  11279  11282     1   108.7700466 392.459200
  11282  11331  11321     1   119.3800509 410.868800
  11284  11285  11304     1   109.5600471 388.275200
  11284  11295  11298     1   109.5600471 388.275200
  11284  11295  11299     1   109.5600471 388.275200
  11285  11284  11286     1   109.5600471 388.275200
  11285  11287  11291     1   109.5600471 388.275200
  11285  11305  11306     1   107.2600461 396.643200
  11286  11284  11295     1   109.5600471 388.275200
  11286  11284  11302     1   109.7800468 425.094400
  11287  11285  11304     1   109.5600471 388.275200
  11287  11288  11290     1   109.5600471 388.275200
  11287  11294  11296     1   107.2600461 396.643200
  11288  11287  11291     1   109.5600471 388.275200
  11288  11289  11292     1   110.2200475 386.601600
  11288  11307  11297     1   109.2900470 396.643200
  11289  11288  11290     1   109.5600471 388.275200
  11289  11293  11303     1   107.2600461 396.643200
  11290  11288  11307     1   109.8800469 414.216000
  11291  11287  11294     1   110.2600474 425.931200
  11292  11289  11293     1   109.4300470 427.604800
  11292  11289  11302     1   109.5800467 425.931200
  11295  11300  11301     1   107.2600461 396.643200
  11298  11295  11300     1   110.2600474 425.931200
  11298  11295  11299     1   108.4600466 328.025600
  11299  11295  11300     1   110.2600474 425.931200
  11304  11285  11305     1   110.2600474 425.931200
  11308  11309  11328     1   109.5600471 388.275200
  11308  11319  11322     1   109.5600471 388.275200
  11308  11319  11323     1   109.5600471 388.275200
  11309  11308  11310     1   109.5600471 388.275200
  11309  11311  11315     1   109.5600471 388.275200
  11309  11329  11330     1   107.2600461 396.643200
  11310  11308  11319     1   109.5600471 388.275200
  11310  11308  11326     1   109.7800468 425.094400
  11311  11309  11328     1   109.5600471 388.275200
  11311  11312  11314     1   109.5600471 388.275200
  11311  11318  11320     1   107.2600461 396.643200
  11312  11311  11315     1   109.5600471 388.275200
  11312  11313  11316     1   110.2200475 386.601600
  11312  11331  11321     1   109.2900470 396.643200
  11313  11312  11314     1   109.5600471 388.275200
  11313  11317  11327     1   107.2600461 396.643200
  11314  11312  11331     1   109.8800469 414.216000
  11315  11311  11318     1   110.2600474 425.931200
  11316  11313  11317     1   109.4300470 427.604800
  11316  11313  11326     1   109.5800467 425.931200
  11319  11324  11325     1   107.2600461 396.643200
  11322  11319  11324     1   110.2600474 425.931200
  11322  11319  11323     1   108.4600466 328.025600
  11323  11319  11324     1   110.2600474 425.931200
  11328  11309  11329     1   110.2600474 425.931200
  11333  11335  11336     1   108.8800464 416.726400
  11333  11335  11338     1   108.8800464 416.726400
  11334  11333  11335     1   117.6800502 383.254400
  11335  11337  11339     1   109.5600471 388.275200
  11335  11337  11340     1   109.5600471 388.275200
  11336  11335  11337     1   109.5600471 388.275200
  11336  11335  11338     1   108.4600466 328.025600
  11337  11341  11406     1   110.1100470 384.091200
  11337  11335  11338     1   109.5600471 388.275200
  11339  11337  11341     1   107.9000462 406.684800
  11339  11337  11340     1   108.4600466 328.025600
  11340  11337  11341     1   107.9000462 406.684800
  11341  11342  11351     1   107.9000462 406.684800
  11341  11342  11352     1   107.9000462 406.684800
  11341  11343  11344     1   107.9000462 406.684800
  11341  11343  11346     1   107.9000462 406.684800
  11342  11353  11354     1   109.8000471 387.438400
  11342  11353  11355     1   109.8000471 387.438400
  11342  11341  11406     1   110.1100470 384.091200
  11343  11345  11347     1   109.8000471 387.438400
  11343  11345  11348     1   109.8000471 387.438400
  11343  11341  11406     1   110.1100470 384.091200
  11344  11343  11345     1   109.5600471 388.275200
  11344  11343  11346     1   108.4600466 328.025600
  11345  11343  11346     1   109.5600471 388.275200
  11347  11345  11349     1   108.7700466 392.459200
  11347  11345  11348     1   107.5800459 329.699200
  11348  11345  11349     1   108.7700466 392.459200
  11349  11381  11371     1   119.3800509 410.868800
  11351  11342  11353     1   109.5600471 388.275200
  11351  11342  11352     1   108.4600466 328.025600
  11352  11342  11353     1   109.5600471 388.275200
  11354  11353  11356     1   108.7700466 392.459200
  11354  11353  11355     1   107.5800459 329.699200
  11355  11353  11356     1   108.7700466 392.459200
  11356  11405  11395     1   119.3800509 410.868800
  11358  11359  11378     1   109.5600471 388.275200
  11358  11369  11372     1   109.5600471 388.275200
  11358  11369  11373     1   109.5600471 388.275200
  11359  11361  11365     1   109.5600471 388.275200
  11359  11379  11380     1   107.2600461 396.643200
  11359  11358  11360     1   109.5600471 388.275200
  11360  11358  11369     1   109.5600471 388.275200
  11360  11358  11376     1   109.7800468 425.094400
  11361  11362  11364     1   109.5600471 388.275200
  11361  11368  11370     1   107.2600461 396.643200
  11361  11359  11378     1   109.5600471 388.275200
  11362  11363  11366     1   110.2200475 386.601600
  11362  11381  11371     1   109.2900470 396.643200
  11362  11361  11365     1   109.5600471 388.275200
  11363  11367  11377     1   107.2600461 396.643200
  11363  11362  11364     1   109.5600471 388.275200
  11364  11362  11381     1   109.8800469 414.216000
  11365  11361  11368     1   110.2600474 425.931200
  11366  11363  11367     1   109.4300470 427.604800
  11366  11363  11376     1   109.5800467 425.931200
  11369  11374  11375     1   107.2600461 396.643200
  11372  11369  11374     1   110.2600474 425.931200
  11372  11369  11373     1   108.4600466 328.025600
  11373  11369  11374     1   110.2600474 425.931200
  11378  11359  11379     1   110.2600474 425.931200
  11382  11383  11402     1   109.5600471 388.275200
  11382  11393  11396     1   109.5600471 388.275200
  11382  11393  11397     1   109.5600471 388.275200
  11383  11385  11389     1   109.5600471 388.275200
  11383  11403  11404     1   107.2600461 396.643200
  11383  11382  11384     1   109.5600471 388.275200
  11384  11382  11393     1   109.5600471 388.275200
  11384  11382  11400     1   109.7800468 425.094400
  11385  11386  11388     1   109.5600471 388.275200
  11385  11392  11394     1   107.2600461 396.643200
  11385  11383  11402     1   109.5600471 388.275200
  11386  11387  11390     1   110.2200475 386.601600
  11386  11405  11395     1   109.2900470 396.643200
  11386  11385  11389     1   109.5600471 388.275200
  11387  11391  11401     1   107.2600461 396.643200
  11387  11386  11388     1   109.5600471 388.275200
  11388  11386  11405     1   109.8800469 414.216000
  11389  11385  11392     1   110.2600474 425.931200
  11390  11387  11391     1   109.4300470 427.604800
  11390  11387  11400     1   109.5800467 425.931200
  11393  11398  11399     1   107.2600461 396.643200
  11396  11393  11398     1   110.2600474 425.931200
  11396  11393  11397     1   108.4600466 328.025600
  11397  11393  11398     1   110.2600474 425.931200
  11402  11383  11403     1   110.2600474 425.931200
  11407  11409  11410     1   108.8800464 416.726400
  11407  11409  11412     1   108.8800464 416.726400
  11408  11407  11409     1   117.6800502 383.254400
  11409  11411  11413     1   109.5600471 388.275200
  11409  11411  11414     1   109.5600471 388.275200
  11410  11409  11411     1   109.5600471 388.275200
  11410  11409  11412     1   108.4600466 328.025600
  11411  11409  11412     1   109.5600471 388.275200
  11411  11415  11480     1   110.1100470 384.091200
  11413  11411  11415     1   107.9000462 406.684800
  11413  11411  11414     1   108.4600466 328.025600
  11414  11411  11415     1   107.9000462 406.684800
  11415  11416  11425     1   107.9000462 406.684800
  11415  11416  11426     1   107.9000462 406.684800
  11415  11417  11418     1   107.9000462 406.684800
  11415  11417  11420     1   107.9000462 406.684800
  11416  11415  11480     1   110.1100470 384.091200
  11416  11427  11428     1   109.8000471 387.438400
  11416  11427  11429     1   109.8000471 387.438400
  11417  11415  11480     1   110.1100470 384.091200
  11417  11419  11421     1   109.8000471 387.438400
  11417  11419  11422     1   109.8000471 387.438400
  11418  11417  11419     1   109.5600471 388.275200
  11418  11417  11420     1   108.4600466 328.025600
  11419  11417  11420     1   109.5600471 388.275200
  11421  11419  11423     1   108.7700466 392.459200
  11421  11419  11422     1   107.5800459 329.699200
  11422  11419  11423     1   108.7700466 392.459200
  11423  11455  11445     1   119.3800509 410.868800
  11425  11416  11427     1   109.5600471 388.275200
  11425  11416  11426     1   108.4600466 328.025600
  11426  11416  11427     1   109.5600471 388.275200
  11428  11427  11430     1   108.7700466 392.459200
  11428  11427  11429     1   107.5800459 329.699200
  11429  11427  11430     1   108.7700466 392.459200
  11430  11479  11469     1   119.3800509 410.868800
  11432  11433  11452     1   109.5600471 388.275200
  11432  11443  11446     1   109.5600471 388.275200
  11432  11443  11447     1   109.5600471 388.275200
  11433  11432  11434     1   109.5600471 388.275200
  11433  11435  11439     1   109.5600471 388.275200
  11433  11453  11454     1   107.2600461 396.643200
  11434  11432  11443     1   109.5600471 388.275200
  11434  11432  11450     1   109.7800468 425.094400
  11435  11433  11452     1   109.5600471 388.275200
  11435  11436  11438     1   109.5600471 388.275200
  11435  11442  11444     1   107.2600461 396.643200
  11436  11435  11439     1   109.5600471 388.275200
  11436  11437  11440     1   110.2200475 386.601600
  11436  11455  11445     1   109.2900470 396.643200
  11437  11436  11438     1   109.5600471 388.275200
  11437  11441  11451     1   107.2600461 396.643200
  11438  11436  11455     1   109.8800469 414.216000
  11439  11435  11442     1   110.2600474 425.931200
  11440  11437  11441     1   109.4300470 427.604800
  11440  11437  11450     1   109.5800467 425.931200
  11443  11448  11449     1   107.2600461 396.643200
  11446  11443  11448     1   110.2600474 425.931200
  11446  11443  11447     1   108.4600466 328.025600
  11447  11443  11448     1   110.2600474 425.931200
  11452  11433  11453     1   110.2600474 425.931200
  11456  11457  11476     1   109.5600471 388.275200
  11456  11467  11470     1   109.5600471 388.275200
  11456  11467  11471     1   109.5600471 388.275200
  11457  11456  11458     1   109.5600471 388.275200
  11457  11459  11463     1   109.5600471 388.275200
  11457  11477  11478     1   107.2600461 396.643200
  11458  11456  11467     1   109.5600471 388.275200
  11458  11456  11474     1   109.7800468 425.094400
  11459  11457  11476     1   109.5600471 388.275200
  11459  11460  11462     1   109.5600471 388.275200
  11459  11466  11468     1   107.2600461 396.643200
  11460  11459  11463     1   109.5600471 388.275200
  11460  11461  11464     1   110.2200475 386.601600
  11460  11479  11469     1   109.2900470 396.643200
  11461  11460  11462     1   109.5600471 388.275200
  11461  11465  11475     1   107.2600461 396.643200
  11462  11460  11479     1   109.8800469 414.216000
  11463  11459  11466     1   110.2600474 425.931200
  11464  11461  11465     1   109.4300470 427.604800
  11464  11461  11474     1   109.5800467 425.931200
  11467  11472  11473     1   107.2600461 396.643200
  11470  11467  11472     1   110.2600474 425.931200
  11470  11467  11471     1   108.4600466 328.025600
  11471  11467  11472     1   110.2600474 425.931200
  11476  11457  11477     1   110.2600474 425.931200
  11481  11483  11484     1   108.8800464 416.726400
  11481  11483  11486     1   108.8800464 416.726400
  11482  11481  11483     1   117.6800502 383.254400
  11483  11485  11487     1   109.5600471 388.275200
  11483  11485  11488     1   109.5600471 388.275200
  11484  11483  11485     1   109.5600471 388.275200
  11484  11483  11486     1   108.4600466 328.025600
  11485  11489  11554     1   110.1100470 384.091200
  11485  11483  11486     1   109.5600471 388.275200
  11487  11485  11489     1   107.9000462 406.684800
  11487  11485  11488     1   108.4600466 328.025600
  11488  11485  11489     1   107.9000462 406.684800
  11489  11490  11499     1   107.9000462 406.684800
  11489  11490  11500     1   107.9000462 406.684800
  11489  11491  11492     1   107.9000462 406.684800
  11489  11491  11494     1   107.9000462 406.684800
  11490  11501  11502     1   109.8000471 387.438400
  11490  11501  11503     1   109.8000471 387.438400
  11490  11489  11554     1   110.1100470 384.091200
  11491  11493  11495     1   109.8000471 387.438400
  11491  11493  11496     1   109.8000471 387.438400
  11491  11489  11554     1   110.1100470 384.091200
  11492  11491  11493     1   109.5600471 388.275200
  11492  11491  11494     1   108.4600466 328.025600
  11493  11491  11494     1   109.5600471 388.275200
  11495  11493  11497     1   108.7700466 392.459200
  11495  11493  11496     1   107.5800459 329.699200
  11496  11493  11497     1   108.7700466 392.459200
  11497  11529  11519     1   119.3800509 410.868800
  11499  11490  11501     1   109.5600471 388.275200
  11499  11490  11500     1   108.4600466 328.025600
  11500  11490  11501     1   109.5600471 388.275200
  11502  11501  11504     1   108.7700466 392.459200
  11502  11501  11503     1   107.5800459 329.699200
  11503  11501  11504     1   108.7700466 392.459200
  11504  11553  11543     1   119.3800509 410.868800
  11506  11507  11526     1   109.5600471 388.275200
  11506  11517  11520     1   109.5600471 388.275200
  11506  11517  11521     1   109.5600471 388.275200
  11507  11509  11513     1   109.5600471 388.275200
  11507  11527  11528     1   107.2600461 396.643200
  11507  11506  11508     1   109.5600471 388.275200
  11508  11506  11517     1   109.5600471 388.275200
  11508  11506  11524     1   109.7800468 425.094400
  11509  11510  11512     1   109.5600471 388.275200
  11509  11516  11518     1   107.2600461 396.643200
  11509  11507  11526     1   109.5600471 388.275200
  11510  11511  11514     1   110.2200475 386.601600
  11510  11529  11519     1   109.2900470 396.643200
  11510  11509  11513     1   109.5600471 388.275200
  11511  11515  11525     1   107.2600461 396.643200
  11511  11510  11512     1   109.5600471 388.275200
  11512  11510  11529     1   109.8800469 414.216000
  11513  11509  11516     1   110.2600474 425.931200
  11514  11511  11515     1   109.4300470 427.604800
  11514  11511  11524     1   109.5800467 425.931200
  11517  11522  11523     1   107.2600461 396.643200
  11520  11517  11522     1   110.2600474 425.931200
  11520  11517  11521     1   108.4600466 328.025600
  11521  11517  11522     1   110.2600474 425.931200
  11526  11507  11527     1   110.2600474 425.931200
  11530  11531  11550     1   109.5600471 388.275200
  11530  11541  11544     1   109.5600471 388.275200
  11530  11541  11545     1   109.5600471 388.275200
  11531  11533  11537     1   109.5600471 388.275200
  11531  11551  11552     1   107.2600461 396.643200
  11531  11530  11532     1   109.5600471 388.275200
  11532  11530  11541     1   109.5600471 388.275200
  11532  11530  11548     1   109.7800468 425.094400
  11533  11534  11536     1   109.5600471 388.275200
  11533  11540  11542     1   107.2600461 396.643200
  11533  11531  11550     1   109.5600471 388.275200
  11534  11535  11538     1   110.2200475 386.601600
  11534  11553  11543     1   109.2900470 396.643200
  11534  11533  11537     1   109.5600471 388.275200
  11535  11539  11549     1   107.2600461 396.643200
  11535  11534  11536     1   109.5600471 388.275200
  11536  11534  11553     1   109.8800469 414.216000
  11537  11533  11540     1   110.2600474 425.931200
  11538  11535  11539     1   109.4300470 427.604800
  11538  11535  11548     1   109.5800467 425.931200
  11541  11546  11547     1   107.2600461 396.643200
  11544  11541  11546     1   110.2600474 425.931200
  11544  11541  11545     1   108.4600466 328.025600
  11545  11541  11546     1   110.2600474 425.931200
  11550  11531  11551     1   110.2600474 425.931200
  11555  11557  11558     1   108.8800464 416.726400
  11555  11557  11560     1   108.8800464 416.726400
  11556  11555  11557     1   117.6800502 383.254400
  11557  11559  11561     1   109.5600471 388.275200
  11557  11559  11562     1   109.5600471 388.275200
  11558  11557  11559     1   109.5600471 388.275200
  11558  11557  11560     1   108.4600466 328.025600
  11559  11557  11560     1   109.5600471 388.275200
  11559  11563  11628     1   110.1100470 384.091200
  11561  11559  11563     1   107.9000462 406.684800
  11561  11559  11562     1   108.4600466 328.025600
  11562  11559  11563     1   107.9000462 406.684800
  11563  11564  11573     1   107.9000462 406.684800
  11563  11564  11574     1   107.9000462 406.684800
  11563  11565  11566     1   107.9000462 406.684800
  11563  11565  11568     1   107.9000462 406.684800
  11564  11563  11628     1   110.1100470 384.091200
  11564  11575  11576     1   109.8000471 387.438400
  11564  11575  11577     1   109.8000471 387.438400
  11565  11563  11628     1   110.1100470 384.091200
  11565  11567  11569     1   109.8000471 387.438400
  11565  11567  11570     1   109.8000471 387.438400
  11566  11565  11567     1   109.5600471 388.275200
  11566  11565  11568     1   108.4600466 328.025600
  11567  11565  11568     1   109.5600471 388.275200
  11569  11567  11571     1   108.7700466 392.459200
  11569  11567  11570     1   107.5800459 329.699200
  11570  11567  11571     1   108.7700466 392.459200
  11571  11603  11593     1   119.3800509 410.868800
  11573  11564  11575     1   109.5600471 388.275200
  11573  11564  11574     1   108.4600466 328.025600
  11574  11564  11575     1   109.5600471 388.275200
  11576  11575  11578     1   108.7700466 392.459200
  11576  11575  11577     1   107.5800459 329.699200
  11577  11575  11578     1   108.7700466 392.459200
  11578  11627  11617     1   119.3800509 410.868800
  11580  11581  11600     1   109.5600471 388.275200
  11580  11591  11594     1   109.5600471 388.275200
  11580  11591  11595     1   109.5600471 388.275200
  11581  11580  11582     1   109.5600471 388.275200
  11581  11583  11587     1   109.5600471 388.275200
  11581  11601  11602     1   107.2600461 396.643200
  11582  11580  11591     1   109.5600471 388.275200
  11582  11580  11598     1   109.7800468 425.094400
  11583  11581  11600     1   109.5600471 388.275200
  11583  11584  11586     1   109.5600471 388.275200
  11583  11590  11592     1   107.2600461 396.643200
  11584  11583  11587     1   109.5600471 388.275200
  11584  11585  11588     1   110.2200475 386.601600
  11584  11603  11593     1   109.2900470 396.643200
  11585  11584  11586     1   109.5600471 388.275200
  11585  11589  11599     1   107.2600461 396.643200
  11586  11584  11603     1   109.8800469 414.216000
  11587  11583  11590     1   110.2600474 425.931200
  11588  11585  11589     1   109.4300470 427.604800
  11588  11585  11598     1   109.5800467 425.931200
  11591  11596  11597     1   107.2600461 396.643200
  11594  11591  11596     1   110.2600474 425.931200
  11594  11591  11595     1   108.4600466 328.025600
  11595  11591  11596     1   110.2600474 425.931200
  11600  11581  11601     1   110.2600474 425.931200
  11604  11605  11624     1   109.5600471 388.275200
  11604  11615  11618     1   109.5600471 388.275200
  11604  11615  11619     1   109.5600471 388.275200
  11605  11604  11606     1   109.5600471 388.275200
  11605  11607  11611     1   109.5600471 388.275200
  11605  11625  11626     1   107.2600461 396.643200
  11606  11604  11615     1   109.5600471 388.275200
  11606  11604  11622     1   109.7800468 425.094400
  11607  11605  11624     1   109.5600471 388.275200
  11607  11608  11610     1   109.5600471 388.275200
  11607  11614  11616     1   107.2600461 396.643200
  11608  11607  11611     1   109.5600471 388.275200
  11608  11609  11612     1   110.2200475 386.601600
  11608  11627  11617     1   109.2900470 396.643200
  11609  11608  11610     1   109.5600471 388.275200
  11609  11613  11623     1   107.2600461 396.643200
  11610  11608  11627     1   109.8800469 414.216000
  11611  11607  11614     1   110.2600474 425.931200
  11612  11609  11613     1   109.4300470 427.604800
  11612  11609  11622     1   109.5800467 425.931200
  11615  11620  11621     1   107.2600461 396.643200
  11618  11615  11620     1   110.2600474 425.931200
  11618  11615  11619     1   108.4600466 328.025600
  11619  11615  11620     1   110.2600474 425.931200
  11624  11605  11625     1   110.2600474 425.931200
  11629  11631  11632     1   108.8800464 416.726400
  11629  11631  11634     1   108.8800464 416.726400
  11630  11629  11631     1   117.6800502 383.254400
  11631  11633  11635     1   109.5600471 388.275200
  11631  11633  11636     1   109.5600471 388.275200
  11632  11631  11633     1   109.5600471 388.275200
  11632  11631  11634     1   108.4600466 328.025600
  11633  11637  11702     1   110.1100470 384.091200
  11633  11631  11634     1   109.5600471 388.275200
  11635  11633  11637     1   107.9000462 406.684800
  11635  11633  11636     1   108.4600466 328.025600
  11636  11633  11637     1   107.9000462 406.684800
  11637  11638  11647     1   107.9000462 406.684800
  11637  11638  11648     1   107.9000462 406.684800
  11637  11639  11640     1   107.9000462 406.684800
  11637  11639  11642     1   107.9000462 406.684800
  11638  11649  11650     1   109.8000471 387.438400
  11638  11649  11651     1   109.8000471 387.438400
  11638  11637  11702     1   110.1100470 384.091200
  11639  11641  11643     1   109.8000471 387.438400
  11639  11641  11644     1   109.8000471 387.438400
  11639  11637  11702     1   110.1100470 384.091200
  11640  11639  11641     1   109.5600471 388.275200
  11640  11639  11642     1   108.4600466 328.025600
  11641  11639  11642     1   109.5600471 388.275200
  11643  11641  11645     1   108.7700466 392.459200
  11643  11641  11644     1   107.5800459 329.699200
  11644  11641  11645     1   108.7700466 392.459200
  11645  11677  11667     1   119.3800509 410.868800
  11647  11638  11649     1   109.5600471 388.275200
  11647  11638  11648     1   108.4600466 328.025600
  11648  11638  11649     1   109.5600471 388.275200
  11650  11649  11652     1   108.7700466 392.459200
  11650  11649  11651     1   107.5800459 329.699200
  11651  11649  11652     1   108.7700466 392.459200
  11652  11701  11691     1   119.3800509 410.868800
  11654  11655  11674     1   109.5600471 388.275200
  11654  11665  11668     1   109.5600471 388.275200
  11654  11665  11669     1   109.5600471 388.275200
  11655  11657  11661     1   109.5600471 388.275200
  11655  11675  11676     1   107.2600461 396.643200
  11655  11654  11656     1   109.5600471 388.275200
  11656  11654  11665     1   109.5600471 388.275200
  11656  11654  11672     1   109.7800468 425.094400
  11657  11658  11660     1   109.5600471 388.275200
  11657  11664  11666     1   107.2600461 396.643200
  11657  11655  11674     1   109.5600471 388.275200
  11658  11659  11662     1   110.2200475 386.601600
  11658  11677  11667     1   109.2900470 396.643200
  11658  11657  11661     1   109.5600471 388.275200
  11659  11663  11673     1   107.2600461 396.643200
  11659  11658  11660     1   109.5600471 388.275200
  11660  11658  11677     1   109.8800469 414.216000
  11661  11657  11664     1   110.2600474 425.931200
  11662  11659  11663     1   109.4300470 427.604800
  11662  11659  11672     1   109.5800467 425.931200
  11665  11670  11671     1   107.2600461 396.643200
  11668  11665  11670     1   110.2600474 425.931200
  11668  11665  11669     1   108.4600466 328.025600
  11669  11665  11670     1   110.2600474 425.931200
  11674  11655  11675     1   110.2600474 425.931200
  11678  11679  11698     1   109.5600471 388.275200
  11678  11689  11692     1   109.5600471 388.275200
  11678  11689  11693     1   109.5600471 388.275200
  11679  11681  11685     1   109.5600471 388.275200
  11679  11699  11700     1   107.2600461 396.643200
  11679  11678  11680     1   109.5600471 388.275200
  11680  11678  11689     1   109.5600471 388.275200
  11680  11678  11696     1   109.7800468 425.094400
  11681  11682  11684     1   109.5600471 388.275200
  11681  11688  11690     1   107.2600461 396.643200
  11681  11679  11698     1   109.5600471 388.275200
  11682  11683  11686     1   110.2200475 386.601600
  11682  11701  11691     1   109.2900470 396.643200
  11682  11681  11685     1   109.5600471 388.275200
  11683  11687  11697     1   107.2600461 396.643200
  11683  11682  11684     1   109.5600471 388.275200
  11684  11682  11701     1   109.8800469 414.216000
  11685  11681  11688     1   110.2600474 425.931200
  11686  11683  11687     1   109.4300470 427.604800
  11686  11683  11696     1   109.5800467 425.931200
  11689  11694  11695     1   107.2600461 396.643200
  11692  11689  11694     1   110.2600474 425.931200
  11692  11689  11693     1   108.4600466 328.025600
  11693  11689  11694     1   110.2600474 425.931200
  11698  11679  11699     1   110.2600474 425.931200
  11703  11705  11706     1   108.8800464 416.726400
  11703  11705  11708     1   108.8800464 416.726400
  11704  11703  11705     1   117.6800502 383.254400
  11705  11707  11709     1   109.5600471 388.275200
  11705  11707  11710     1   109.5600471 388.275200
  11706  11705  11707     1   109.5600471 388.275200
  11706  11705  11708     1   108.4600466 328.025600
  11707  11705  11708     1   109.5600471 388.275200
  11707  11711  11776     1   110.1100470 384.091200
  11709  11707  11711     1   107.9000462 406.684800
  11709  11707  11710     1   108.4600466 328.025600
  11710  11707  11711     1   107.9000462 406.684800
  11711  11712  11721     1   107.9000462 406.684800
  11711  11712  11722     1   107.9000462 406.684800
  11711  11713  11714     1   107.9000462 406.684800
  11711  11713  11716     1   107.9000462 406.684800
  11712  11711  11776     1   110.1100470 384.091200
  11712  11723  11724     1   109.8000471 387.438400
  11712  11723  11725     1   109.8000471 387.438400
  11713  11711  11776     1   110.1100470 384.091200
  11713  11715  11717     1   109.8000471 387.438400
  11713  11715  11718     1   109.8000471 387.438400
  11714  11713  11715     1   109.5600471 388.275200
  11714  11713  11716     1   108.4600466 328.025600
  11715  11713  11716     1   109.5600471 388.275200
  11717  11715  11719     1   108.7700466 392.459200
  11717  11715  11718     1   107.5800459 329.699200
  11718  11715  11719     1   108.7700466 392.459200
  11719  11751  11741     1   119.3800509 410.868800
  11721  11712  11723     1   109.5600471 388.275200
  11721  11712  11722     1   108.4600466 328.025600
  11722  11712  11723     1   109.5600471 388.275200
  11724  11723  11726     1   108.7700466 392.459200
  11724  11723  11725     1   107.5800459 329.699200
  11725  11723  11726     1   108.7700466 392.459200
  11726  11775  11765     1   119.3800509 410.868800
  11728  11729  11748     1   109.5600471 388.275200
  11728  11739  11742     1   109.5600471 388.275200
  11728  11739  11743     1   109.5600471 388.275200
  11729  11728  11730     1   109.5600471 388.275200
  11729  11731  11735     1   109.5600471 388.275200
  11729  11749  11750     1   107.2600461 396.643200
  11730  11728  11739     1   109.5600471 388.275200
  11730  11728  11746     1   109.7800468 425.094400
  11731  11729  11748     1   109.5600471 388.275200
  11731  11732  11734     1   109.5600471 388.275200
  11731  11738  11740     1   107.2600461 396.643200
  11732  11731  11735     1   109.5600471 388.275200
  11732  11733  11736     1   110.2200475 386.601600
  11732  11751  11741     1   109.2900470 396.643200
  11733  11732  11734     1   109.5600471 388.275200
  11733  11737  11747     1   107.2600461 396.643200
  11734  11732  11751     1   109.8800469 414.216000
  11735  11731  11738     1   110.2600474 425.931200
  11736  11733  11737     1   109.4300470 427.604800
  11736  11733  11746     1   109.5800467 425.931200
  11739  11744  11745     1   107.2600461 396.643200
  11742  11739  11744     1   110.2600474 425.931200
  11742  11739  11743     1   108.4600466 328.025600
  11743  11739  11744     1   110.2600474 425.931200
  11748  11729  11749     1   110.2600474 425.931200
  11752  11753  11772     1   109.5600471 388.275200
  11752  11763  11766     1   109.5600471 388.275200
  11752  11763  11767     1   109.5600471 388.275200
  11753  11752  11754     1   109.5600471 388.275200
  11753  11755  11759     1   109.5600471 388.275200
  11753  11773  11774     1   107.2600461 396.643200
  11754  11752  11763     1   109.5600471 388.275200
  11754  11752  11770     1   109.7800468 425.094400
  11755  11753  11772     1   109.5600471 388.275200
  11755  11756  11758     1   109.5600471 388.275200
  11755  11762  11764     1   107.2600461 396.643200
  11756  11755  11759     1   109.5600471 388.275200
  11756  11757  11760     1   110.2200475 386.601600
  11756  11775  11765     1   109.2900470 396.643200
  11757  11756  11758     1   109.5600471 388.275200
  11757  11761  11771     1   107.2600461 396.643200
  11758  11756  11775     1   109.8800469 414.216000
  11759  11755  11762     1   110.2600474 425.931200
  11760  11757  11761     1   109.4300470 427.604800
  11760  11757  11770     1   109.5800467 425.931200
  11763  11768  11769     1   107.2600461 396.643200
  11766  11763  11768     1   110.2600474 425.931200
  11766  11763  11767     1   108.4600466 328.025600
  11767  11763  11768     1   110.2600474 425.931200
  11772  11753  11773     1   110.2600474 425.931200
  11777  11779  11780     1   108.8800464 416.726400
  11777  11779  11782     1   108.8800464 416.726400
  11778  11777  11779     1   117.6800502 383.254400
  11779  11781  11783     1   109.5600471 388.275200
  11779  11781  11784     1   109.5600471 388.275200
  11780  11779  11781     1   109.5600471 388.275200
  11780  11779  11782     1   108.4600466 328.025600
  11781  11785  11850     1   110.1100470 384.091200
  11781  11779  11782     1   109.5600471 388.275200
  11783  11781  11785     1   107.9000462 406.684800
  11783  11781  11784     1   108.4600466 328.025600
  11784  11781  11785     1   107.9000462 406.684800
  11785  11786  11795     1   107.9000462 406.684800
  11785  11786  11796     1   107.9000462 406.684800
  11785  11787  11788     1   107.9000462 406.684800
  11785  11787  11790     1   107.9000462 406.684800
  11786  11797  11798     1   109.8000471 387.438400
  11786  11797  11799     1   109.8000471 387.438400
  11786  11785  11850     1   110.1100470 384.091200
  11787  11789  11791     1   109.8000471 387.438400
  11787  11789  11792     1   109.8000471 387.438400
  11787  11785  11850     1   110.1100470 384.091200
  11788  11787  11789     1   109.5600471 388.275200
  11788  11787  11790     1   108.4600466 328.025600
  11789  11787  11790     1   109.5600471 388.275200
  11791  11789  11793     1   108.7700466 392.459200
  11791  11789  11792     1   107.5800459 329.699200
  11792  11789  11793     1   108.7700466 392.459200
  11793  11825  11815     1   119.3800509 410.868800
  11795  11786  11797     1   109.5600471 388.275200
  11795  11786  11796     1   108.4600466 328.025600
  11796  11786  11797     1   109.5600471 388.275200
  11798  11797  11800     1   108.7700466 392.459200
  11798  11797  11799     1   107.5800459 329.699200
  11799  11797  11800     1   108.7700466 392.459200
  11800  11849  11839     1   119.3800509 410.868800
  11802  11803  11822     1   109.5600471 388.275200
  11802  11813  11816     1   109.5600471 388.275200
  11802  11813  11817     1   109.5600471 388.275200
  11803  11805  11809     1   109.5600471 388.275200
  11803  11823  11824     1   107.2600461 396.643200
  11803  11802  11804     1   109.5600471 388.275200
  11804  11802  11813     1   109.5600471 388.275200
  11804  11802  11820     1   109.7800468 425.094400
  11805  11806  11808     1   109.5600471 388.275200
  11805  11812  11814     1   107.2600461 396.643200
  11805  11803  11822     1   109.5600471 388.275200
  11806  11807  11810     1   110.2200475 386.601600
  11806  11825  11815     1   109.2900470 396.643200
  11806  11805  11809     1   109.5600471 388.275200
  11807  11811  11821     1   107.2600461 396.643200
  11807  11806  11808     1   109.5600471 388.275200
  11808  11806  11825     1   109.8800469 414.216000
  11809  11805  11812     1   110.2600474 425.931200
  11810  11807  11811     1   109.4300470 427.604800
  11810  11807  11820     1   109.5800467 425.931200
  11813  11818  11819     1   107.2600461 396.643200
  11816  11813  11818     1   110.2600474 425.931200
  11816  11813  11817     1   108.4600466 328.025600
  11817  11813  11818     1   110.2600474 425.931200
  11822  11803  11823     1   110.2600474 425.931200
  11826  11827  11846     1   109.5600471 388.275200
  11826  11837  11840     1   109.5600471 388.275200
  11826  11837  11841     1   109.5600471 388.275200
  11827  11829  11833     1   109.5600471 388.275200
  11827  11847  11848     1   107.2600461 396.643200
  11827  11826  11828     1   109.5600471 388.275200
  11828  11826  11837     1   109.5600471 388.275200
  11828  11826  11844     1   109.7800468 425.094400
  11829  11830  11832     1   109.5600471 388.275200
  11829  11836  11838     1   107.2600461 396.643200
  11829  11827  11846     1   109.5600471 388.275200
  11830  11831  11834     1   110.2200475 386.601600
  11830  11849  11839     1   109.2900470 396.643200
  11830  11829  11833     1   109.5600471 388.275200
  11831  11835  11845     1   107.2600461 396.643200
  11831  11830  11832     1   109.5600471 388.275200
  11832  11830  11849     1   109.8800469 414.216000
  11833  11829  11836     1   110.2600474 425.931200
  11834  11831  11835     1   109.4300470 427.604800
  11834  11831  11844     1   109.5800467 425.931200
  11837  11842  11843     1   107.2600461 396.643200
  11840  11837  11842     1   110.2600474 425.931200
  11840  11837  11841     1   108.4600466 328.025600
  11841  11837  11842     1   110.2600474 425.931200
  11846  11827  11847     1   110.2600474 425.931200
  11851  11853  11854     1   108.8800464 416.726400
  11851  11853  11856     1   108.8800464 416.726400
  11852  11851  11853     1   117.6800502 383.254400
  11853  11855  11857     1   109.5600471 388.275200
  11853  11855  11858     1   109.5600471 388.275200
  11854  11853  11855     1   109.5600471 388.275200
  11854  11853  11856     1   108.4600466 328.025600
  11855  11853  11856     1   109.5600471 388.275200
  11855  11859  11924     1   110.1100470 384.091200
  11857  11855  11859     1   107.9000462 406.684800
  11857  11855  11858     1   108.4600466 328.025600
  11858  11855  11859     1   107.9000462 406.684800
  11859  11860  11869     1   107.9000462 406.684800
  11859  11860  11870     1   107.9000462 406.684800
  11859  11861  11862     1   107.9000462 406.684800
  11859  11861  11864     1   107.9000462 406.684800
  11860  11859  11924     1   110.1100470 384.091200
  11860  11871  11872     1   109.8000471 387.438400
  11860  11871  11873     1   109.8000471 387.438400
  11861  11859  11924     1   110.1100470 384.091200
  11861  11863  11865     1   109.8000471 387.438400
  11861  11863  11866     1   109.8000471 387.438400
  11862  11861  11863     1   109.5600471 388.275200
  11862  11861  11864     1   108.4600466 328.025600
  11863  11861  11864     1   109.5600471 388.275200
  11865  11863  11867     1   108.7700466 392.459200
  11865  11863  11866     1   107.5800459 329.699200
  11866  11863  11867     1   108.7700466 392.459200
  11867  11899  11889     1   119.3800509 410.868800
  11869  11860  11871     1   109.5600471 388.275200
  11869  11860  11870     1   108.4600466 328.025600
  11870  11860  11871     1   109.5600471 388.275200
  11872  11871  11874     1   108.7700466 392.459200
  11872  11871  11873     1   107.5800459 329.699200
  11873  11871  11874     1   108.7700466 392.459200
  11874  11923  11913     1   119.3800509 410.868800
  11876  11877  11896     1   109.5600471 388.275200
  11876  11887  11890     1   109.5600471 388.275200
  11876  11887  11891     1   109.5600471 388.275200
  11877  11876  11878     1   109.5600471 388.275200
  11877  11879  11883     1   109.5600471 388.275200
  11877  11897  11898     1   107.2600461 396.643200
  11878  11876  11887     1   109.5600471 388.275200
  11878  11876  11894     1   109.7800468 425.094400
  11879  11877  11896     1   109.5600471 388.275200
  11879  11880  11882     1   109.5600471 388.275200
  11879  11886  11888     1   107.2600461 396.643200
  11880  11879  11883     1   109.5600471 388.275200
  11880  11881  11884     1   110.2200475 386.601600
  11880  11899  11889     1   109.2900470 396.643200
  11881  11880  11882     1   109.5600471 388.275200
  11881  11885  11895     1   107.2600461 396.643200
  11882  11880  11899     1   109.8800469 414.216000
  11883  11879  11886     1   110.2600474 425.931200
  11884  11881  11885     1   109.4300470 427.604800
  11884  11881  11894     1   109.5800467 425.931200
  11887  11892  11893     1   107.2600461 396.643200
  11890  11887  11892     1   110.2600474 425.931200
  11890  11887  11891     1   108.4600466 328.025600
  11891  11887  11892     1   110.2600474 425.931200
  11896  11877  11897     1   110.2600474 425.931200
  11900  11901  11920     1   109.5600471 388.275200
  11900  11911  11914     1   109.5600471 388.275200
  11900  11911  11915     1   109.5600471 388.275200
  11901  11900  11902     1   109.5600471 388.275200
  11901  11903  11907     1   109.5600471 388.275200
  11901  11921  11922     1   107.2600461 396.643200
  11902  11900  11911     1   109.5600471 388.275200
  11902  11900  11918     1   109.7800468 425.094400
  11903  11901  11920     1   109.5600471 388.275200
  11903  11904  11906     1   109.5600471 388.275200
  11903  11910  11912     1   107.2600461 396.643200
  11904  11903  11907     1   109.5600471 388.275200
  11904  11905  11908     1   110.2200475 386.601600
  11904  11923  11913     1   109.2900470 396.643200
  11905  11904  11906     1   109.5600471 388.275200
  11905  11909  11919     1   107.2600461 396.643200
  11906  11904  11923     1   109.8800469 414.216000
  11907  11903  11910     1   110.2600474 425.931200
  11908  11905  11909     1   109.4300470 427.604800
  11908  11905  11918     1   109.5800467 425.931200
  11911  11916  11917     1   107.2600461 396.643200
  11914  11911  11916     1   110.2600474 425.931200
  11914  11911  11915     1   108.4600466 328.025600
  11915  11911  11916     1   110.2600474 425.931200
  11920  11901  11921     1   110.2600474 425.931200
  11925  11927  11928     1   108.8800464 416.726400
  11925  11927  11930     1   108.8800464 416.726400
  11926  11925  11927     1   117.6800502 383.254400
  11927  11929  11931     1   109.5600471 388.275200
  11927  11929  11932     1   109.5600471 388.275200
  11928  11927  11929     1   109.5600471 388.275200
  11928  11927  11930     1   108.4600466 328.025600
  11929  11933  11998     1   110.1100470 384.091200
  11929  11927  11930     1   109.5600471 388.275200
  11931  11929  11933     1   107.9000462 406.684800
  11931  11929  11932     1   108.4600466 328.025600
  11932  11929  11933     1   107.9000462 406.684800
  11933  11934  11943     1   107.9000462 406.684800
  11933  11934  11944     1   107.9000462 406.684800
  11933  11935  11936     1   107.9000462 406.684800
  11933  11935  11938     1   107.9000462 406.684800
  11934  11945  11946     1   109.8000471 387.438400
  11934  11945  11947     1   109.8000471 387.438400
  11934  11933  11998     1   110.1100470 384.091200
  11935  11937  11939     1   109.8000471 387.438400
  11935  11937  11940     1   109.8000471 387.438400
  11935  11933  11998     1   110.1100470 384.091200
  11936  11935  11937     1   109.5600471 388.275200
  11936  11935  11938     1   108.4600466 328.025600
  11937  11935  11938     1   109.5600471 388.275200
  11939  11937  11941     1   108.7700466 392.459200
  11939  11937  11940     1   107.5800459 329.699200
  11940  11937  11941     1   108.7700466 392.459200
  11941  11973  11963     1   119.3800509 410.868800
  11943  11934  11945     1   109.5600471 388.275200
  11943  11934  11944     1   108.4600466 328.025600
  11944  11934  11945     1   109.5600471 388.275200
  11946  11945  11948     1   108.7700466 392.459200
  11946  11945  11947     1   107.5800459 329.699200
  11947  11945  11948     1   108.7700466 392.459200
  11948  11997  11987     1   119.3800509 410.868800
  11950  11951  11970     1   109.5600471 388.275200
  11950  11961  11964     1   109.5600471 388.275200
  11950  11961  11965     1   109.5600471 388.275200
  11951  11953  11957     1   109.5600471 388.275200
  11951  11971  11972     1   107.2600461 396.643200
  11951  11950  11952     1   109.5600471 388.275200
  11952  11950  11961     1   109.5600471 388.275200
  11952  11950  11968     1   109.7800468 425.094400
  11953  11954  11956     1   109.5600471 388.275200
  11953  11960  11962     1   107.2600461 396.643200
  11953  11951  11970     1   109.5600471 388.275200
  11954  11955  11958     1   110.2200475 386.601600
  11954  11973  11963     1   109.2900470 396.643200
  11954  11953  11957     1   109.5600471 388.275200
  11955  11959  11969     1   107.2600461 396.643200
  11955  11954  11956     1   109.5600471 388.275200
  11956  11954  11973     1   109.8800469 414.216000
  11957  11953  11960     1   110.2600474 425.931200
  11958  11955  11959     1   109.4300470 427.604800
  11958  11955  11968     1   109.5800467 425.931200
  11961  11966  11967     1   107.2600461 396.643200
  11964  11961  11966     1   110.2600474 425.931200
  11964  11961  11965     1   108.4600466 328.025600
  11965  11961  11966     1   110.2600474 425.931200
  11970  11951  11971     1   110.2600474 425.931200
  11974  11975  11994     1   109.5600471 388.275200
  11974  11985  11988     1   109.5600471 388.275200
  11974  11985  11989     1   109.5600471 388.275200
  11975  11977  11981     1   109.5600471 388.275200
  11975  11995  11996     1   107.2600461 396.643200
  11975  11974  11976     1   109.5600471 388.275200
  11976  11974  11985     1   109.5600471 388.275200
  11976  11974  11992     1   109.7800468 425.094400
  11977  11978  11980     1   109.5600471 388.275200
  11977  11984  11986     1   107.2600461 396.643200
  11977  11975  11994     1   109.5600471 388.275200
  11978  11979  11982     1   110.2200475 386.601600
  11978  11997  11987     1   109.2900470 396.643200
  11978  11977  11981     1   109.5600471 388.275200
  11979  11983  11993     1   107.2600461 396.643200
  11979  11978  11980     1   109.5600471 388.275200
  11980  11978  11997     1   109.8800469 414.216000
  11981  11977  11984     1   110.2600474 425.931200
  11982  11979  11983     1   109.4300470 427.604800
  11982  11979  11992     1   109.5800467 425.931200
  11985  11990  11991     1   107.2600461 396.643200
  11988  11985  11990     1   110.2600474 425.931200
  11988  11985  11989     1   108.4600466 328.025600
  11989  11985  11990     1   110.2600474 425.931200
  11994  11975  11995     1   110.2600474 425.931200
  11999  12001  12002     1   108.8800464 416.726400
  11999  12001  12004     1   108.8800464 416.726400
  12000  11999  12001     1   117.6800502 383.254400
  12001  12003  12005     1   109.5600471 388.275200
  12001  12003  12006     1   109.5600471 388.275200
  12002  12001  12003     1   109.5600471 388.275200
  12002  12001  12004     1   108.4600466 328.025600
  12003  12001  12004     1   109.5600471 388.275200
  12003  12007  12072     1   110.1100470 384.091200
  12005  12003  12007     1   107.9000462 406.684800
  12005  12003  12006     1   108.4600466 328.025600
  12006  12003  12007     1   107.9000462 406.684800
  12007  12008  12017     1   107.9000462 406.684800
  12007  12008  12018     1   107.9000462 406.684800
  12007  12009  12010     1   107.9000462 406.684800
  12007  12009  12012     1   107.9000462 406.684800
  12008  12007  12072     1   110.1100470 384.091200
  12008  12019  12020     1   109.8000471 387.438400
  12008  12019  12021     1   109.8000471 387.438400
  12009  12007  12072     1   110.1100470 384.091200
  12009  12011  12013     1   109.8000471 387.438400
  12009  12011  12014     1   109.8000471 387.438400
  12010  12009  12011     1   109.5600471 388.275200
  12010  12009  12012     1   108.4600466 328.025600
  12011  12009  12012     1   109.5600471 388.275200
  12013  12011  12015     1   108.7700466 392.459200
  12013  12011  12014     1   107.5800459 329.699200
  12014  12011  12015     1   108.7700466 392.459200
  12015  12047  12037     1   119.3800509 410.868800
  12017  12008  12019     1   109.5600471 388.275200
  12017  12008  12018     1   108.4600466 328.025600
  12018  12008  12019     1   109.5600471 388.275200
  12020  12019  12022     1   108.7700466 392.459200
  12020  12019  12021     1   107.5800459 329.699200
  12021  12019  12022     1   108.7700466 392.459200
  12022  12071  12061     1   119.3800509 410.868800
  12024  12025  12044     1   109.5600471 388.275200
  12024  12035  12038     1   109.5600471 388.275200
  12024  12035  12039     1   109.5600471 388.275200
  12025  12024  12026     1   109.5600471 388.275200
  12025  12027  12031     1   109.5600471 388.275200
  12025  12045  12046     1   107.2600461 396.643200
  12026  12024  12035     1   109.5600471 388.275200
  12026  12024  12042     1   109.7800468 425.094400
  12027  12025  12044     1   109.5600471 388.275200
  12027  12028  12030     1   109.5600471 388.275200
  12027  12034  12036     1   107.2600461 396.643200
  12028  12027  12031     1   109.5600471 388.275200
  12028  12029  12032     1   110.2200475 386.601600
  12028  12047  12037     1   109.2900470 396.643200
  12029  12028  12030     1   109.5600471 388.275200
  12029  12033  12043     1   107.2600461 396.643200
  12030  12028  12047     1   109.8800469 414.216000
  12031  12027  12034     1   110.2600474 425.931200
  12032  12029  12033     1   109.4300470 427.604800
  12032  12029  12042     1   109.5800467 425.931200
  12035  12040  12041     1   107.2600461 396.643200
  12038  12035  12040     1   110.2600474 425.931200
  12038  12035  12039     1   108.4600466 328.025600
  12039  12035  12040     1   110.2600474 425.931200
  12044  12025  12045     1   110.2600474 425.931200
  12048  12049  12068     1   109.5600471 388.275200
  12048  12059  12062     1   109.5600471 388.275200
  12048  12059  12063     1   109.5600471 388.275200
  12049  12048  12050     1   109.5600471 388.275200
  12049  12051  12055     1   109.5600471 388.275200
  12049  12069  12070     1   107.2600461 396.643200
  12050  12048  12059     1   109.5600471 388.275200
  12050  12048  12066     1   109.7800468 425.094400
  12051  12049  12068     1   109.5600471 388.275200
  12051  12052  12054     1   109.5600471 388.275200
  12051  12058  12060     1   107.2600461 396.643200
  12052  12051  12055     1   109.5600471 388.275200
  12052  12053  12056     1   110.2200475 386.601600
  12052  12071  12061     1   109.2900470 396.643200
  12053  12052  12054     1   109.5600471 388.275200
  12053  12057  12067     1   107.2600461 396.643200
  12054  12052  12071     1   109.8800469 414.216000
  12055  12051  12058     1   110.2600474 425.931200
  12056  12053  12057     1   109.4300470 427.604800
  12056  12053  12066     1   109.5800467 425.931200
  12059  12064  12065     1   107.2600461 396.643200
  12062  12059  12064     1   110.2600474 425.931200
  12062  12059  12063     1   108.4600466 328.025600
  12063  12059  12064     1   110.2600474 425.931200
  12068  12049  12069     1   110.2600474 425.931200
  12073  12075  12076     1   108.8800464 416.726400
  12073  12075  12078     1   108.8800464 416.726400
  12074  12073  12075     1   117.6800502 383.254400
  12075  12077  12079     1   109.5600471 388.275200
  12075  12077  12080     1   109.5600471 388.275200
  12076  12075  12077     1   109.5600471 388.275200
  12076  12075  12078     1   108.4600466 328.025600
  12077  12081  12146     1   110.1100470 384.091200
  12077  12075  12078     1   109.5600471 388.275200
  12079  12077  12081     1   107.9000462 406.684800
  12079  12077  12080     1   108.4600466 328.025600
  12080  12077  12081     1   107.9000462 406.684800
  12081  12082  12091     1   107.9000462 406.684800
  12081  12082  12092     1   107.9000462 406.684800
  12081  12083  12084     1   107.9000462 406.684800
  12081  12083  12086     1   107.9000462 406.684800
  12082  12093  12094     1   109.8000471 387.438400
  12082  12093  12095     1   109.8000471 387.438400
  12082  12081  12146     1   110.1100470 384.091200
  12083  12085  12087     1   109.8000471 387.438400
  12083  12085  12088     1   109.8000471 387.438400
  12083  12081  12146     1   110.1100470 384.091200
  12084  12083  12085     1   109.5600471 388.275200
  12084  12083  12086     1   108.4600466 328.025600
  12085  12083  12086     1   109.5600471 388.275200
  12087  12085  12089     1   108.7700466 392.459200
  12087  12085  12088     1   107.5800459 329.699200
  12088  12085  12089     1   108.7700466 392.459200
  12089  12121  12111     1   119.3800509 410.868800
  12091  12082  12093     1   109.5600471 388.275200
  12091  12082  12092     1   108.4600466 328.025600
  12092  12082  12093     1   109.5600471 388.275200
  12094  12093  12096     1   108.7700466 392.459200
  12094  12093  12095     1   107.5800459 329.699200
  12095  12093  12096     1   108.7700466 392.459200
  12096  12145  12135     1   119.3800509 410.868800
  12098  12099  12118     1   109.5600471 388.275200
  12098  12109  12112     1   109.5600471 388.275200
  12098  12109  12113     1   109.5600471 388.275200
  12099  12101  12105     1   109.5600471 388.275200
  12099  12119  12120     1   107.2600461 396.643200
  12099  12098  12100     1   109.5600471 388.275200
  12100  12098  12109     1   109.5600471 388.275200
  12100  12098  12116     1   109.7800468 425.094400
  12101  12102  12104     1   109.5600471 388.275200
  12101  12108  12110     1   107.2600461 396.643200
  12101  12099  12118     1   109.5600471 388.275200
  12102  12103  12106     1   110.2200475 386.601600
  12102  12121  12111     1   109.2900470 396.643200
  12102  12101  12105     1   109.5600471 388.275200
  12103  12107  12117     1   107.2600461 396.643200
  12103  12102  12104     1   109.5600471 388.275200
  12104  12102  12121     1   109.8800469 414.216000
  12105  12101  12108     1   110.2600474 425.931200
  12106  12103  12107     1   109.4300470 427.604800
  12106  12103  12116     1   109.5800467 425.931200
  12109  12114  12115     1   107.2600461 396.643200
  12112  12109  12114     1   110.2600474 425.931200
  12112  12109  12113     1   108.4600466 328.025600
  12113  12109  12114     1   110.2600474 425.931200
  12118  12099  12119     1   110.2600474 425.931200
  12122  12123  12142     1   109.5600471 388.275200
  12122  12133  12136     1   109.5600471 388.275200
  12122  12133  12137     1   109.5600471 388.275200
  12123  12125  12129     1   109.5600471 388.275200
  12123  12143  12144     1   107.2600461 396.643200
  12123  12122  12124     1   109.5600471 388.275200
  12124  12122  12133     1   109.5600471 388.275200
  12124  12122  12140     1   109.7800468 425.094400
  12125  12126  12128     1   109.5600471 388.275200
  12125  12132  12134     1   107.2600461 396.643200
  12125  12123  12142     1   109.5600471 388.275200
  12126  12127  12130     1   110.2200475 386.601600
  12126  12145  12135     1   109.2900470 396.643200
  12126  12125  12129     1   109.5600471 388.275200
  12127  12131  12141     1   107.2600461 396.643200
  12127  12126  12128     1   109.5600471 388.275200
  12128  12126  12145     1   109.8800469 414.216000
  12129  12125  12132     1   110.2600474 425.931200
  12130  12127  12131     1   109.4300470 427.604800
  12130  12127  12140     1   109.5800467 425.931200
  12133  12138  12139     1   107.2600461 396.643200
  12136  12133  12138     1   110.2600474 425.931200
  12136  12133  12137     1   108.4600466 328.025600
  12137  12133  12138     1   110.2600474 425.931200
  12142  12123  12143     1   110.2600474 425.931200
  12147  12149  12150     1   108.8800464 416.726400
  12147  12149  12152     1   108.8800464 416.726400
  12148  12147  12149     1   117.6800502 383.254400
  12149  12151  12153     1   109.5600471 388.275200
  12149  12151  12154     1   109.5600471 388.275200
  12150  12149  12151     1   109.5600471 388.275200
  12150  12149  12152     1   108.4600466 328.025600
  12151  12149  12152     1   109.5600471 388.275200
  12151  12155  12220     1   110.1100470 384.091200
  12153  12151  12155     1   107.9000462 406.684800
  12153  12151  12154     1   108.4600466 328.025600
  12154  12151  12155     1   107.9000462 406.684800
  12155  12156  12165     1   107.9000462 406.684800
  12155  12156  12166     1   107.9000462 406.684800
  12155  12157  12158     1   107.9000462 406.684800
  12155  12157  12160     1   107.9000462 406.684800
  12156  12155  12220     1   110.1100470 384.091200
  12156  12167  12168     1   109.8000471 387.438400
  12156  12167  12169     1   109.8000471 387.438400
  12157  12155  12220     1   110.1100470 384.091200
  12157  12159  12161     1   109.8000471 387.438400
  12157  12159  12162     1   109.8000471 387.438400
  12158  12157  12159     1   109.5600471 388.275200
  12158  12157  12160     1   108.4600466 328.025600
  12159  12157  12160     1   109.5600471 388.275200
  12161  12159  12163     1   108.7700466 392.459200
  12161  12159  12162     1   107.5800459 329.699200
  12162  12159  12163     1   108.7700466 392.459200
  12163  12195  12185     1   119.3800509 410.868800
  12165  12156  12167     1   109.5600471 388.275200
  12165  12156  12166     1   108.4600466 328.025600
  12166  12156  12167     1   109.5600471 388.275200
  12168  12167  12170     1   108.7700466 392.459200
  12168  12167  12169     1   107.5800459 329.699200
  12169  12167  12170     1   108.7700466 392.459200
  12170  12219  12209     1   119.3800509 410.868800
  12172  12173  12192     1   109.5600471 388.275200
  12172  12183  12186     1   109.5600471 388.275200
  12172  12183  12187     1   109.5600471 388.275200
  12173  12172  12174     1   109.5600471 388.275200
  12173  12175  12179     1   109.5600471 388.275200
  12173  12193  12194     1   107.2600461 396.643200
  12174  12172  12183     1   109.5600471 388.275200
  12174  12172  12190     1   109.7800468 425.094400
  12175  12173  12192     1   109.5600471 388.275200
  12175  12176  12178     1   109.5600471 388.275200
  12175  12182  12184     1   107.2600461 396.643200
  12176  12175  12179     1   109.5600471 388.275200
  12176  12177  12180     1   110.2200475 386.601600
  12176  12195  12185     1   109.2900470 396.643200
  12177  12176  12178     1   109.5600471 388.275200
  12177  12181  12191     1   107.2600461 396.643200
  12178  12176  12195     1   109.8800469 414.216000
  12179  12175  12182     1   110.2600474 425.931200
  12180  12177  12181     1   109.4300470 427.604800
  12180  12177  12190     1   109.5800467 425.931200
  12183  12188  12189     1   107.2600461 396.643200
  12186  12183  12188     1   110.2600474 425.931200
  12186  12183  12187     1   108.4600466 328.025600
  12187  12183  12188     1   110.2600474 425.931200
  12192  12173  12193     1   110.2600474 425.931200
  12196  12197  12216     1   109.5600471 388.275200
  12196  12207  12210     1   109.5600471 388.275200
  12196  12207  12211     1   109.5600471 388.275200
  12197  12196  12198     1   109.5600471 388.275200
  12197  12199  12203     1   109.5600471 388.275200
  12197  12217  12218     1   107.2600461 396.643200
  12198  12196  12207     1   109.5600471 388.275200
  12198  12196  12214     1   109.7800468 425.094400
  12199  12197  12216     1   109.5600471 388.275200
  12199  12200  12202     1   109.5600471 388.275200
  12199  12206  12208     1   107.2600461 396.643200
  12200  12199  12203     1   109.5600471 388.275200
  12200  12201  12204     1   110.2200475 386.601600
  12200  12219  12209     1   109.2900470 396.643200
  12201  12200  12202     1   109.5600471 388.275200
  12201  12205  12215     1   107.2600461 396.643200
  12202  12200  12219     1   109.8800469 414.216000
  12203  12199  12206     1   110.2600474 425.931200
  12204  12201  12205     1   109.4300470 427.604800
  12204  12201  12214     1   109.5800467 425.931200
  12207  12212  12213     1   107.2600461 396.643200
  12210  12207  12212     1   110.2600474 425.931200
  12210  12207  12211     1   108.4600466 328.025600
  12211  12207  12212     1   110.2600474 425.931200
  12216  12197  12217     1   110.2600474 425.931200
  12221  12223  12224     1   108.8800464 416.726400
  12221  12223  12226     1   108.8800464 416.726400
  12222  12221  12223     1   117.6800502 383.254400
  12223  12225  12227     1   109.5600471 388.275200
  12223  12225  12228     1   109.5600471 388.275200
  12224  12223  12225     1   109.5600471 388.275200
  12224  12223  12226     1   108.4600466 328.025600
  12225  12229  12294     1   110.1100470 384.091200
  12225  12223  12226     1   109.5600471 388.275200
  12227  12225  12229     1   107.9000462 406.684800
  12227  12225  12228     1   108.4600466 328.025600
  12228  12225  12229     1   107.9000462 406.684800
  12229  12230  12239     1   107.9000462 406.684800
  12229  12230  12240     1   107.9000462 406.684800
  12229  12231  12232     1   107.9000462 406.684800
  12229  12231  12234     1   107.9000462 406.684800
  12230  12241  12242     1   109.8000471 387.438400
  12230  12241  12243     1   109.8000471 387.438400
  12230  12229  12294     1   110.1100470 384.091200
  12231  12233  12235     1   109.8000471 387.438400
  12231  12233  12236     1   109.8000471 387.438400
  12231  12229  12294     1   110.1100470 384.091200
  12232  12231  12233     1   109.5600471 388.275200
  12232  12231  12234     1   108.4600466 328.025600
  12233  12231  12234     1   109.5600471 388.275200
  12235  12233  12237     1   108.7700466 392.459200
  12235  12233  12236     1   107.5800459 329.699200
  12236  12233  12237     1   108.7700466 392.459200
  12237  12269  12259     1   119.3800509 410.868800
  12239  12230  12241     1   109.5600471 388.275200
  12239  12230  12240     1   108.4600466 328.025600
  12240  12230  12241     1   109.5600471 388.275200
  12242  12241  12244     1   108.7700466 392.459200
  12242  12241  12243     1   107.5800459 329.699200
  12243  12241  12244     1   108.7700466 392.459200
  12244  12293  12283     1   119.3800509 410.868800
  12246  12247  12266     1   109.5600471 388.275200
  12246  12257  12260     1   109.5600471 388.275200
  12246  12257  12261     1   109.5600471 388.275200
  12247  12249  12253     1   109.5600471 388.275200
  12247  12267  12268     1   107.2600461 396.643200
  12247  12246  12248     1   109.5600471 388.275200
  12248  12246  12257     1   109.5600471 388.275200
  12248  12246  12264     1   109.7800468 425.094400
  12249  12250  12252     1   109.5600471 388.275200
  12249  12256  12258     1   107.2600461 396.643200
  12249  12247  12266     1   109.5600471 388.275200
  12250  12251  12254     1   110.2200475 386.601600
  12250  12269  12259     1   109.2900470 396.643200
  12250  12249  12253     1   109.5600471 388.275200
  12251  12255  12265     1   107.2600461 396.643200
  12251  12250  12252     1   109.5600471 388.275200
  12252  12250  12269     1   109.8800469 414.216000
  12253  12249  12256     1   110.2600474 425.931200
  12254  12251  12255     1   109.4300470 427.604800
  12254  12251  12264     1   109.5800467 425.931200
  12257  12262  12263     1   107.2600461 396.643200
  12260  12257  12262     1   110.2600474 425.931200
  12260  12257  12261     1   108.4600466 328.025600
  12261  12257  12262     1   110.2600474 425.931200
  12266  12247  12267     1   110.2600474 425.931200
  12270  12271  12290     1   109.5600471 388.275200
  12270  12281  12284     1   109.5600471 388.275200
  12270  12281  12285     1   109.5600471 388.275200
  12271  12273  12277     1   109.5600471 388.275200
  12271  12291  12292     1   107.2600461 396.643200
  12271  12270  12272     1   109.5600471 388.275200
  12272  12270  12281     1   109.5600471 388.275200
  12272  12270  12288     1   109.7800468 425.094400
  12273  12274  12276     1   109.5600471 388.275200
  12273  12280  12282     1   107.2600461 396.643200
  12273  12271  12290     1   109.5600471 388.275200
  12274  12275  12278     1   110.2200475 386.601600
  12274  12293  12283     1   109.2900470 396.643200
  12274  12273  12277     1   109.5600471 388.275200
  12275  12279  12289     1   107.2600461 396.643200
  12275  12274  12276     1   109.5600471 388.275200
  12276  12274  12293     1   109.8800469 414.216000
  12277  12273  12280     1   110.2600474 425.931200
  12278  12275  12279     1   109.4300470 427.604800
  12278  12275  12288     1   109.5800467 425.931200
  12281  12286  12287     1   107.2600461 396.643200
  12284  12281  12286     1   110.2600474 425.931200
  12284  12281  12285     1   108.4600466 328.025600
  12285  12281  12286     1   110.2600474 425.931200
  12290  12271  12291     1   110.2600474 425.931200
  12295  12297  12298     1   108.8800464 416.726400
  12295  12297  12300     1   108.8800464 416.726400
  12296  12295  12297     1   117.6800502 383.254400
  12297  12299  12301     1   109.5600471 388.275200
  12297  12299  12302     1   109.5600471 388.275200
  12298  12297  12299     1   109.5600471 388.275200
  12298  12297  12300     1   108.4600466 328.025600
  12299  12297  12300     1   109.5600471 388.275200
  12299  12303  12368     1   110.1100470 384.091200
  12301  12299  12303     1   107.9000462 406.684800
  12301  12299  12302     1   108.4600466 328.025600
  12302  12299  12303     1   107.9000462 406.684800
  12303  12304  12313     1   107.9000462 406.684800
  12303  12304  12314     1   107.9000462 406.684800
  12303  12305  12306     1   107.9000462 406.684800
  12303  12305  12308     1   107.9000462 406.684800
  12304  12303  12368     1   110.1100470 384.091200
  12304  12315  12316     1   109.8000471 387.438400
  12304  12315  12317     1   109.8000471 387.438400
  12305  12303  12368     1   110.1100470 384.091200
  12305  12307  12309     1   109.8000471 387.438400
  12305  12307  12310     1   109.8000471 387.438400
  12306  12305  12307     1   109.5600471 388.275200
  12306  12305  12308     1   108.4600466 328.025600
  12307  12305  12308     1   109.5600471 388.275200
  12309  12307  12311     1   108.7700466 392.459200
  12309  12307  12310     1   107.5800459 329.699200
  12310  12307  12311     1   108.7700466 392.459200
  12311  12343  12333     1   119.3800509 410.868800
  12313  12304  12315     1   109.5600471 388.275200
  12313  12304  12314     1   108.4600466 328.025600
  12314  12304  12315     1   109.5600471 388.275200
  12316  12315  12318     1   108.7700466 392.459200
  12316  12315  12317     1   107.5800459 329.699200
  12317  12315  12318     1   108.7700466 392.459200
  12318  12367  12357     1   119.3800509 410.868800
  12320  12321  12340     1   109.5600471 388.275200
  12320  12331  12334     1   109.5600471 388.275200
  12320  12331  12335     1   109.5600471 388.275200
  12321  12320  12322     1   109.5600471 388.275200
  12321  12323  12327     1   109.5600471 388.275200
  12321  12341  12342     1   107.2600461 396.643200
  12322  12320  12331     1   109.5600471 388.275200
  12322  12320  12338     1   109.7800468 425.094400
  12323  12321  12340     1   109.5600471 388.275200
  12323  12324  12326     1   109.5600471 388.275200
  12323  12330  12332     1   107.2600461 396.643200
  12324  12323  12327     1   109.5600471 388.275200
  12324  12325  12328     1   110.2200475 386.601600
  12324  12343  12333     1   109.2900470 396.643200
  12325  12324  12326     1   109.5600471 388.275200
  12325  12329  12339     1   107.2600461 396.643200
  12326  12324  12343     1   109.8800469 414.216000
  12327  12323  12330     1   110.2600474 425.931200
  12328  12325  12329     1   109.4300470 427.604800
  12328  12325  12338     1   109.5800467 425.931200
  12331  12336  12337     1   107.2600461 396.643200
  12334  12331  12336     1   110.2600474 425.931200
  12334  12331  12335     1   108.4600466 328.025600
  12335  12331  12336     1   110.2600474 425.931200
  12340  12321  12341     1   110.2600474 425.931200
  12344  12345  12364     1   109.5600471 388.275200
  12344  12355  12358     1   109.5600471 388.275200
  12344  12355  12359     1   109.5600471 388.275200
  12345  12344  12346     1   109.5600471 388.275200
  12345  12347  12351     1   109.5600471 388.275200
  12345  12365  12366     1   107.2600461 396.643200
  12346  12344  12355     1   109.5600471 388.275200
  12346  12344  12362     1   109.7800468 425.094400
  12347  12345  12364     1   109.5600471 388.275200
  12347  12348  12350     1   109.5600471 388.275200
  12347  12354  12356     1   107.2600461 396.643200
  12348  12347  12351     1   109.5600471 388.275200
  12348  12349  12352     1   110.2200475 386.601600
  12348  12367  12357     1   109.2900470 396.643200
  12349  12348  12350     1   109.5600471 388.275200
  12349  12353  12363     1   107.2600461 396.643200
  12350  12348  12367     1   109.8800469 414.216000
  12351  12347  12354     1   110.2600474 425.931200
  12352  12349  12353     1   109.4300470 427.604800
  12352  12349  12362     1   109.5800467 425.931200
  12355  12360  12361     1   107.2600461 396.643200
  12358  12355  12360     1   110.2600474 425.931200
  12358  12355  12359     1   108.4600466 328.025600
  12359  12355  12360     1   110.2600474 425.931200
  12364  12345  12365     1   110.2600474 425.931200
  12369  12371  12372     1   108.8800464 416.726400
  12369  12371  12374     1   108.8800464 416.726400
  12370  12369  12371     1   117.6800502 383.254400
  12371  12373  12375     1   109.5600471 388.275200
  12371  12373  12376     1   109.5600471 388.275200
  12372  12371  12373     1   109.5600471 388.275200
  12372  12371  12374     1   108.4600466 328.025600
  12373  12377  12442     1   110.1100470 384.091200
  12373  12371  12374     1   109.5600471 388.275200
  12375  12373  12377     1   107.9000462 406.684800
  12375  12373  12376     1   108.4600466 328.025600
  12376  12373  12377     1   107.9000462 406.684800
  12377  12378  12387     1   107.9000462 406.684800
  12377  12378  12388     1   107.9000462 406.684800
  12377  12379  12380     1   107.9000462 406.684800
  12377  12379  12382     1   107.9000462 406.684800
  12378  12389  12390     1   109.8000471 387.438400
  12378  12389  12391     1   109.8000471 387.438400
  12378  12377  12442     1   110.1100470 384.091200
  12379  12381  12383     1   109.8000471 387.438400
  12379  12381  12384     1   109.8000471 387.438400
  12379  12377  12442     1   110.1100470 384.091200
  12380  12379  12381     1   109.5600471 388.275200
  12380  12379  12382     1   108.4600466 328.025600
  12381  12379  12382     1   109.5600471 388.275200
  12383  12381  12385     1   108.7700466 392.459200
  12383  12381  12384     1   107.5800459 329.699200
  12384  12381  12385     1   108.7700466 392.459200
  12385  12417  12407     1   119.3800509 410.868800
  12387  12378  12389     1   109.5600471 388.275200
  12387  12378  12388     1   108.4600466 328.025600
  12388  12378  12389     1   109.5600471 388.275200
  12390  12389  12392     1   108.7700466 392.459200
  12390  12389  12391     1   107.5800459 329.699200
  12391  12389  12392     1   108.7700466 392.459200
  12392  12441  12431     1   119.3800509 410.868800
  12394  12395  12414     1   109.5600471 388.275200
  12394  12405  12408     1   109.5600471 388.275200
  12394  12405  12409     1   109.5600471 388.275200
  12395  12397  12401     1   109.5600471 388.275200
  12395  12415  12416     1   107.2600461 396.643200
  12395  12394  12396     1   109.5600471 388.275200
  12396  12394  12405     1   109.5600471 388.275200
  12396  12394  12412     1   109.7800468 425.094400
  12397  12398  12400     1   109.5600471 388.275200
  12397  12404  12406     1   107.2600461 396.643200
  12397  12395  12414     1   109.5600471 388.275200
  12398  12399  12402     1   110.2200475 386.601600
  12398  12417  12407     1   109.2900470 396.643200
  12398  12397  12401     1   109.5600471 388.275200
  12399  12403  12413     1   107.2600461 396.643200
  12399  12398  12400     1   109.5600471 388.275200
  12400  12398  12417     1   109.8800469 414.216000
  12401  12397  12404     1   110.2600474 425.931200
  12402  12399  12403     1   109.4300470 427.604800
  12402  12399  12412     1   109.5800467 425.931200
  12405  12410  12411     1   107.2600461 396.643200
  12408  12405  12410     1   110.2600474 425.931200
  12408  12405  12409     1   108.4600466 328.025600
  12409  12405  12410     1   110.2600474 425.931200
  12414  12395  12415     1   110.2600474 425.931200
  12418  12419  12438     1   109.5600471 388.275200
  12418  12429  12432     1   109.5600471 388.275200
  12418  12429  12433     1   109.5600471 388.275200
  12419  12421  12425     1   109.5600471 388.275200
  12419  12439  12440     1   107.2600461 396.643200
  12419  12418  12420     1   109.5600471 388.275200
  12420  12418  12429     1   109.5600471 388.275200
  12420  12418  12436     1   109.7800468 425.094400
  12421  12422  12424     1   109.5600471 388.275200
  12421  12428  12430     1   107.2600461 396.643200
  12421  12419  12438     1   109.5600471 388.275200
  12422  12423  12426     1   110.2200475 386.601600
  12422  12441  12431     1   109.2900470 396.643200
  12422  12421  12425     1   109.5600471 388.275200
  12423  12427  12437     1   107.2600461 396.643200
  12423  12422  12424     1   109.5600471 388.275200
  12424  12422  12441     1   109.8800469 414.216000
  12425  12421  12428     1   110.2600474 425.931200
  12426  12423  12427     1   109.4300470 427.604800
  12426  12423  12436     1   109.5800467 425.931200
  12429  12434  12435     1   107.2600461 396.643200
  12432  12429  12434     1   110.2600474 425.931200
  12432  12429  12433     1   108.4600466 328.025600
  12433  12429  12434     1   110.2600474 425.931200
  12438  12419  12439     1   110.2600474 425.931200
  12443  12445  12446     1   108.8800464 416.726400
  12443  12445  12448     1   108.8800464 416.726400
  12444  12443  12445     1   117.6800502 383.254400
  12445  12447  12449     1   109.5600471 388.275200
  12445  12447  12450     1   109.5600471 388.275200
  12446  12445  12447     1   109.5600471 388.275200
  12446  12445  12448     1   108.4600466 328.025600
  12447  12445  12448     1   109.5600471 388.275200
  12447  12451  12516     1   110.1100470 384.091200
  12449  12447  12451     1   107.9000462 406.684800
  12449  12447  12450     1   108.4600466 328.025600
  12450  12447  12451     1   107.9000462 406.684800
  12451  12452  12461     1   107.9000462 406.684800
  12451  12452  12462     1   107.9000462 406.684800
  12451  12453  12454     1   107.9000462 406.684800
  12451  12453  12456     1   107.9000462 406.684800
  12452  12451  12516     1   110.1100470 384.091200
  12452  12463  12464     1   109.8000471 387.438400
  12452  12463  12465     1   109.8000471 387.438400
  12453  12451  12516     1   110.1100470 384.091200
  12453  12455  12457     1   109.8000471 387.438400
  12453  12455  12458     1   109.8000471 387.438400
  12454  12453  12455     1   109.5600471 388.275200
  12454  12453  12456     1   108.4600466 328.025600
  12455  12453  12456     1   109.5600471 388.275200
  12457  12455  12459     1   108.7700466 392.459200
  12457  12455  12458     1   107.5800459 329.699200
  12458  12455  12459     1   108.7700466 392.459200
  12459  12491  12481     1   119.3800509 410.868800
  12461  12452  12463     1   109.5600471 388.275200
  12461  12452  12462     1   108.4600466 328.025600
  12462  12452  12463     1   109.5600471 388.275200
  12464  12463  12466     1   108.7700466 392.459200
  12464  12463  12465     1   107.5800459 329.699200
  12465  12463  12466     1   108.7700466 392.459200
  12466  12515  12505     1   119.3800509 410.868800
  12468  12469  12488     1   109.5600471 388.275200
  12468  12479  12482     1   109.5600471 388.275200
  12468  12479  12483     1   109.5600471 388.275200
  12469  12468  12470     1   109.5600471 388.275200
  12469  12471  12475     1   109.5600471 388.275200
  12469  12489  12490     1   107.2600461 396.643200
  12470  12468  12479     1   109.5600471 388.275200
  12470  12468  12486     1   109.7800468 425.094400
  12471  12469  12488     1   109.5600471 388.275200
  12471  12472  12474     1   109.5600471 388.275200
  12471  12478  12480     1   107.2600461 396.643200
  12472  12471  12475     1   109.5600471 388.275200
  12472  12473  12476     1   110.2200475 386.601600
  12472  12491  12481     1   109.2900470 396.643200
  12473  12472  12474     1   109.5600471 388.275200
  12473  12477  12487     1   107.2600461 396.643200
  12474  12472  12491     1   109.8800469 414.216000
  12475  12471  12478     1   110.2600474 425.931200
  12476  12473  12477     1   109.4300470 427.604800
  12476  12473  12486     1   109.5800467 425.931200
  12479  12484  12485     1   107.2600461 396.643200
  12482  12479  12484     1   110.2600474 425.931200
  12482  12479  12483     1   108.4600466 328.025600
  12483  12479  12484     1   110.2600474 425.931200
  12488  12469  12489     1   110.2600474 425.931200
  12492  12493  12512     1   109.5600471 388.275200
  12492  12503  12506     1   109.5600471 388.275200
  12492  12503  12507     1   109.5600471 388.275200
  12493  12492  12494     1   109.5600471 388.275200
  12493  12495  12499     1   109.5600471 388.275200
  12493  12513  12514     1   107.2600461 396.643200
  12494  12492  12503     1   109.5600471 388.275200
  12494  12492  12510     1   109.7800468 425.094400
  12495  12493  12512     1   109.5600471 388.275200
  12495  12496  12498     1   109.5600471 388.275200
  12495  12502  12504     1   107.2600461 396.643200
  12496  12495  12499     1   109.5600471 388.275200
  12496  12497  12500     1   110.2200475 386.601600
  12496  12515  12505     1   109.2900470 396.643200
  12497  12496  12498     1   109.5600471 388.275200
  12497  12501  12511     1   107.2600461 396.643200
  12498  12496  12515     1   109.8800469 414.216000
  12499  12495  12502     1   110.2600474 425.931200
  12500  12497  12501     1   109.4300470 427.604800
  12500  12497  12510     1   109.5800467 425.931200
  12503  12508  12509     1   107.2600461 396.643200
  12506  12503  12508     1   110.2600474 425.931200
  12506  12503  12507     1   108.4600466 328.025600
  12507  12503  12508     1   110.2600474 425.931200
  12512  12493  12513     1   110.2600474 425.931200
  12517  12519  12520     1   108.8800464 416.726400
  12517  12519  12522     1   108.8800464 416.726400
  12518  12517  12519     1   117.6800502 383.254400
  12519  12521  12523     1   109.5600471 388.275200
  12519  12521  12524     1   109.5600471 388.275200
  12520  12519  12521     1   109.5600471 388.275200
  12520  12519  12522     1   108.4600466 328.025600
  12521  12525  12590     1   110.1100470 384.091200
  12521  12519  12522     1   109.5600471 388.275200
  12523  12521  12525     1   107.9000462 406.684800
  12523  12521  12524     1   108.4600466 328.025600
  12524  12521  12525     1   107.9000462 406.684800
  12525  12526  12535     1   107.9000462 406.684800
  12525  12526  12536     1   107.9000462 406.684800
  12525  12527  12528     1   107.9000462 406.684800
  12525  12527  12530     1   107.9000462 406.684800
  12526  12537  12538     1   109.8000471 387.438400
  12526  12537  12539     1   109.8000471 387.438400
  12526  12525  12590     1   110.1100470 384.091200
  12527  12529  12531     1   109.8000471 387.438400
  12527  12529  12532     1   109.8000471 387.438400
  12527  12525  12590     1   110.1100470 384.091200
  12528  12527  12529     1   109.5600471 388.275200
  12528  12527  12530     1   108.4600466 328.025600
  12529  12527  12530     1   109.5600471 388.275200
  12531  12529  12533     1   108.7700466 392.459200
  12531  12529  12532     1   107.5800459 329.699200
  12532  12529  12533     1   108.7700466 392.459200
  12533  12565  12555     1   119.3800509 410.868800
  12535  12526  12537     1   109.5600471 388.275200
  12535  12526  12536     1   108.4600466 328.025600
  12536  12526  12537     1   109.5600471 388.275200
  12538  12537  12540     1   108.7700466 392.459200
  12538  12537  12539     1   107.5800459 329.699200
  12539  12537  12540     1   108.7700466 392.459200
  12540  12589  12579     1   119.3800509 410.868800
  12542  12543  12562     1   109.5600471 388.275200
  12542  12553  12556     1   109.5600471 388.275200
  12542  12553  12557     1   109.5600471 388.275200
  12543  12545  12549     1   109.5600471 388.275200
  12543  12563  12564     1   107.2600461 396.643200
  12543  12542  12544     1   109.5600471 388.275200
  12544  12542  12553     1   109.5600471 388.275200
  12544  12542  12560     1   109.7800468 425.094400
  12545  12546  12548     1   109.5600471 388.275200
  12545  12552  12554     1   107.2600461 396.643200
  12545  12543  12562     1   109.5600471 388.275200
  12546  12547  12550     1   110.2200475 386.601600
  12546  12565  12555     1   109.2900470 396.643200
  12546  12545  12549     1   109.5600471 388.275200
  12547  12551  12561     1   107.2600461 396.643200
  12547  12546  12548     1   109.5600471 388.275200
  12548  12546  12565     1   109.8800469 414.216000
  12549  12545  12552     1   110.2600474 425.931200
  12550  12547  12551     1   109.4300470 427.604800
  12550  12547  12560     1   109.5800467 425.931200
  12553  12558  12559     1   107.2600461 396.643200
  12556  12553  12558     1   110.2600474 425.931200
  12556  12553  12557     1   108.4600466 328.025600
  12557  12553  12558     1   110.2600474 425.931200
  12562  12543  12563     1   110.2600474 425.931200
  12566  12567  12586     1   109.5600471 388.275200
  12566  12577  12580     1   109.5600471 388.275200
  12566  12577  12581     1   109.5600471 388.275200
  12567  12569  12573     1   109.5600471 388.275200
  12567  12587  12588     1   107.2600461 396.643200
  12567  12566  12568     1   109.5600471 388.275200
  12568  12566  12577     1   109.5600471 388.275200
  12568  12566  12584     1   109.7800468 425.094400
  12569  12570  12572     1   109.5600471 388.275200
  12569  12576  12578     1   107.2600461 396.643200
  12569  12567  12586     1   109.5600471 388.275200
  12570  12571  12574     1   110.2200475 386.601600
  12570  12589  12579     1   109.2900470 396.643200
  12570  12569  12573     1   109.5600471 388.275200
  12571  12575  12585     1   107.2600461 396.643200
  12571  12570  12572     1   109.5600471 388.275200
  12572  12570  12589     1   109.8800469 414.216000
  12573  12569  12576     1   110.2600474 425.931200
  12574  12571  12575     1   109.4300470 427.604800
  12574  12571  12584     1   109.5800467 425.931200
  12577  12582  12583     1   107.2600461 396.643200
  12580  12577  12582     1   110.2600474 425.931200
  12580  12577  12581     1   108.4600466 328.025600
  12581  12577  12582     1   110.2600474 425.931200
  12586  12567  12587     1   110.2600474 425.931200
  12591  12593  12594     1   108.8800464 416.726400
  12591  12593  12596     1   108.8800464 416.726400
  12592  12591  12593     1   117.6800502 383.254400
  12593  12595  12597     1   109.5600471 388.275200
  12593  12595  12598     1   109.5600471 388.275200
  12594  12593  12595     1   109.5600471 388.275200
  12594  12593  12596     1   108.4600466 328.025600
  12595  12593  12596     1   109.5600471 388.275200
  12595  12599  12664     1   110.1100470 384.091200
  12597  12595  12599     1   107.9000462 406.684800
  12597  12595  12598     1   108.4600466 328.025600
  12598  12595  12599     1   107.9000462 406.684800
  12599  12600  12609     1   107.9000462 406.684800
  12599  12600  12610     1   107.9000462 406.684800
  12599  12601  12602     1   107.9000462 406.684800
  12599  12601  12604     1   107.9000462 406.684800
  12600  12599  12664     1   110.1100470 384.091200
  12600  12611  12612     1   109.8000471 387.438400
  12600  12611  12613     1   109.8000471 387.438400
  12601  12599  12664     1   110.1100470 384.091200
  12601  12603  12605     1   109.8000471 387.438400
  12601  12603  12606     1   109.8000471 387.438400
  12602  12601  12603     1   109.5600471 388.275200
  12602  12601  12604     1   108.4600466 328.025600
  12603  12601  12604     1   109.5600471 388.275200
  12605  12603  12607     1   108.7700466 392.459200
  12605  12603  12606     1   107.5800459 329.699200
  12606  12603  12607     1   108.7700466 392.459200
  12607  12639  12629     1   119.3800509 410.868800
  12609  12600  12611     1   109.5600471 388.275200
  12609  12600  12610     1   108.4600466 328.025600
  12610  12600  12611     1   109.5600471 388.275200
  12612  12611  12614     1   108.7700466 392.459200
  12612  12611  12613     1   107.5800459 329.699200
  12613  12611  12614     1   108.7700466 392.459200
  12614  12663  12653     1   119.3800509 410.868800
  12616  12617  12636     1   109.5600471 388.275200
  12616  12627  12630     1   109.5600471 388.275200
  12616  12627  12631     1   109.5600471 388.275200
  12617  12616  12618     1   109.5600471 388.275200
  12617  12619  12623     1   109.5600471 388.275200
  12617  12637  12638     1   107.2600461 396.643200
  12618  12616  12627     1   109.5600471 388.275200
  12618  12616  12634     1   109.7800468 425.094400
  12619  12617  12636     1   109.5600471 388.275200
  12619  12620  12622     1   109.5600471 388.275200
  12619  12626  12628     1   107.2600461 396.643200
  12620  12619  12623     1   109.5600471 388.275200
  12620  12621  12624     1   110.2200475 386.601600
  12620  12639  12629     1   109.2900470 396.643200
  12621  12620  12622     1   109.5600471 388.275200
  12621  12625  12635     1   107.2600461 396.643200
  12622  12620  12639     1   109.8800469 414.216000
  12623  12619  12626     1   110.2600474 425.931200
  12624  12621  12625     1   109.4300470 427.604800
  12624  12621  12634     1   109.5800467 425.931200
  12627  12632  12633     1   107.2600461 396.643200
  12630  12627  12632     1   110.2600474 425.931200
  12630  12627  12631     1   108.4600466 328.025600
  12631  12627  12632     1   110.2600474 425.931200
  12636  12617  12637     1   110.2600474 425.931200
  12640  12641  12660     1   109.5600471 388.275200
  12640  12651  12654     1   109.5600471 388.275200
  12640  12651  12655     1   109.5600471 388.275200
  12641  12640  12642     1   109.5600471 388.275200
  12641  12643  12647     1   109.5600471 388.275200
  12641  12661  12662     1   107.2600461 396.643200
  12642  12640  12651     1   109.5600471 388.275200
  12642  12640  12658     1   109.7800468 425.094400
  12643  12641  12660     1   109.5600471 388.275200
  12643  12644  12646     1   109.5600471 388.275200
  12643  12650  12652     1   107.2600461 396.643200
  12644  12643  12647     1   109.5600471 388.275200
  12644  12645  12648     1   110.2200475 386.601600
  12644  12663  12653     1   109.2900470 396.643200
  12645  12644  12646     1   109.5600471 388.275200
  12645  12649  12659     1   107.2600461 396.643200
  12646  12644  12663     1   109.8800469 414.216000
  12647  12643  12650     1   110.2600474 425.931200
  12648  12645  12649     1   109.4300470 427.604800
  12648  12645  12658     1   109.5800467 425.931200
  12651  12656  12657     1   107.2600461 396.643200
  12654  12651  12656     1   110.2600474 425.931200
  12654  12651  12655     1   108.4600466 328.025600
  12655  12651  12656     1   110.2600474 425.931200
  12660  12641  12661     1   110.2600474 425.931200
  12665  12667  12668     1   108.8800464 416.726400
  12665  12667  12670     1   108.8800464 416.726400
  12666  12665  12667     1   117.6800502 383.254400
  12667  12669  12671     1   109.5600471 388.275200
  12667  12669  12672     1   109.5600471 388.275200
  12668  12667  12669     1   109.5600471 388.275200
  12668  12667  12670     1   108.4600466 328.025600
  12669  12673  12738     1   110.1100470 384.091200
  12669  12667  12670     1   109.5600471 388.275200
  12671  12669  12673     1   107.9000462 406.684800
  12671  12669  12672     1   108.4600466 328.025600
  12672  12669  12673     1   107.9000462 406.684800
  12673  12674  12683     1   107.9000462 406.684800
  12673  12674  12684     1   107.9000462 406.684800
  12673  12675  12676     1   107.9000462 406.684800
  12673  12675  12678     1   107.9000462 406.684800
  12674  12685  12686     1   109.8000471 387.438400
  12674  12685  12687     1   109.8000471 387.438400
  12674  12673  12738     1   110.1100470 384.091200
  12675  12677  12679     1   109.8000471 387.438400
  12675  12677  12680     1   109.8000471 387.438400
  12675  12673  12738     1   110.1100470 384.091200
  12676  12675  12677     1   109.5600471 388.275200
  12676  12675  12678     1   108.4600466 328.025600
  12677  12675  12678     1   109.5600471 388.275200
  12679  12677  12681     1   108.7700466 392.459200
  12679  12677  12680     1   107.5800459 329.699200
  12680  12677  12681     1   108.7700466 392.459200
  12681  12713  12703     1   119.3800509 410.868800
  12683  12674  12685     1   109.5600471 388.275200
  12683  12674  12684     1   108.4600466 328.025600
  12684  12674  12685     1   109.5600471 388.275200
  12686  12685  12688     1   108.7700466 392.459200
  12686  12685  12687     1   107.5800459 329.699200
  12687  12685  12688     1   108.7700466 392.459200
  12688  12737  12727     1   119.3800509 410.868800
  12690  12691  12710     1   109.5600471 388.275200
  12690  12701  12704     1   109.5600471 388.275200
  12690  12701  12705     1   109.5600471 388.275200
  12691  12693  12697     1   109.5600471 388.275200
  12691  12711  12712     1   107.2600461 396.643200
  12691  12690  12692     1   109.5600471 388.275200
  12692  12690  12701     1   109.5600471 388.275200
  12692  12690  12708     1   109.7800468 425.094400
  12693  12694  12696     1   109.5600471 388.275200
  12693  12700  12702     1   107.2600461 396.643200
  12693  12691  12710     1   109.5600471 388.275200
  12694  12695  12698     1   110.2200475 386.601600
  12694  12713  12703     1   109.2900470 396.643200
  12694  12693  12697     1   109.5600471 388.275200
  12695  12699  12709     1   107.2600461 396.643200
  12695  12694  12696     1   109.5600471 388.275200
  12696  12694  12713     1   109.8800469 414.216000
  12697  12693  12700     1   110.2600474 425.931200
  12698  12695  12699     1   109.4300470 427.604800
  12698  12695  12708     1   109.5800467 425.931200
  12701  12706  12707     1   107.2600461 396.643200
  12704  12701  12706     1   110.2600474 425.931200
  12704  12701  12705     1   108.4600466 328.025600
  12705  12701  12706     1   110.2600474 425.931200
  12710  12691  12711     1   110.2600474 425.931200
  12714  12715  12734     1   109.5600471 388.275200
  12714  12725  12728     1   109.5600471 388.275200
  12714  12725  12729     1   109.5600471 388.275200
  12715  12717  12721     1   109.5600471 388.275200
  12715  12735  12736     1   107.2600461 396.643200
  12715  12714  12716     1   109.5600471 388.275200
  12716  12714  12725     1   109.5600471 388.275200
  12716  12714  12732     1   109.7800468 425.094400
  12717  12718  12720     1   109.5600471 388.275200
  12717  12724  12726     1   107.2600461 396.643200
  12717  12715  12734     1   109.5600471 388.275200
  12718  12719  12722     1   110.2200475 386.601600
  12718  12737  12727     1   109.2900470 396.643200
  12718  12717  12721     1   109.5600471 388.275200
  12719  12723  12733     1   107.2600461 396.643200
  12719  12718  12720     1   109.5600471 388.275200
  12720  12718  12737     1   109.8800469 414.216000
  12721  12717  12724     1   110.2600474 425.931200
  12722  12719  12723     1   109.4300470 427.604800
  12722  12719  12732     1   109.5800467 425.931200
  12725  12730  12731     1   107.2600461 396.643200
  12728  12725  12730     1   110.2600474 425.931200
  12728  12725  12729     1   108.4600466 328.025600
  12729  12725  12730     1   110.2600474 425.931200
  12734  12715  12735     1   110.2600474 425.931200

[ dihedrals ]
;    ai     aj     ak     al funct         c0         c1         c2         c3         c4         c5
      1      2      3      4     1  0.0000000  0.6508444  3
      1      7     13     14     1  0.0000000  0.6508444  3
      1      8     15     16     1  0.0000000  0.6508444  3
      2      1      7     13     1  0.0000000  0.6508444  3
      2      1      8     15     1  0.0000000  0.6508444  3
      2      3      4      5     1  0.0000000  0.6508444  3
      2      3      4      6     1  0.0000000  0.6508444  3
      7      1      2      3     1  0.0000000  0.6508444  3
      8      1      2      3     1  0.0000000  0.6508444  3
      3      4      5     11     1  0.0000000  0.6508444  3
      3      4      6      9     1  0.0000000  0.6508444  3
      4      5     11     12     1  0.0000000  0.6508444  3
      4      6      9     10     1  0.0000000  0.6508444  3
      5      4      6      9     1  0.0000000  0.6508444  3
      5     11     12     17     1  180.0000771  0.0000000  2
      5     11     12     78     1  0.0000000  0.2928800  2
      5     11     12     78     1  0.0000000  0.4184000  4
      6      4      5     11     1  0.0000000  0.6508444  3
      6      9     10     18     1  180.0000771  0.0000000  2
      6      9     10     52     1  0.0000000  0.2928800  2
      6      9     10     52     1  0.0000000  0.4184000  4
      7      1      8     15     1  0.0000000  0.6508444  3
      7     13     14     20     1  180.0000771  0.0000000  2
      7     13     14    104     1  0.0000000  0.2928800  2
      7     13     14    104     1  0.0000000  0.4184000  4
      8      1      7     13     1  0.0000000  0.6508444  3
      8     15     16     19     1  180.0000771  0.0000000  2
      8     15     16    130     1  0.0000000  0.2928800  2
      8     15     16    130     1  0.0000000  0.4184000  4
      9     10     52     51     1  180.0000771  6.2760000  1
      9     10     52     51     1  0.0000000  0.0000000  2
     10     52     51     50     1  0.0000000  2.2175200  1
     10     52     51     50     1  0.0000000  0.0000000  2
     10     52     51     50     1  180.0000771  0.6276000  3
     10     52     51     50     1  180.0000771  2.0920000  4
     11     12     78     77     1  180.0000771  6.2760000  1
     11     12     78     77     1  0.0000000  0.0000000  2
     12     78     77     76     1  0.0000000  2.2175200  1
     12     78     77     76     1  0.0000000  0.0000000  2
     12     78     77     76     1  180.0000771  0.6276000  3
     12     78     77     76     1  180.0000771  2.0920000  4
     13     14    104    103     1  180.0000771  6.2760000  1
     13     14    104    103     1  0.0000000  0.0000000  2
     14    104    103    102     1  0.0000000  2.2175200  1
     14    104    103    102     1  0.0000000  0.0000000  2
     14    104    103    102     1  180.0000771  0.6276000  3
     14    104    103    102     1  180.0000771  2.0920000  4
     15     16    130    129     1  180.0000771  6.2760000  1
     15     16    130    129     1  0.0000000  0.0000000  2
     16    130    129    128     1  0.0000000  2.2175200  1
     16    130    129    128     1  0.0000000  0.0000000  2
     16    130    129    128     1  180.0000771  0.6276000  3
     16    130    129    128     1  180.0000771  2.0920000  4
     17     12     78     77     1  180.0000771  10.4600000  2
     18     10     52     51     1  180.0000771  10.4600000  2
     19     16    130    129     1  180.0000771  10.4600000  2
     20     14    104    103     1  180.0000771  10.4600000  2
     43     44     46     47     1  0.0000000  0.6508444  3
     43     45     48     49     1  0.0000000  0.6508444  3
     43     50     51     52     1  0.0000000  0.6508444  3
     44     43     45     48     1  0.0000000  0.6508444  3
     44     43     50     51     1  0.0000000  0.6508444  3
     44     46     47     53     1  180.0000771  0.0000000  2
     44     46     47    156     1  0.0000000  0.2928800  2
     44     46     47    156     1  0.0000000  0.4184000  4
     45     43     44     46     1  0.0000000  0.6508444  3
     45     43     50     51     1  0.0000000  0.6508444  3
     45     48     49     54     1  180.0000771  0.0000000  2
     45     48     49    182     1  0.0000000  0.2928800  2
     45     48     49    182     1  0.0000000  0.4184000  4
     46     44     43     50     1  0.0000000  0.6508444  3
     46     47    156    155     1  180.0000771  6.2760000  1
     46     47    156    155     1  0.0000000  0.0000000  2
     47    156    155    154     1  0.0000000  2.2175200  1
     47    156    155    154     1  0.0000000  0.0000000  2
     47    156    155    154     1  180.0000771  0.6276000  3
     47    156    155    154     1  180.0000771  2.0920000  4
     48     45     43     50     1  0.0000000  0.6508444  3
     48     49    182    181     1  180.0000771  6.2760000  1
     48     49    182    181     1  0.0000000  0.0000000  2
     49    182    181    180     1  0.0000000  2.2175200  1
     49    182    181    180     1  0.0000000  0.0000000  2
     49    182    181    180     1  180.0000771  0.6276000  3
     49    182    181    180     1  180.0000771  2.0920000  4
     53     47    156    155     1  180.0000771  10.4600000  2
     54     49    182    181     1  180.0000771  10.4600000  2
     69     70     72     73     1  0.0000000  0.6508444  3
     69     71     74     75     1  0.0000000  0.6508444  3
     69     76     77     78     1  0.0000000  0.6508444  3
     70     69     71     74     1  0.0000000  0.6508444  3
     70     69     76     77     1  0.0000000  0.6508444  3
     70     72     73     79     1  180.0000771  0.0000000  2
     70     72     73    208     1  0.0000000  0.2928800  2
     70     72     73    208     1  0.0000000  0.4184000  4
     71     69     70     72     1  0.0000000  0.6508444  3
     71     69     76     77     1  0.0000000  0.6508444  3
     71     74     75     80     1  180.0000771  0.0000000  2
     71     74     75    234     1  0.0000000  0.2928800  2
     71     74     75    234     1  0.0000000  0.4184000  4
     72     70     69     76     1  0.0000000  0.6508444  3
     72     73    208    207     1  180.0000771  6.2760000  1
     72     73    208    207     1  0.0000000  0.0000000  2
     73    208    207    206     1  0.0000000  2.2175200  1
     73    208    207    206     1  0.0000000  0.0000000  2
     73    208    207    206     1  180.0000771  0.6276000  3
     73    208    207    206     1  180.0000771  2.0920000  4
     74     71     69     76     1  0.0000000  0.6508444  3
     74     75    234    233     1  180.0000771  6.2760000  1
     74     75    234    233     1  0.0000000  0.0000000  2
     75    234    233    232     1  0.0000000  2.2175200  1
     75    234    233    232     1  0.0000000  0.0000000  2
     75    234    233    232     1  180.0000771  0.6276000  3
     75    234    233    232     1  180.0000771  2.0920000  4
     79     73    208    207     1  180.0000771  10.4600000  2
     80     75    234    233     1  180.0000771  10.4600000  2
     95     96     98     99     1  0.0000000  0.6508444  3
     95     97    100    101     1  0.0000000  0.6508444  3
     95    102    103    104     1  0.0000000  0.6508444  3
     96     95     97    100     1  0.0000000  0.6508444  3
     96     95    102    103     1  0.0000000  0.6508444  3
     96     98     99    105     1  180.0000771  0.0000000  2
     96     98     99    260     1  0.0000000  0.2928800  2
     96     98     99    260     1  0.0000000  0.4184000  4
     97     95     96     98     1  0.0000000  0.6508444  3
     97     95    102    103     1  0.0000000  0.6508444  3
     97    100    101    106     1  180.0000771  0.0000000  2
     97    100    101    286     1  0.0000000  0.2928800  2
     97    100    101    286     1  0.0000000  0.4184000  4
     98     96     95    102     1  0.0000000  0.6508444  3
     98     99    260    259     1  180.0000771  6.2760000  1
     98     99    260    259     1  0.0000000  0.0000000  2
     99    260    259    258     1  0.0000000  2.2175200  1
     99    260    259    258     1  0.0000000  0.0000000  2
     99    260    259    258     1  180.0000771  0.6276000  3
     99    260    259    258     1  180.0000771  2.0920000  4
    100     97     95    102     1  0.0000000  0.6508444  3
    100    101    286    285     1  180.0000771  6.2760000  1
    100    101    286    285     1  0.0000000  0.0000000  2
    101    286    285    284     1  0.0000000  2.2175200  1
    101    286    285    284     1  0.0000000  0.0000000  2
    101    286    285    284     1  180.0000771  0.6276000  3
    101    286    285    284     1  180.0000771  2.0920000  4
    105     99    260    259     1  180.0000771  10.4600000  2
    106    101    286    285     1  180.0000771  10.4600000  2
    121    122    124    125     1  0.0000000  0.6508444  3
    121    123    126    127     1  0.0000000  0.6508444  3
    121    128    129    130     1  0.0000000  0.6508444  3
    122    121    123    126     1  0.0000000  0.6508444  3
    122    121    128    129     1  0.0000000  0.6508444  3
    122    124    125    131     1  180.0000771  0.0000000  2
    122    124    125    312     1  0.0000000  0.2928800  2
    122    124    125    312     1  0.0000000  0.4184000  4
    123    121    122    124     1  0.0000000  0.6508444  3
    123    121    128    129     1  0.0000000  0.6508444  3
    123    126    127    132     1  180.0000771  0.0000000  2
    123    126    127    338     1  0.0000000  0.2928800  2
    123    126    127    338     1  0.0000000  0.4184000  4
    124    122    121    128     1  0.0000000  0.6508444  3
    124    125    312    311     1  180.0000771  6.2760000  1
    124    125    312    311     1  0.0000000  0.0000000  2
    125    312    311    310     1  0.0000000  2.2175200  1
    125    312    311    310     1  0.0000000  0.0000000  2
    125    312    311    310     1  180.0000771  0.6276000  3
    125    312    311    310     1  180.0000771  2.0920000  4
    126    123    121    128     1  0.0000000  0.6508444  3
    126    127    338    337     1  180.0000771  6.2760000  1
    126    127    338    337     1  0.0000000  0.0000000  2
    127    338    337    336     1  0.0000000  2.2175200  1
    127    338    337    336     1  0.0000000  0.0000000  2
    127    338    337    336     1  180.0000771  0.6276000  3
    127    338    337    336     1  180.0000771  2.0920000  4
    131    125    312    311     1  180.0000771  10.4600000  2
    132    127    338    337     1  180.0000771  10.4600000  2
    147    148    150    151     1  0.0000000  0.6508444  3
    147    149    152    153     1  0.0000000  0.6508444  3
    147    154    155    156     1  0.0000000  0.6508444  3
    148    147    149    152     1  0.0000000  0.6508444  3
    148    147    154    155     1  0.0000000  0.6508444  3
    148    150    151    157     1  180.0000771  0.0000000  2
    148    150    151    364     1  0.0000000  0.2928800  2
    148    150    151    364     1  0.0000000  0.4184000  4
    149    147    148    150     1  0.0000000  0.6508444  3
    149    147    154    155     1  0.0000000  0.6508444  3
    149    152    153    158     1  180.0000771  0.0000000  2
    149    152    153    390     1  0.0000000  0.2928800  2
    149    152    153    390     1  0.0000000  0.4184000  4
    150    148    147    154     1  0.0000000  0.6508444  3
    150    151    364    363     1  180.0000771  6.2760000  1
    150    151    364    363     1  0.0000000  0.0000000  2
    151    364    363    362     1  0.0000000  2.2175200  1
    151    364    363    362     1  0.0000000  0.0000000  2
    151    364    363    362     1  180.0000771  0.6276000  3
    151    364    363    362     1  180.0000771  2.0920000  4
    152    149    147    154     1  0.0000000  0.6508444  3
    152    153    390    389     1  180.0000771  6.2760000  1
    152    153    390    389     1  0.0000000  0.0000000  2
    153    390    389    388     1  0.0000000  2.2175200  1
    153    390    389    388     1  0.0000000  0.0000000  2
    153    390    389    388     1  180.0000771  0.6276000  3
    153    390    389    388     1  180.0000771  2.0920000  4
    157    151    364    363     1  180.0000771  10.4600000  2
    158    153    390    389     1  180.0000771  10.4600000  2
    173    174    176    177     1  0.0000000  0.6508444  3
    173    175    178    179     1  0.0000000  0.6508444  3
    173    180    181    182     1  0.0000000  0.6508444  3
    174    173    175    178     1  0.0000000  0.6508444  3
    174    173    180    181     1  0.0000000  0.6508444  3
    174    176    177    183     1  180.0000771  0.0000000  2
    174    176    177    416     1  0.0000000  0.2928800  2
    174    176    177    416     1  0.0000000  0.4184000  4
    175    173    174    176     1  0.0000000  0.6508444  3
    175    173    180    181     1  0.0000000  0.6508444  3
    175    178    179    184     1  180.0000771  0.0000000  2
    175    178    179    442     1  0.0000000  0.2928800  2
    175    178    179    442     1  0.0000000  0.4184000  4
    176    174    173    180     1  0.0000000  0.6508444  3
    176    177    416    415     1  180.0000771  6.2760000  1
    176    177    416    415     1  0.0000000  0.0000000  2
    177    416    415    414     1  0.0000000  2.2175200  1
    177    416    415    414     1  0.0000000  0.0000000  2
    177    416    415    414     1  180.0000771  0.6276000  3
    177    416    415    414     1  180.0000771  2.0920000  4
    178    175    173    180     1  0.0000000  0.6508444  3
    178    179    442    441     1  180.0000771  6.2760000  1
    178    179    442    441     1  0.0000000  0.0000000  2
    179    442    441    440     1  0.0000000  2.2175200  1
    179    442    441    440     1  0.0000000  0.0000000  2
    179    442    441    440     1  180.0000771  0.6276000  3
    179    442    441    440     1  180.0000771  2.0920000  4
    183    177    416    415     1  180.0000771  10.4600000  2
    184    179    442    441     1  180.0000771  10.4600000  2
    199    200    202    203     1  0.0000000  0.6508444  3
    199    201    204    205     1  0.0000000  0.6508444  3
    199    206    207    208     1  0.0000000  0.6508444  3
    200    199    201    204     1  0.0000000  0.6508444  3
    200    199    206    207     1  0.0000000  0.6508444  3
    200    202    203    209     1  180.0000771  0.0000000  2
    200    202    203    468     1  0.0000000  0.2928800  2
    200    202    203    468     1  0.0000000  0.4184000  4
    201    199    200    202     1  0.0000000  0.6508444  3
    201    199    206    207     1  0.0000000  0.6508444  3
    201    204    205    210     1  180.0000771  0.0000000  2
    201    204    205    494     1  0.0000000  0.2928800  2
    201    204    205    494     1  0.0000000  0.4184000  4
    202    200    199    206     1  0.0000000  0.6508444  3
    202    203    468    467     1  180.0000771  6.2760000  1
    202    203    468    467     1  0.0000000  0.0000000  2
    203    468    467    466     1  0.0000000  2.2175200  1
    203    468    467    466     1  0.0000000  0.0000000  2
    203    468    467    466     1  180.0000771  0.6276000  3
    203    468    467    466     1  180.0000771  2.0920000  4
    204    201    199    206     1  0.0000000  0.6508444  3
    204    205    494    493     1  180.0000771  6.2760000  1
    204    205    494    493     1  0.0000000  0.0000000  2
    205    494    493    492     1  0.0000000  2.2175200  1
    205    494    493    492     1  0.0000000  0.0000000  2
    205    494    493    492     1  180.0000771  0.6276000  3
    205    494    493    492     1  180.0000771  2.0920000  4
    209    203    468    467     1  180.0000771  10.4600000  2
    210    205    494    493     1  180.0000771  10.4600000  2
    225    226    228    229     1  0.0000000  0.6508444  3
    225    227    230    231     1  0.0000000  0.6508444  3
    225    232    233    234     1  0.0000000  0.6508444  3
    226    225    227    230     1  0.0000000  0.6508444  3
    226    225    232    233     1  0.0000000  0.6508444  3
    226    228    229    235     1  180.0000771  0.0000000  2
    226    228    229    520     1  0.0000000  0.2928800  2
    226    228    229    520     1  0.0000000  0.4184000  4
    227    225    226    228     1  0.0000000  0.6508444  3
    227    225    232    233     1  0.0000000  0.6508444  3
    227    230    231    236     1  180.0000771  0.0000000  2
    227    230    231    546     1  0.0000000  0.2928800  2
    227    230    231    546     1  0.0000000  0.4184000  4
    228    226    225    232     1  0.0000000  0.6508444  3
    228    229    520    519     1  180.0000771  6.2760000  1
    228    229    520    519     1  0.0000000  0.0000000  2
    229    520    519    518     1  0.0000000  2.2175200  1
    229    520    519    518     1  0.0000000  0.0000000  2
    229    520    519    518     1  180.0000771  0.6276000  3
    229    520    519    518     1  180.0000771  2.0920000  4
    230    227    225    232     1  0.0000000  0.6508444  3
    230    231    546    545     1  180.0000771  6.2760000  1
    230    231    546    545     1  0.0000000  0.0000000  2
    231    546    545    544     1  0.0000000  2.2175200  1
    231    546    545    544     1  0.0000000  0.0000000  2
    231    546    545    544     1  180.0000771  0.6276000  3
    231    546    545    544     1  180.0000771  2.0920000  4
    235    229    520    519     1  180.0000771  10.4600000  2
    236    231    546    545     1  180.0000771  10.4600000  2
    251    252    254    255     1  0.0000000  0.6508444  3
    251    253    256    257     1  0.0000000  0.6508444  3
    251    258    259    260     1  0.0000000  0.6508444  3
    252    251    253    256     1  0.0000000  0.6508444  3
    252    251    258    259     1  0.0000000  0.6508444  3
    252    254    255    261     1  180.0000771  0.0000000  2
    252    254    255    572     1  0.0000000  0.2928800  2
    252    254    255    572     1  0.0000000  0.4184000  4
    253    251    252    254     1  0.0000000  0.6508444  3
    253    251    258    259     1  0.0000000  0.6508444  3
    253    256    257    262     1  180.0000771  0.0000000  2
    253    256    257    598     1  0.0000000  0.2928800  2
    253    256    257    598     1  0.0000000  0.4184000  4
    254    252    251    258     1  0.0000000  0.6508444  3
    254    255    572    571     1  180.0000771  6.2760000  1
    254    255    572    571     1  0.0000000  0.0000000  2
    255    572    571    570     1  0.0000000  2.2175200  1
    255    572    571    570     1  0.0000000  0.0000000  2
    255    572    571    570     1  180.0000771  0.6276000  3
    255    572    571    570     1  180.0000771  2.0920000  4
    256    253    251    258     1  0.0000000  0.6508444  3
    256    257    598    597     1  180.0000771  6.2760000  1
    256    257    598    597     1  0.0000000  0.0000000  2
    257    598    597    596     1  0.0000000  2.2175200  1
    257    598    597    596     1  0.0000000  0.0000000  2
    257    598    597    596     1  180.0000771  0.6276000  3
    257    598    597    596     1  180.0000771  2.0920000  4
    261    255    572    571     1  180.0000771  10.4600000  2
    262    257    598    597     1  180.0000771  10.4600000  2
    277    278    280    281     1  0.0000000  0.6508444  3
    277    279    282    283     1  0.0000000  0.6508444  3
    277    284    285    286     1  0.0000000  0.6508444  3
    278    277    279    282     1  0.0000000  0.6508444  3
    278    277    284    285     1  0.0000000  0.6508444  3
    278    280    281    287     1  180.0000771  0.0000000  2
    278    280    281    624     1  0.0000000  0.2928800  2
    278    280    281    624     1  0.0000000  0.4184000  4
    279    277    278    280     1  0.0000000  0.6508444  3
    279    277    284    285     1  0.0000000  0.6508444  3
    279    282    283    288     1  180.0000771  0.0000000  2
    279    282    283    650     1  0.0000000  0.2928800  2
    279    282    283    650     1  0.0000000  0.4184000  4
    280    278    277    284     1  0.0000000  0.6508444  3
    280    281    624    623     1  180.0000771  6.2760000  1
    280    281    624    623     1  0.0000000  0.0000000  2
    281    624    623    622     1  0.0000000  2.2175200  1
    281    624    623    622     1  0.0000000  0.0000000  2
    281    624    623    622     1  180.0000771  0.6276000  3
    281    624    623    622     1  180.0000771  2.0920000  4
    282    279    277    284     1  0.0000000  0.6508444  3
    282    283    650    649     1  180.0000771  6.2760000  1
    282    283    650    649     1  0.0000000  0.0000000  2
    283    650    649    648     1  0.0000000  2.2175200  1
    283    650    649    648     1  0.0000000  0.0000000  2
    283    650    649    648     1  180.0000771  0.6276000  3
    283    650    649    648     1  180.0000771  2.0920000  4
    287    281    624    623     1  180.0000771  10.4600000  2
    288    283    650    649     1  180.0000771  10.4600000  2
    303    304    306    307     1  0.0000000  0.6508444  3
    303    305    308    309     1  0.0000000  0.6508444  3
    303    310    311    312     1  0.0000000  0.6508444  3
    304    303    305    308     1  0.0000000  0.6508444  3
    304    303    310    311     1  0.0000000  0.6508444  3
    304    306    307    313     1  180.0000771  0.0000000  2
    304    306    307    676     1  0.0000000  0.2928800  2
    304    306    307    676     1  0.0000000  0.4184000  4
    305    303    304    306     1  0.0000000  0.6508444  3
    305    303    310    311     1  0.0000000  0.6508444  3
    305    308    309    314     1  180.0000771  0.0000000  2
    305    308    309    702     1  0.0000000  0.2928800  2
    305    308    309    702     1  0.0000000  0.4184000  4
    306    304    303    310     1  0.0000000  0.6508444  3
    306    307    676    675     1  180.0000771  6.2760000  1
    306    307    676    675     1  0.0000000  0.0000000  2
    307    676    675    674     1  0.0000000  2.2175200  1
    307    676    675    674     1  0.0000000  0.0000000  2
    307    676    675    674     1  180.0000771  0.6276000  3
    307    676    675    674     1  180.0000771  2.0920000  4
    308    305    303    310     1  0.0000000  0.6508444  3
    308    309    702    701     1  180.0000771  6.2760000  1
    308    309    702    701     1  0.0000000  0.0000000  2
    309    702    701    700     1  0.0000000  2.2175200  1
    309    702    701    700     1  0.0000000  0.0000000  2
    309    702    701    700     1  180.0000771  0.6276000  3
    309    702    701    700     1  180.0000771  2.0920000  4
    313    307    676    675     1  180.0000771  10.4600000  2
    314    309    702    701     1  180.0000771  10.4600000  2
    329    330    332    333     1  0.0000000  0.6508444  3
    329    331    334    335     1  0.0000000  0.6508444  3
    329    336    337    338     1  0.0000000  0.6508444  3
    330    329    331    334     1  0.0000000  0.6508444  3
    330    329    336    337     1  0.0000000  0.6508444  3
    330    332    333    339     1  180.0000771  0.0000000  2
    330    332    333    728     1  0.0000000  0.2928800  2
    330    332    333    728     1  0.0000000  0.4184000  4
    331    329    330    332     1  0.0000000  0.6508444  3
    331    329    336    337     1  0.0000000  0.6508444  3
    331    334    335    340     1  180.0000771  0.0000000  2
    331    334    335    754     1  0.0000000  0.2928800  2
    331    334    335    754     1  0.0000000  0.4184000  4
    332    330    329    336     1  0.0000000  0.6508444  3
    332    333    728    727     1  180.0000771  6.2760000  1
    332    333    728    727     1  0.0000000  0.0000000  2
    333    728    727    726     1  0.0000000  2.2175200  1
    333    728    727    726     1  0.0000000  0.0000000  2
    333    728    727    726     1  180.0000771  0.6276000  3
    333    728    727    726     1  180.0000771  2.0920000  4
    334    331    329    336     1  0.0000000  0.6508444  3
    334    335    754    753     1  180.0000771  6.2760000  1
    334    335    754    753     1  0.0000000  0.0000000  2
    335    754    753    752     1  0.0000000  2.2175200  1
    335    754    753    752     1  0.0000000  0.0000000  2
    335    754    753    752     1  180.0000771  0.6276000  3
    335    754    753    752     1  180.0000771  2.0920000  4
    339    333    728    727     1  180.0000771  10.4600000  2
    340    335    754    753     1  180.0000771  10.4600000  2
    355    356    358    359     1  0.0000000  0.6508444  3
    355    357    360    361     1  0.0000000  0.6508444  3
    355    362    363    364     1  0.0000000  0.6508444  3
    356    355    357    360     1  0.0000000  0.6508444  3
    356    355    362    363     1  0.0000000  0.6508444  3
    356    358    359    365     1  180.0000771  0.0000000  2
    356    358    359    780     1  0.0000000  0.2928800  2
    356    358    359    780     1  0.0000000  0.4184000  4
    357    355    356    358     1  0.0000000  0.6508444  3
    357    355    362    363     1  0.0000000  0.6508444  3
    357    360    361    366     1  180.0000771  0.0000000  2
    357    360    361    806     1  0.0000000  0.2928800  2
    357    360    361    806     1  0.0000000  0.4184000  4
    358    356    355    362     1  0.0000000  0.6508444  3
    358    359    780    779     1  180.0000771  6.2760000  1
    358    359    780    779     1  0.0000000  0.0000000  2
    359    780    779    778     1  0.0000000  2.2175200  1
    359    780    779    778     1  0.0000000  0.0000000  2
    359    780    779    778     1  180.0000771  0.6276000  3
    359    780    779    778     1  180.0000771  2.0920000  4
    360    357    355    362     1  0.0000000  0.6508444  3
    360    361    806    805     1  180.0000771  6.2760000  1
    360    361    806    805     1  0.0000000  0.0000000  2
    361    806    805    804     1  0.0000000  2.2175200  1
    361    806    805    804     1  0.0000000  0.0000000  2
    361    806    805    804     1  180.0000771  0.6276000  3
    361    806    805    804     1  180.0000771  2.0920000  4
    365    359    780    779     1  180.0000771  10.4600000  2
    366    361    806    805     1  180.0000771  10.4600000  2
    381    382    384    385     1  0.0000000  0.6508444  3
    381    383    386    387     1  0.0000000  0.6508444  3
    381    388    389    390     1  0.0000000  0.6508444  3
    382    381    383    386     1  0.0000000  0.6508444  3
    382    381    388    389     1  0.0000000  0.6508444  3
    382    384    385    391     1  180.0000771  0.0000000  2
    382    384    385    832     1  0.0000000  0.2928800  2
    382    384    385    832     1  0.0000000  0.4184000  4
    383    381    382    384     1  0.0000000  0.6508444  3
    383    381    388    389     1  0.0000000  0.6508444  3
    383    386    387    392     1  180.0000771  0.0000000  2
    383    386    387    858     1  0.0000000  0.2928800  2
    383    386    387    858     1  0.0000000  0.4184000  4
    384    382    381    388     1  0.0000000  0.6508444  3
    384    385    832    831     1  180.0000771  6.2760000  1
    384    385    832    831     1  0.0000000  0.0000000  2
    385    832    831    830     1  0.0000000  2.2175200  1
    385    832    831    830     1  0.0000000  0.0000000  2
    385    832    831    830     1  180.0000771  0.6276000  3
    385    832    831    830     1  180.0000771  2.0920000  4
    386    383    381    388     1  0.0000000  0.6508444  3
    386    387    858    857     1  180.0000771  6.2760000  1
    386    387    858    857     1  0.0000000  0.0000000  2
    387    858    857    856     1  0.0000000  2.2175200  1
    387    858    857    856     1  0.0000000  0.0000000  2
    387    858    857    856     1  180.0000771  0.6276000  3
    387    858    857    856     1  180.0000771  2.0920000  4
    391    385    832    831     1  180.0000771  10.4600000  2
    392    387    858    857     1  180.0000771  10.4600000  2
    407    408    410    411     1  0.0000000  0.6508444  3
    407    409    412    413     1  0.0000000  0.6508444  3
    407    414    415    416     1  0.0000000  0.6508444  3
    408    407    409    412     1  0.0000000  0.6508444  3
    408    407    414    415     1  0.0000000  0.6508444  3
    408    410    411    417     1  180.0000771  0.0000000  2
    408    410    411    884     1  0.0000000  0.2928800  2
    408    410    411    884     1  0.0000000  0.4184000  4
    409    407    408    410     1  0.0000000  0.6508444  3
    409    407    414    415     1  0.0000000  0.6508444  3
    409    412    413    418     1  180.0000771  0.0000000  2
    409    412    413    910     1  0.0000000  0.2928800  2
    409    412    413    910     1  0.0000000  0.4184000  4
    410    408    407    414     1  0.0000000  0.6508444  3
    410    411    884    883     1  180.0000771  6.2760000  1
    410    411    884    883     1  0.0000000  0.0000000  2
    411    884    883    882     1  0.0000000  2.2175200  1
    411    884    883    882     1  0.0000000  0.0000000  2
    411    884    883    882     1  180.0000771  0.6276000  3
    411    884    883    882     1  180.0000771  2.0920000  4
    412    409    407    414     1  0.0000000  0.6508444  3
    412    413    910    909     1  180.0000771  6.2760000  1
    412    413    910    909     1  0.0000000  0.0000000  2
    413    910    909    908     1  0.0000000  2.2175200  1
    413    910    909    908     1  0.0000000  0.0000000  2
    413    910    909    908     1  180.0000771  0.6276000  3
    413    910    909    908     1  180.0000771  2.0920000  4
    417    411    884    883     1  180.0000771  10.4600000  2
    418    413    910    909     1  180.0000771  10.4600000  2
    433    434    436    437     1  0.0000000  0.6508444  3
    433    435    438    439     1  0.0000000  0.6508444  3
    433    440    441    442     1  0.0000000  0.6508444  3
    434    433    435    438     1  0.0000000  0.6508444  3
    434    433    440    441     1  0.0000000  0.6508444  3
    434    436    437    443     1  180.0000771  0.0000000  2
    434    436    437    936     1  0.0000000  0.2928800  2
    434    436    437    936     1  0.0000000  0.4184000  4
    435    433    434    436     1  0.0000000  0.6508444  3
    435    433    440    441     1  0.0000000  0.6508444  3
    435    438    439    444     1  180.0000771  0.0000000  2
    435    438    439    962     1  0.0000000  0.2928800  2
    435    438    439    962     1  0.0000000  0.4184000  4
    436    434    433    440     1  0.0000000  0.6508444  3
    436    437    936    935     1  180.0000771  6.2760000  1
    436    437    936    935     1  0.0000000  0.0000000  2
    437    936    935    934     1  0.0000000  2.2175200  1
    437    936    935    934     1  0.0000000  0.0000000  2
    437    936    935    934     1  180.0000771  0.6276000  3
    437    936    935    934     1  180.0000771  2.0920000  4
    438    435    433    440     1  0.0000000  0.6508444  3
    438    439    962    961     1  180.0000771  6.2760000  1
    438    439    962    961     1  0.0000000  0.0000000  2
    439    962    961    960     1  0.0000000  2.2175200  1
    439    962    961    960     1  0.0000000  0.0000000  2
    439    962    961    960     1  180.0000771  0.6276000  3
    439    962    961    960     1  180.0000771  2.0920000  4
    443    437    936    935     1  180.0000771  10.4600000  2
    444    439    962    961     1  180.0000771  10.4600000  2
    459    460    462    463     1  0.0000000  0.6508444  3
    459    461    464    465     1  0.0000000  0.6508444  3
    459    466    467    468     1  0.0000000  0.6508444  3
    460    459    461    464     1  0.0000000  0.6508444  3
    460    459    466    467     1  0.0000000  0.6508444  3
    460    462    463    469     1  180.0000771  0.0000000  2
    460    462    463    988     1  0.0000000  0.2928800  2
    460    462    463    988     1  0.0000000  0.4184000  4
    461    459    460    462     1  0.0000000  0.6508444  3
    461    459    466    467     1  0.0000000  0.6508444  3
    461    464    465    470     1  180.0000771  0.0000000  2
    461    464    465   1014     1  0.0000000  0.2928800  2
    461    464    465   1014     1  0.0000000  0.4184000  4
    462    460    459    466     1  0.0000000  0.6508444  3
    462    463    988    987     1  180.0000771  6.2760000  1
    462    463    988    987     1  0.0000000  0.0000000  2
    463    988    987    986     1  0.0000000  2.2175200  1
    463    988    987    986     1  0.0000000  0.0000000  2
    463    988    987    986     1  180.0000771  0.6276000  3
    463    988    987    986     1  180.0000771  2.0920000  4
    464    461    459    466     1  0.0000000  0.6508444  3
    464    465   1014   1013     1  180.0000771  6.2760000  1
    464    465   1014   1013     1  0.0000000  0.0000000  2
    465   1014   1013   1012     1  0.0000000  2.2175200  1
    465   1014   1013   1012     1  0.0000000  0.0000000  2
    465   1014   1013   1012     1  180.0000771  0.6276000  3
    465   1014   1013   1012     1  180.0000771  2.0920000  4
    469    463    988    987     1  180.0000771  10.4600000  2
    470    465   1014   1013     1  180.0000771  10.4600000  2
    485    486    488    489     1  0.0000000  0.6508444  3
    485    487    490    491     1  0.0000000  0.6508444  3
    485    492    493    494     1  0.0000000  0.6508444  3
    486    485    487    490     1  0.0000000  0.6508444  3
    486    485    492    493     1  0.0000000  0.6508444  3
    486    488    489    495     1  180.0000771  0.0000000  2
    486    488    489   1040     1  0.0000000  0.2928800  2
    486    488    489   1040     1  0.0000000  0.4184000  4
    487    485    486    488     1  0.0000000  0.6508444  3
    487    485    492    493     1  0.0000000  0.6508444  3
    487    490    491    496     1  180.0000771  0.0000000  2
    487    490    491   1066     1  0.0000000  0.2928800  2
    487    490    491   1066     1  0.0000000  0.4184000  4
    488    486    485    492     1  0.0000000  0.6508444  3
    488    489   1040   1039     1  180.0000771  6.2760000  1
    488    489   1040   1039     1  0.0000000  0.0000000  2
    489   1040   1039   1038     1  0.0000000  2.2175200  1
    489   1040   1039   1038     1  0.0000000  0.0000000  2
    489   1040   1039   1038     1  180.0000771  0.6276000  3
    489   1040   1039   1038     1  180.0000771  2.0920000  4
    490    487    485    492     1  0.0000000  0.6508444  3
    490    491   1066   1065     1  180.0000771  6.2760000  1
    490    491   1066   1065     1  0.0000000  0.0000000  2
    491   1066   1065   1064     1  0.0000000  2.2175200  1
    491   1066   1065   1064     1  0.0000000  0.0000000  2
    491   1066   1065   1064     1  180.0000771  0.6276000  3
    491   1066   1065   1064     1  180.0000771  2.0920000  4
    495    489   1040   1039     1  180.0000771  10.4600000  2
    496    491   1066   1065     1  180.0000771  10.4600000  2
    511    512    514    515     1  0.0000000  0.6508444  3
    511    513    516    517     1  0.0000000  0.6508444  3
    511    518    519    520     1  0.0000000  0.6508444  3
    512    511    513    516     1  0.0000000  0.6508444  3
    512    511    518    519     1  0.0000000  0.6508444  3
    512    514    515    521     1  180.0000771  0.0000000  2
    512    514    515   1092     1  0.0000000  0.2928800  2
    512    514    515   1092     1  0.0000000  0.4184000  4
    513    511    512    514     1  0.0000000  0.6508444  3
    513    511    518    519     1  0.0000000  0.6508444  3
    513    516    517    522     1  180.0000771  0.0000000  2
    513    516    517   1118     1  0.0000000  0.2928800  2
    513    516    517   1118     1  0.0000000  0.4184000  4
    514    512    511    518     1  0.0000000  0.6508444  3
    514    515   1092   1091     1  180.0000771  6.2760000  1
    514    515   1092   1091     1  0.0000000  0.0000000  2
    515   1092   1091   1090     1  0.0000000  2.2175200  1
    515   1092   1091   1090     1  0.0000000  0.0000000  2
    515   1092   1091   1090     1  180.0000771  0.6276000  3
    515   1092   1091   1090     1  180.0000771  2.0920000  4
    516    513    511    518     1  0.0000000  0.6508444  3
    516    517   1118   1117     1  180.0000771  6.2760000  1
    516    517   1118   1117     1  0.0000000  0.0000000  2
    517   1118   1117   1116     1  0.0000000  2.2175200  1
    517   1118   1117   1116     1  0.0000000  0.0000000  2
    517   1118   1117   1116     1  180.0000771  0.6276000  3
    517   1118   1117   1116     1  180.0000771  2.0920000  4
    521    515   1092   1091     1  180.0000771  10.4600000  2
    522    517   1118   1117     1  180.0000771  10.4600000  2
    537    538    540    541     1  0.0000000  0.6508444  3
    537    539    542    543     1  0.0000000  0.6508444  3
    537    544    545    546     1  0.0000000  0.6508444  3
    538    537    539    542     1  0.0000000  0.6508444  3
    538    537    544    545     1  0.0000000  0.6508444  3
    538    540    541    547     1  180.0000771  0.0000000  2
    538    540    541   1144     1  0.0000000  0.2928800  2
    538    540    541   1144     1  0.0000000  0.4184000  4
    539    537    538    540     1  0.0000000  0.6508444  3
    539    537    544    545     1  0.0000000  0.6508444  3
    539    542    543    548     1  180.0000771  0.0000000  2
    539    542    543   1170     1  0.0000000  0.2928800  2
    539    542    543   1170     1  0.0000000  0.4184000  4
    540    538    537    544     1  0.0000000  0.6508444  3
    540    541   1144   1143     1  180.0000771  6.2760000  1
    540    541   1144   1143     1  0.0000000  0.0000000  2
    541   1144   1143   1142     1  0.0000000  2.2175200  1
    541   1144   1143   1142     1  0.0000000  0.0000000  2
    541   1144   1143   1142     1  180.0000771  0.6276000  3
    541   1144   1143   1142     1  180.0000771  2.0920000  4
    542    539    537    544     1  0.0000000  0.6508444  3
    542    543   1170   1169     1  180.0000771  6.2760000  1
    542    543   1170   1169     1  0.0000000  0.0000000  2
    543   1170   1169   1168     1  0.0000000  2.2175200  1
    543   1170   1169   1168     1  0.0000000  0.0000000  2
    543   1170   1169   1168     1  180.0000771  0.6276000  3
    543   1170   1169   1168     1  180.0000771  2.0920000  4
    547    541   1144   1143     1  180.0000771  10.4600000  2
    548    543   1170   1169     1  180.0000771  10.4600000  2
    563    564    566    567     1  0.0000000  0.6508444  3
    563    565    568    569     1  0.0000000  0.6508444  3
    563    570    571    572     1  0.0000000  0.6508444  3
    564    563    565    568     1  0.0000000  0.6508444  3
    564    563    570    571     1  0.0000000  0.6508444  3
    564    566    567    573     1  180.0000771  0.0000000  2
    564    566    567   1196     1  0.0000000  0.2928800  2
    564    566    567   1196     1  0.0000000  0.4184000  4
    565    563    564    566     1  0.0000000  0.6508444  3
    565    563    570    571     1  0.0000000  0.6508444  3
    565    568    569    574     1  180.0000771  0.0000000  2
    565    568    569   1222     1  0.0000000  0.2928800  2
    565    568    569   1222     1  0.0000000  0.4184000  4
    566    564    563    570     1  0.0000000  0.6508444  3
    566    567   1196   1195     1  180.0000771  6.2760000  1
    566    567   1196   1195     1  0.0000000  0.0000000  2
    567   1196   1195   1194     1  0.0000000  2.2175200  1
    567   1196   1195   1194     1  0.0000000  0.0000000  2
    567   1196   1195   1194     1  180.0000771  0.6276000  3
    567   1196   1195   1194     1  180.0000771  2.0920000  4
    568    565    563    570     1  0.0000000  0.6508444  3
    568    569   1222   1221     1  180.0000771  6.2760000  1
    568    569   1222   1221     1  0.0000000  0.0000000  2
    569   1222   1221   1220     1  0.0000000  2.2175200  1
    569   1222   1221   1220     1  0.0000000  0.0000000  2
    569   1222   1221   1220     1  180.0000771  0.6276000  3
    569   1222   1221   1220     1  180.0000771  2.0920000  4
    573    567   1196   1195     1  180.0000771  10.4600000  2
    574    569   1222   1221     1  180.0000771  10.4600000  2
    589    590    592    593     1  0.0000000  0.6508444  3
    589    591    594    595     1  0.0000000  0.6508444  3
    589    596    597    598     1  0.0000000  0.6508444  3
    590    589    591    594     1  0.0000000  0.6508444  3
    590    589    596    597     1  0.0000000  0.6508444  3
    590    592    593    599     1  180.0000771  0.0000000  2
    590    592    593   1248     1  0.0000000  0.2928800  2
    590    592    593   1248     1  0.0000000  0.4184000  4
    591    589    590    592     1  0.0000000  0.6508444  3
    591    589    596    597     1  0.0000000  0.6508444  3
    591    594    595    600     1  180.0000771  0.0000000  2
    591    594    595   1274     1  0.0000000  0.2928800  2
    591    594    595   1274     1  0.0000000  0.4184000  4
    592    590    589    596     1  0.0000000  0.6508444  3
    592    593   1248   1247     1  180.0000771  6.2760000  1
    592    593   1248   1247     1  0.0000000  0.0000000  2
    593   1248   1247   1246     1  0.0000000  2.2175200  1
    593   1248   1247   1246     1  0.0000000  0.0000000  2
    593   1248   1247   1246     1  180.0000771  0.6276000  3
    593   1248   1247   1246     1  180.0000771  2.0920000  4
    594    591    589    596     1  0.0000000  0.6508444  3
    594    595   1274   1273     1  180.0000771  6.2760000  1
    594    595   1274   1273     1  0.0000000  0.0000000  2
    595   1274   1273   1272     1  0.0000000  2.2175200  1
    595   1274   1273   1272     1  0.0000000  0.0000000  2
    595   1274   1273   1272     1  180.0000771  0.6276000  3
    595   1274   1273   1272     1  180.0000771  2.0920000  4
    599    593   1248   1247     1  180.0000771  10.4600000  2
    600    595   1274   1273     1  180.0000771  10.4600000  2
    615    616    618    619     1  0.0000000  0.6508444  3
    615    617    620    621     1  0.0000000  0.6508444  3
    615    622    623    624     1  0.0000000  0.6508444  3
    616    615    617    620     1  0.0000000  0.6508444  3
    616    615    622    623     1  0.0000000  0.6508444  3
    616    618    619    625     1  180.0000771  0.0000000  2
    616    618    619   1300     1  0.0000000  0.2928800  2
    616    618    619   1300     1  0.0000000  0.4184000  4
    617    615    616    618     1  0.0000000  0.6508444  3
    617    615    622    623     1  0.0000000  0.6508444  3
    617    620    621    626     1  180.0000771  0.0000000  2
    617    620    621   1326     1  0.0000000  0.2928800  2
    617    620    621   1326     1  0.0000000  0.4184000  4
    618    616    615    622     1  0.0000000  0.6508444  3
    618    619   1300   1299     1  180.0000771  6.2760000  1
    618    619   1300   1299     1  0.0000000  0.0000000  2
    619   1300   1299   1298     1  0.0000000  2.2175200  1
    619   1300   1299   1298     1  0.0000000  0.0000000  2
    619   1300   1299   1298     1  180.0000771  0.6276000  3
    619   1300   1299   1298     1  180.0000771  2.0920000  4
    620    617    615    622     1  0.0000000  0.6508444  3
    620    621   1326   1325     1  180.0000771  6.2760000  1
    620    621   1326   1325     1  0.0000000  0.0000000  2
    621   1326   1325   1324     1  0.0000000  2.2175200  1
    621   1326   1325   1324     1  0.0000000  0.0000000  2
    621   1326   1325   1324     1  180.0000771  0.6276000  3
    621   1326   1325   1324     1  180.0000771  2.0920000  4
    625    619   1300   1299     1  180.0000771  10.4600000  2
    626    621   1326   1325     1  180.0000771  10.4600000  2
    641    642    644    645     1  0.0000000  0.6508444  3
    641    643    646    647     1  0.0000000  0.6508444  3
    641    648    649    650     1  0.0000000  0.6508444  3
    642    641    643    646     1  0.0000000  0.6508444  3
    642    641    648    649     1  0.0000000  0.6508444  3
    642    644    645    651     1  180.0000771  0.0000000  2
    642    644    645   1352     1  0.0000000  0.2928800  2
    642    644    645   1352     1  0.0000000  0.4184000  4
    643    641    642    644     1  0.0000000  0.6508444  3
    643    641    648    649     1  0.0000000  0.6508444  3
    643    646    647    652     1  180.0000771  0.0000000  2
    643    646    647   1378     1  0.0000000  0.2928800  2
    643    646    647   1378     1  0.0000000  0.4184000  4
    644    642    641    648     1  0.0000000  0.6508444  3
    644    645   1352   1351     1  180.0000771  6.2760000  1
    644    645   1352   1351     1  0.0000000  0.0000000  2
    645   1352   1351   1350     1  0.0000000  2.2175200  1
    645   1352   1351   1350     1  0.0000000  0.0000000  2
    645   1352   1351   1350     1  180.0000771  0.6276000  3
    645   1352   1351   1350     1  180.0000771  2.0920000  4
    646    643    641    648     1  0.0000000  0.6508444  3
    646    647   1378   1377     1  180.0000771  6.2760000  1
    646    647   1378   1377     1  0.0000000  0.0000000  2
    647   1378   1377   1376     1  0.0000000  2.2175200  1
    647   1378   1377   1376     1  0.0000000  0.0000000  2
    647   1378   1377   1376     1  180.0000771  0.6276000  3
    647   1378   1377   1376     1  180.0000771  2.0920000  4
    651    645   1352   1351     1  180.0000771  10.4600000  2
    652    647   1378   1377     1  180.0000771  10.4600000  2
    667    668    670    671     1  0.0000000  0.6508444  3
    667    669    672    673     1  0.0000000  0.6508444  3
    667    674    675    676     1  0.0000000  0.6508444  3
    668    667    669    672     1  0.0000000  0.6508444  3
    668    667    674    675     1  0.0000000  0.6508444  3
    668    670    671    677     1  180.0000771  0.0000000  2
    668    670    671   1404     1  0.0000000  0.2928800  2
    668    670    671   1404     1  0.0000000  0.4184000  4
    669    667    668    670     1  0.0000000  0.6508444  3
    669    667    674    675     1  0.0000000  0.6508444  3
    669    672    673    678     1  180.0000771  0.0000000  2
    669    672    673   1430     1  0.0000000  0.2928800  2
    669    672    673   1430     1  0.0000000  0.4184000  4
    670    668    667    674     1  0.0000000  0.6508444  3
    670    671   1404   1403     1  180.0000771  6.2760000  1
    670    671   1404   1403     1  0.0000000  0.0000000  2
    671   1404   1403   1402     1  0.0000000  2.2175200  1
    671   1404   1403   1402     1  0.0000000  0.0000000  2
    671   1404   1403   1402     1  180.0000771  0.6276000  3
    671   1404   1403   1402     1  180.0000771  2.0920000  4
    672    669    667    674     1  0.0000000  0.6508444  3
    672    673   1430   1429     1  180.0000771  6.2760000  1
    672    673   1430   1429     1  0.0000000  0.0000000  2
    673   1430   1429   1428     1  0.0000000  2.2175200  1
    673   1430   1429   1428     1  0.0000000  0.0000000  2
    673   1430   1429   1428     1  180.0000771  0.6276000  3
    673   1430   1429   1428     1  180.0000771  2.0920000  4
    677    671   1404   1403     1  180.0000771  10.4600000  2
    678    673   1430   1429     1  180.0000771  10.4600000  2
    693    694    696    697     1  0.0000000  0.6508444  3
    693    695    698    699     1  0.0000000  0.6508444  3
    693    700    701    702     1  0.0000000  0.6508444  3
    694    693    695    698     1  0.0000000  0.6508444  3
    694    693    700    701     1  0.0000000  0.6508444  3
    694    696    697    703     1  180.0000771  0.0000000  2
    694    696    697   1456     1  0.0000000  0.2928800  2
    694    696    697   1456     1  0.0000000  0.4184000  4
    695    693    694    696     1  0.0000000  0.6508444  3
    695    693    700    701     1  0.0000000  0.6508444  3
    695    698    699    704     1  180.0000771  0.0000000  2
    695    698    699   1482     1  0.0000000  0.2928800  2
    695    698    699   1482     1  0.0000000  0.4184000  4
    696    694    693    700     1  0.0000000  0.6508444  3
    696    697   1456   1455     1  180.0000771  6.2760000  1
    696    697   1456   1455     1  0.0000000  0.0000000  2
    697   1456   1455   1454     1  0.0000000  2.2175200  1
    697   1456   1455   1454     1  0.0000000  0.0000000  2
    697   1456   1455   1454     1  180.0000771  0.6276000  3
    697   1456   1455   1454     1  180.0000771  2.0920000  4
    698    695    693    700     1  0.0000000  0.6508444  3
    698    699   1482   1481     1  180.0000771  6.2760000  1
    698    699   1482   1481     1  0.0000000  0.0000000  2
    699   1482   1481   1480     1  0.0000000  2.2175200  1
    699   1482   1481   1480     1  0.0000000  0.0000000  2
    699   1482   1481   1480     1  180.0000771  0.6276000  3
    699   1482   1481   1480     1  180.0000771  2.0920000  4
    703    697   1456   1455     1  180.0000771  10.4600000  2
    704    699   1482   1481     1  180.0000771  10.4600000  2
    719    720    722    723     1  0.0000000  0.6508444  3
    719    721    724    725     1  0.0000000  0.6508444  3
    719    726    727    728     1  0.0000000  0.6508444  3
    720    719    721    724     1  0.0000000  0.6508444  3
    720    719    726    727     1  0.0000000  0.6508444  3
    720    722    723    729     1  180.0000771  0.0000000  2
    720    722    723   1508     1  0.0000000  0.2928800  2
    720    722    723   1508     1  0.0000000  0.4184000  4
    721    719    720    722     1  0.0000000  0.6508444  3
    721    719    726    727     1  0.0000000  0.6508444  3
    721    724    725    730     1  180.0000771  0.0000000  2
    721    724    725   1534     1  0.0000000  0.2928800  2
    721    724    725   1534     1  0.0000000  0.4184000  4
    722    720    719    726     1  0.0000000  0.6508444  3
    722    723   1508   1507     1  180.0000771  6.2760000  1
    722    723   1508   1507     1  0.0000000  0.0000000  2
    723   1508   1507   1506     1  0.0000000  2.2175200  1
    723   1508   1507   1506     1  0.0000000  0.0000000  2
    723   1508   1507   1506     1  180.0000771  0.6276000  3
    723   1508   1507   1506     1  180.0000771  2.0920000  4
    724    721    719    726     1  0.0000000  0.6508444  3
    724    725   1534   1533     1  180.0000771  6.2760000  1
    724    725   1534   1533     1  0.0000000  0.0000000  2
    725   1534   1533   1532     1  0.0000000  2.2175200  1
    725   1534   1533   1532     1  0.0000000  0.0000000  2
    725   1534   1533   1532     1  180.0000771  0.6276000  3
    725   1534   1533   1532     1  180.0000771  2.0920000  4
    729    723   1508   1507     1  180.0000771  10.4600000  2
    730    725   1534   1533     1  180.0000771  10.4600000  2
    745    746    748    749     1  0.0000000  0.6508444  3
    745    747    750    751     1  0.0000000  0.6508444  3
    745    752    753    754     1  0.0000000  0.6508444  3
    746    745    747    750     1  0.0000000  0.6508444  3
    746    745    752    753     1  0.0000000  0.6508444  3
    746    748    749    755     1  180.0000771  0.0000000  2
    746    748    749   1560     1  0.0000000  0.2928800  2
    746    748    749   1560     1  0.0000000  0.4184000  4
    747    745    746    748     1  0.0000000  0.6508444  3
    747    745    752    753     1  0.0000000  0.6508444  3
    747    750    751    756     1  180.0000771  0.0000000  2
    747    750    751   1586     1  0.0000000  0.2928800  2
    747    750    751   1586     1  0.0000000  0.4184000  4
    748    746    745    752     1  0.0000000  0.6508444  3
    748    749   1560   1559     1  180.0000771  6.2760000  1
    748    749   1560   1559     1  0.0000000  0.0000000  2
    749   1560   1559   1558     1  0.0000000  2.2175200  1
    749   1560   1559   1558     1  0.0000000  0.0000000  2
    749   1560   1559   1558     1  180.0000771  0.6276000  3
    749   1560   1559   1558     1  180.0000771  2.0920000  4
    750    747    745    752     1  0.0000000  0.6508444  3
    750    751   1586   1585     1  180.0000771  6.2760000  1
    750    751   1586   1585     1  0.0000000  0.0000000  2
    751   1586   1585   1584     1  0.0000000  2.2175200  1
    751   1586   1585   1584     1  0.0000000  0.0000000  2
    751   1586   1585   1584     1  180.0000771  0.6276000  3
    751   1586   1585   1584     1  180.0000771  2.0920000  4
    755    749   1560   1559     1  180.0000771  10.4600000  2
    756    751   1586   1585     1  180.0000771  10.4600000  2
    771    772    774    775     1  0.0000000  0.6508444  3
    771    773    776    777     1  0.0000000  0.6508444  3
    771    778    779    780     1  0.0000000  0.6508444  3
    772    771    773    776     1  0.0000000  0.6508444  3
    772    771    778    779     1  0.0000000  0.6508444  3
    772    774    775    781     1  180.0000771  0.0000000  2
    772    774    775   1612     1  0.0000000  0.2928800  2
    772    774    775   1612     1  0.0000000  0.4184000  4
    773    771    772    774     1  0.0000000  0.6508444  3
    773    771    778    779     1  0.0000000  0.6508444  3
    773    776    777    782     1  180.0000771  0.0000000  2
    773    776    777   1638     1  0.0000000  0.2928800  2
    773    776    777   1638     1  0.0000000  0.4184000  4
    774    772    771    778     1  0.0000000  0.6508444  3
    774    775   1612   1611     1  180.0000771  6.2760000  1
    774    775   1612   1611     1  0.0000000  0.0000000  2
    775   1612   1611   1610     1  0.0000000  2.2175200  1
    775   1612   1611   1610     1  0.0000000  0.0000000  2
    775   1612   1611   1610     1  180.0000771  0.6276000  3
    775   1612   1611   1610     1  180.0000771  2.0920000  4
    776    773    771    778     1  0.0000000  0.6508444  3
    776    777   1638   1637     1  180.0000771  6.2760000  1
    776    777   1638   1637     1  0.0000000  0.0000000  2
    777   1638   1637   1636     1  0.0000000  2.2175200  1
    777   1638   1637   1636     1  0.0000000  0.0000000  2
    777   1638   1637   1636     1  180.0000771  0.6276000  3
    777   1638   1637   1636     1  180.0000771  2.0920000  4
    781    775   1612   1611     1  180.0000771  10.4600000  2
    782    777   1638   1637     1  180.0000771  10.4600000  2
    797    798    800    801     1  0.0000000  0.6508444  3
    797    799    802    803     1  0.0000000  0.6508444  3
    797    804    805    806     1  0.0000000  0.6508444  3
    798    797    799    802     1  0.0000000  0.6508444  3
    798    797    804    805     1  0.0000000  0.6508444  3
    798    800    801    807     1  180.0000771  0.0000000  2
    798    800    801   1664     1  0.0000000  0.2928800  2
    798    800    801   1664     1  0.0000000  0.4184000  4
    799    797    798    800     1  0.0000000  0.6508444  3
    799    797    804    805     1  0.0000000  0.6508444  3
    799    802    803    808     1  180.0000771  0.0000000  2
    799    802    803   1690     1  0.0000000  0.2928800  2
    799    802    803   1690     1  0.0000000  0.4184000  4
    800    798    797    804     1  0.0000000  0.6508444  3
    800    801   1664   1663     1  180.0000771  6.2760000  1
    800    801   1664   1663     1  0.0000000  0.0000000  2
    801   1664   1663   1662     1  0.0000000  2.2175200  1
    801   1664   1663   1662     1  0.0000000  0.0000000  2
    801   1664   1663   1662     1  180.0000771  0.6276000  3
    801   1664   1663   1662     1  180.0000771  2.0920000  4
    802    799    797    804     1  0.0000000  0.6508444  3
    802    803   1690   1689     1  180.0000771  6.2760000  1
    802    803   1690   1689     1  0.0000000  0.0000000  2
    803   1690   1689   1688     1  0.0000000  2.2175200  1
    803   1690   1689   1688     1  0.0000000  0.0000000  2
    803   1690   1689   1688     1  180.0000771  0.6276000  3
    803   1690   1689   1688     1  180.0000771  2.0920000  4
    807    801   1664   1663     1  180.0000771  10.4600000  2
    808    803   1690   1689     1  180.0000771  10.4600000  2
    823    824    826    827     1  0.0000000  0.6508444  3
    823    825    828    829     1  0.0000000  0.6508444  3
    823    830    831    832     1  0.0000000  0.6508444  3
    824    823    825    828     1  0.0000000  0.6508444  3
    824    823    830    831     1  0.0000000  0.6508444  3
    824    826    827    833     1  180.0000771  0.0000000  2
    824    826    827   1716     1  0.0000000  0.2928800  2
    824    826    827   1716     1  0.0000000  0.4184000  4
    825    823    824    826     1  0.0000000  0.6508444  3
    825    823    830    831     1  0.0000000  0.6508444  3
    825    828    829    834     1  180.0000771  0.0000000  2
    825    828    829   1742     1  0.0000000  0.2928800  2
    825    828    829   1742     1  0.0000000  0.4184000  4
    826    824    823    830     1  0.0000000  0.6508444  3
    826    827   1716   1715     1  180.0000771  6.2760000  1
    826    827   1716   1715     1  0.0000000  0.0000000  2
    827   1716   1715   1714     1  0.0000000  2.2175200  1
    827   1716   1715   1714     1  0.0000000  0.0000000  2
    827   1716   1715   1714     1  180.0000771  0.6276000  3
    827   1716   1715   1714     1  180.0000771  2.0920000  4
    828    825    823    830     1  0.0000000  0.6508444  3
    828    829   1742   1741     1  180.0000771  6.2760000  1
    828    829   1742   1741     1  0.0000000  0.0000000  2
    829   1742   1741   1740     1  0.0000000  2.2175200  1
    829   1742   1741   1740     1  0.0000000  0.0000000  2
    829   1742   1741   1740     1  180.0000771  0.6276000  3
    829   1742   1741   1740     1  180.0000771  2.0920000  4
    833    827   1716   1715     1  180.0000771  10.4600000  2
    834    829   1742   1741     1  180.0000771  10.4600000  2
    849    850    852    853     1  0.0000000  0.6508444  3
    849    851    854    855     1  0.0000000  0.6508444  3
    849    856    857    858     1  0.0000000  0.6508444  3
    850    849    851    854     1  0.0000000  0.6508444  3
    850    849    856    857     1  0.0000000  0.6508444  3
    850    852    853    859     1  180.0000771  0.0000000  2
    850    852    853   1768     1  0.0000000  0.2928800  2
    850    852    853   1768     1  0.0000000  0.4184000  4
    851    849    850    852     1  0.0000000  0.6508444  3
    851    849    856    857     1  0.0000000  0.6508444  3
    851    854    855    860     1  180.0000771  0.0000000  2
    851    854    855   1794     1  0.0000000  0.2928800  2
    851    854    855   1794     1  0.0000000  0.4184000  4
    852    850    849    856     1  0.0000000  0.6508444  3
    852    853   1768   1767     1  180.0000771  6.2760000  1
    852    853   1768   1767     1  0.0000000  0.0000000  2
    853   1768   1767   1766     1  0.0000000  2.2175200  1
    853   1768   1767   1766     1  0.0000000  0.0000000  2
    853   1768   1767   1766     1  180.0000771  0.6276000  3
    853   1768   1767   1766     1  180.0000771  2.0920000  4
    854    851    849    856     1  0.0000000  0.6508444  3
    854    855   1794   1793     1  180.0000771  6.2760000  1
    854    855   1794   1793     1  0.0000000  0.0000000  2
    855   1794   1793   1792     1  0.0000000  2.2175200  1
    855   1794   1793   1792     1  0.0000000  0.0000000  2
    855   1794   1793   1792     1  180.0000771  0.6276000  3
    855   1794   1793   1792     1  180.0000771  2.0920000  4
    859    853   1768   1767     1  180.0000771  10.4600000  2
    860    855   1794   1793     1  180.0000771  10.4600000  2
    875    876    878    879     1  0.0000000  0.6508444  3
    875    877    880    881     1  0.0000000  0.6508444  3
    875    882    883    884     1  0.0000000  0.6508444  3
    876    875    877    880     1  0.0000000  0.6508444  3
    876    875    882    883     1  0.0000000  0.6508444  3
    876    878    879    885     1  180.0000771  0.0000000  2
    876    878    879   1820     1  0.0000000  0.2928800  2
    876    878    879   1820     1  0.0000000  0.4184000  4
    877    875    876    878     1  0.0000000  0.6508444  3
    877    875    882    883     1  0.0000000  0.6508444  3
    877    880    881    886     1  180.0000771  0.0000000  2
    877    880    881   1846     1  0.0000000  0.2928800  2
    877    880    881   1846     1  0.0000000  0.4184000  4
    878    876    875    882     1  0.0000000  0.6508444  3
    878    879   1820   1819     1  180.0000771  6.2760000  1
    878    879   1820   1819     1  0.0000000  0.0000000  2
    879   1820   1819   1818     1  0.0000000  2.2175200  1
    879   1820   1819   1818     1  0.0000000  0.0000000  2
    879   1820   1819   1818     1  180.0000771  0.6276000  3
    879   1820   1819   1818     1  180.0000771  2.0920000  4
    880    877    875    882     1  0.0000000  0.6508444  3
    880    881   1846   1845     1  180.0000771  6.2760000  1
    880    881   1846   1845     1  0.0000000  0.0000000  2
    881   1846   1845   1844     1  0.0000000  2.2175200  1
    881   1846   1845   1844     1  0.0000000  0.0000000  2
    881   1846   1845   1844     1  180.0000771  0.6276000  3
    881   1846   1845   1844     1  180.0000771  2.0920000  4
    885    879   1820   1819     1  180.0000771  10.4600000  2
    886    881   1846   1845     1  180.0000771  10.4600000  2
    901    902    904    905     1  0.0000000  0.6508444  3
    901    903    906    907     1  0.0000000  0.6508444  3
    901    908    909    910     1  0.0000000  0.6508444  3
    902    901    903    906     1  0.0000000  0.6508444  3
    902    901    908    909     1  0.0000000  0.6508444  3
    902    904    905    911     1  180.0000771  0.0000000  2
    902    904    905   1872     1  0.0000000  0.2928800  2
    902    904    905   1872     1  0.0000000  0.4184000  4
    903    901    902    904     1  0.0000000  0.6508444  3
    903    901    908    909     1  0.0000000  0.6508444  3
    903    906    907    912     1  180.0000771  0.0000000  2
    903    906    907   1898     1  0.0000000  0.2928800  2
    903    906    907   1898     1  0.0000000  0.4184000  4
    904    902    901    908     1  0.0000000  0.6508444  3
    904    905   1872   1871     1  180.0000771  6.2760000  1
    904    905   1872   1871     1  0.0000000  0.0000000  2
    905   1872   1871   1870     1  0.0000000  2.2175200  1
    905   1872   1871   1870     1  0.0000000  0.0000000  2
    905   1872   1871   1870     1  180.0000771  0.6276000  3
    905   1872   1871   1870     1  180.0000771  2.0920000  4
    906    903    901    908     1  0.0000000  0.6508444  3
    906    907   1898   1897     1  180.0000771  6.2760000  1
    906    907   1898   1897     1  0.0000000  0.0000000  2
    907   1898   1897   1896     1  0.0000000  2.2175200  1
    907   1898   1897   1896     1  0.0000000  0.0000000  2
    907   1898   1897   1896     1  180.0000771  0.6276000  3
    907   1898   1897   1896     1  180.0000771  2.0920000  4
    911    905   1872   1871     1  180.0000771  10.4600000  2
    912    907   1898   1897     1  180.0000771  10.4600000  2
    927    928    930    931     1  0.0000000  0.6508444  3
    927    929    932    933     1  0.0000000  0.6508444  3
    927    934    935    936     1  0.0000000  0.6508444  3
    928    927    929    932     1  0.0000000  0.6508444  3
    928    927    934    935     1  0.0000000  0.6508444  3
    928    930    931    937     1  180.0000771  0.0000000  2
    928    930    931   1924     1  0.0000000  0.2928800  2
    928    930    931   1924     1  0.0000000  0.4184000  4
    929    927    928    930     1  0.0000000  0.6508444  3
    929    927    934    935     1  0.0000000  0.6508444  3
    929    932    933    938     1  180.0000771  0.0000000  2
    929    932    933   1950     1  0.0000000  0.2928800  2
    929    932    933   1950     1  0.0000000  0.4184000  4
    930    928    927    934     1  0.0000000  0.6508444  3
    930    931   1924   1923     1  180.0000771  6.2760000  1
    930    931   1924   1923     1  0.0000000  0.0000000  2
    931   1924   1923   1922     1  0.0000000  2.2175200  1
    931   1924   1923   1922     1  0.0000000  0.0000000  2
    931   1924   1923   1922     1  180.0000771  0.6276000  3
    931   1924   1923   1922     1  180.0000771  2.0920000  4
    932    929    927    934     1  0.0000000  0.6508444  3
    932    933   1950   1949     1  180.0000771  6.2760000  1
    932    933   1950   1949     1  0.0000000  0.0000000  2
    933   1950   1949   1948     1  0.0000000  2.2175200  1
    933   1950   1949   1948     1  0.0000000  0.0000000  2
    933   1950   1949   1948     1  180.0000771  0.6276000  3
    933   1950   1949   1948     1  180.0000771  2.0920000  4
    937    931   1924   1923     1  180.0000771  10.4600000  2
    938    933   1950   1949     1  180.0000771  10.4600000  2
    953    954    956    957     1  0.0000000  0.6508444  3
    953    955    958    959     1  0.0000000  0.6508444  3
    953    960    961    962     1  0.0000000  0.6508444  3
    954    953    955    958     1  0.0000000  0.6508444  3
    954    953    960    961     1  0.0000000  0.6508444  3
    954    956    957    963     1  180.0000771  0.0000000  2
    954    956    957   1976     1  0.0000000  0.2928800  2
    954    956    957   1976     1  0.0000000  0.4184000  4
    955    953    954    956     1  0.0000000  0.6508444  3
    955    953    960    961     1  0.0000000  0.6508444  3
    955    958    959    964     1  180.0000771  0.0000000  2
    955    958    959   2002     1  0.0000000  0.2928800  2
    955    958    959   2002     1  0.0000000  0.4184000  4
    956    954    953    960     1  0.0000000  0.6508444  3
    956    957   1976   1975     1  180.0000771  6.2760000  1
    956    957   1976   1975     1  0.0000000  0.0000000  2
    957   1976   1975   1974     1  0.0000000  2.2175200  1
    957   1976   1975   1974     1  0.0000000  0.0000000  2
    957   1976   1975   1974     1  180.0000771  0.6276000  3
    957   1976   1975   1974     1  180.0000771  2.0920000  4
    958    955    953    960     1  0.0000000  0.6508444  3
    958    959   2002   2001     1  180.0000771  6.2760000  1
    958    959   2002   2001     1  0.0000000  0.0000000  2
    959   2002   2001   2000     1  0.0000000  2.2175200  1
    959   2002   2001   2000     1  0.0000000  0.0000000  2
    959   2002   2001   2000     1  180.0000771  0.6276000  3
    959   2002   2001   2000     1  180.0000771  2.0920000  4
    963    957   1976   1975     1  180.0000771  10.4600000  2
    964    959   2002   2001     1  180.0000771  10.4600000  2
    979    980    982    983     1  0.0000000  0.6508444  3
    979    981    984    985     1  0.0000000  0.6508444  3
    979    986    987    988     1  0.0000000  0.6508444  3
    980    979    981    984     1  0.0000000  0.6508444  3
    980    979    986    987     1  0.0000000  0.6508444  3
    980    982    983    989     1  180.0000771  0.0000000  2
    980    982    983   2028     1  0.0000000  0.2928800  2
    980    982    983   2028     1  0.0000000  0.4184000  4
    981    979    980    982     1  0.0000000  0.6508444  3
    981    979    986    987     1  0.0000000  0.6508444  3
    981    984    985    990     1  180.0000771  0.0000000  2
    981    984    985   2054     1  0.0000000  0.2928800  2
    981    984    985   2054     1  0.0000000  0.4184000  4
    982    980    979    986     1  0.0000000  0.6508444  3
    982    983   2028   2027     1  180.0000771  6.2760000  1
    982    983   2028   2027     1  0.0000000  0.0000000  2
    983   2028   2027   2026     1  0.0000000  2.2175200  1
    983   2028   2027   2026     1  0.0000000  0.0000000  2
    983   2028   2027   2026     1  180.0000771  0.6276000  3
    983   2028   2027   2026     1  180.0000771  2.0920000  4
    984    981    979    986     1  0.0000000  0.6508444  3
    984    985   2054   2053     1  180.0000771  6.2760000  1
    984    985   2054   2053     1  0.0000000  0.0000000  2
    985   2054   2053   2052     1  0.0000000  2.2175200  1
    985   2054   2053   2052     1  0.0000000  0.0000000  2
    985   2054   2053   2052     1  180.0000771  0.6276000  3
    985   2054   2053   2052     1  180.0000771  2.0920000  4
    989    983   2028   2027     1  180.0000771  10.4600000  2
    990    985   2054   2053     1  180.0000771  10.4600000  2
   1005   1006   1008   1009     1  0.0000000  0.6508444  3
   1005   1007   1010   1011     1  0.0000000  0.6508444  3
   1005   1012   1013   1014     1  0.0000000  0.6508444  3
   1006   1005   1007   1010     1  0.0000000  0.6508444  3
   1006   1005   1012   1013     1  0.0000000  0.6508444  3
   1006   1008   1009   1015     1  180.0000771  0.0000000  2
   1006   1008   1009   2080     1  0.0000000  0.2928800  2
   1006   1008   1009   2080     1  0.0000000  0.4184000  4
   1007   1005   1006   1008     1  0.0000000  0.6508444  3
   1007   1005   1012   1013     1  0.0000000  0.6508444  3
   1007   1010   1011   1016     1  180.0000771  0.0000000  2
   1007   1010   1011   2106     1  0.0000000  0.2928800  2
   1007   1010   1011   2106     1  0.0000000  0.4184000  4
   1008   1006   1005   1012     1  0.0000000  0.6508444  3
   1008   1009   2080   2079     1  180.0000771  6.2760000  1
   1008   1009   2080   2079     1  0.0000000  0.0000000  2
   1009   2080   2079   2078     1  0.0000000  2.2175200  1
   1009   2080   2079   2078     1  0.0000000  0.0000000  2
   1009   2080   2079   2078     1  180.0000771  0.6276000  3
   1009   2080   2079   2078     1  180.0000771  2.0920000  4
   1010   1007   1005   1012     1  0.0000000  0.6508444  3
   1010   1011   2106   2105     1  180.0000771  6.2760000  1
   1010   1011   2106   2105     1  0.0000000  0.0000000  2
   1011   2106   2105   2104     1  0.0000000  2.2175200  1
   1011   2106   2105   2104     1  0.0000000  0.0000000  2
   1011   2106   2105   2104     1  180.0000771  0.6276000  3
   1011   2106   2105   2104     1  180.0000771  2.0920000  4
   1015   1009   2080   2079     1  180.0000771  10.4600000  2
   1016   1011   2106   2105     1  180.0000771  10.4600000  2
   1031   1032   1034   1035     1  0.0000000  0.6508444  3
   1031   1033   1036   1037     1  0.0000000  0.6508444  3
   1031   1038   1039   1040     1  0.0000000  0.6508444  3
   1032   1031   1033   1036     1  0.0000000  0.6508444  3
   1032   1031   1038   1039     1  0.0000000  0.6508444  3
   1032   1034   1035   1041     1  180.0000771  0.0000000  2
   1032   1034   1035   2132     1  0.0000000  0.2928800  2
   1032   1034   1035   2132     1  0.0000000  0.4184000  4
   1033   1031   1032   1034     1  0.0000000  0.6508444  3
   1033   1031   1038   1039     1  0.0000000  0.6508444  3
   1033   1036   1037   1042     1  180.0000771  0.0000000  2
   1033   1036   1037   2158     1  0.0000000  0.2928800  2
   1033   1036   1037   2158     1  0.0000000  0.4184000  4
   1034   1032   1031   1038     1  0.0000000  0.6508444  3
   1034   1035   2132   2131     1  180.0000771  6.2760000  1
   1034   1035   2132   2131     1  0.0000000  0.0000000  2
   1035   2132   2131   2130     1  0.0000000  2.2175200  1
   1035   2132   2131   2130     1  0.0000000  0.0000000  2
   1035   2132   2131   2130     1  180.0000771  0.6276000  3
   1035   2132   2131   2130     1  180.0000771  2.0920000  4
   1036   1033   1031   1038     1  0.0000000  0.6508444  3
   1036   1037   2158   2157     1  180.0000771  6.2760000  1
   1036   1037   2158   2157     1  0.0000000  0.0000000  2
   1037   2158   2157   2156     1  0.0000000  2.2175200  1
   1037   2158   2157   2156     1  0.0000000  0.0000000  2
   1037   2158   2157   2156     1  180.0000771  0.6276000  3
   1037   2158   2157   2156     1  180.0000771  2.0920000  4
   1041   1035   2132   2131     1  180.0000771  10.4600000  2
   1042   1037   2158   2157     1  180.0000771  10.4600000  2
   1057   1058   1060   1061     1  0.0000000  0.6508444  3
   1057   1059   1062   1063     1  0.0000000  0.6508444  3
   1057   1064   1065   1066     1  0.0000000  0.6508444  3
   1058   1057   1059   1062     1  0.0000000  0.6508444  3
   1058   1057   1064   1065     1  0.0000000  0.6508444  3
   1058   1060   1061   1067     1  180.0000771  0.0000000  2
   1058   1060   1061   2184     1  0.0000000  0.2928800  2
   1058   1060   1061   2184     1  0.0000000  0.4184000  4
   1059   1057   1058   1060     1  0.0000000  0.6508444  3
   1059   1057   1064   1065     1  0.0000000  0.6508444  3
   1059   1062   1063   1068     1  180.0000771  0.0000000  2
   1059   1062   1063   2210     1  0.0000000  0.2928800  2
   1059   1062   1063   2210     1  0.0000000  0.4184000  4
   1060   1058   1057   1064     1  0.0000000  0.6508444  3
   1060   1061   2184   2183     1  180.0000771  6.2760000  1
   1060   1061   2184   2183     1  0.0000000  0.0000000  2
   1061   2184   2183   2182     1  0.0000000  2.2175200  1
   1061   2184   2183   2182     1  0.0000000  0.0000000  2
   1061   2184   2183   2182     1  180.0000771  0.6276000  3
   1061   2184   2183   2182     1  180.0000771  2.0920000  4
   1062   1059   1057   1064     1  0.0000000  0.6508444  3
   1062   1063   2210   2209     1  180.0000771  6.2760000  1
   1062   1063   2210   2209     1  0.0000000  0.0000000  2
   1063   2210   2209   2208     1  0.0000000  2.2175200  1
   1063   2210   2209   2208     1  0.0000000  0.0000000  2
   1063   2210   2209   2208     1  180.0000771  0.6276000  3
   1063   2210   2209   2208     1  180.0000771  2.0920000  4
   1067   1061   2184   2183     1  180.0000771  10.4600000  2
   1068   1063   2210   2209     1  180.0000771  10.4600000  2
   1083   1084   1086   1087     1  0.0000000  0.6508444  3
   1083   1085   1088   1089     1  0.0000000  0.6508444  3
   1083   1090   1091   1092     1  0.0000000  0.6508444  3
   1084   1083   1085   1088     1  0.0000000  0.6508444  3
   1084   1083   1090   1091     1  0.0000000  0.6508444  3
   1084   1086   1087   1093     1  180.0000771  0.0000000  2
   1084   1086   1087   2236     1  0.0000000  0.2928800  2
   1084   1086   1087   2236     1  0.0000000  0.4184000  4
   1085   1083   1084   1086     1  0.0000000  0.6508444  3
   1085   1083   1090   1091     1  0.0000000  0.6508444  3
   1085   1088   1089   1094     1  180.0000771  0.0000000  2
   1085   1088   1089   2262     1  0.0000000  0.2928800  2
   1085   1088   1089   2262     1  0.0000000  0.4184000  4
   1086   1084   1083   1090     1  0.0000000  0.6508444  3
   1086   1087   2236   2235     1  180.0000771  6.2760000  1
   1086   1087   2236   2235     1  0.0000000  0.0000000  2
   1087   2236   2235   2234     1  0.0000000  2.2175200  1
   1087   2236   2235   2234     1  0.0000000  0.0000000  2
   1087   2236   2235   2234     1  180.0000771  0.6276000  3
   1087   2236   2235   2234     1  180.0000771  2.0920000  4
   1088   1085   1083   1090     1  0.0000000  0.6508444  3
   1088   1089   2262   2261     1  180.0000771  6.2760000  1
   1088   1089   2262   2261     1  0.0000000  0.0000000  2
   1089   2262   2261   2260     1  0.0000000  2.2175200  1
   1089   2262   2261   2260     1  0.0000000  0.0000000  2
   1089   2262   2261   2260     1  180.0000771  0.6276000  3
   1089   2262   2261   2260     1  180.0000771  2.0920000  4
   1093   1087   2236   2235     1  180.0000771  10.4600000  2
   1094   1089   2262   2261     1  180.0000771  10.4600000  2
   1109   1110   1112   1113     1  0.0000000  0.6508444  3
   1109   1111   1114   1115     1  0.0000000  0.6508444  3
   1109   1116   1117   1118     1  0.0000000  0.6508444  3
   1110   1109   1111   1114     1  0.0000000  0.6508444  3
   1110   1109   1116   1117     1  0.0000000  0.6508444  3
   1110   1112   1113   1119     1  180.0000771  0.0000000  2
   1110   1112   1113   2288     1  0.0000000  0.2928800  2
   1110   1112   1113   2288     1  0.0000000  0.4184000  4
   1111   1109   1110   1112     1  0.0000000  0.6508444  3
   1111   1109   1116   1117     1  0.0000000  0.6508444  3
   1111   1114   1115   1120     1  180.0000771  0.0000000  2
   1111   1114   1115   2314     1  0.0000000  0.2928800  2
   1111   1114   1115   2314     1  0.0000000  0.4184000  4
   1112   1110   1109   1116     1  0.0000000  0.6508444  3
   1112   1113   2288   2287     1  180.0000771  6.2760000  1
   1112   1113   2288   2287     1  0.0000000  0.0000000  2
   1113   2288   2287   2286     1  0.0000000  2.2175200  1
   1113   2288   2287   2286     1  0.0000000  0.0000000  2
   1113   2288   2287   2286     1  180.0000771  0.6276000  3
   1113   2288   2287   2286     1  180.0000771  2.0920000  4
   1114   1111   1109   1116     1  0.0000000  0.6508444  3
   1114   1115   2314   2313     1  180.0000771  6.2760000  1
   1114   1115   2314   2313     1  0.0000000  0.0000000  2
   1115   2314   2313   2312     1  0.0000000  2.2175200  1
   1115   2314   2313   2312     1  0.0000000  0.0000000  2
   1115   2314   2313   2312     1  180.0000771  0.6276000  3
   1115   2314   2313   2312     1  180.0000771  2.0920000  4
   1119   1113   2288   2287     1  180.0000771  10.4600000  2
   1120   1115   2314   2313     1  180.0000771  10.4600000  2
   1135   1136   1138   1139     1  0.0000000  0.6508444  3
   1135   1137   1140   1141     1  0.0000000  0.6508444  3
   1135   1142   1143   1144     1  0.0000000  0.6508444  3
   1136   1135   1137   1140     1  0.0000000  0.6508444  3
   1136   1135   1142   1143     1  0.0000000  0.6508444  3
   1136   1138   1139   1145     1  180.0000771  0.0000000  2
   1136   1138   1139   2340     1  0.0000000  0.2928800  2
   1136   1138   1139   2340     1  0.0000000  0.4184000  4
   1137   1135   1136   1138     1  0.0000000  0.6508444  3
   1137   1135   1142   1143     1  0.0000000  0.6508444  3
   1137   1140   1141   1146     1  180.0000771  0.0000000  2
   1137   1140   1141   2366     1  0.0000000  0.2928800  2
   1137   1140   1141   2366     1  0.0000000  0.4184000  4
   1138   1136   1135   1142     1  0.0000000  0.6508444  3
   1138   1139   2340   2339     1  180.0000771  6.2760000  1
   1138   1139   2340   2339     1  0.0000000  0.0000000  2
   1139   2340   2339   2338     1  0.0000000  2.2175200  1
   1139   2340   2339   2338     1  0.0000000  0.0000000  2
   1139   2340   2339   2338     1  180.0000771  0.6276000  3
   1139   2340   2339   2338     1  180.0000771  2.0920000  4
   1140   1137   1135   1142     1  0.0000000  0.6508444  3
   1140   1141   2366   2365     1  180.0000771  6.2760000  1
   1140   1141   2366   2365     1  0.0000000  0.0000000  2
   1141   2366   2365   2364     1  0.0000000  2.2175200  1
   1141   2366   2365   2364     1  0.0000000  0.0000000  2
   1141   2366   2365   2364     1  180.0000771  0.6276000  3
   1141   2366   2365   2364     1  180.0000771  2.0920000  4
   1145   1139   2340   2339     1  180.0000771  10.4600000  2
   1146   1141   2366   2365     1  180.0000771  10.4600000  2
   1161   1162   1164   1165     1  0.0000000  0.6508444  3
   1161   1163   1166   1167     1  0.0000000  0.6508444  3
   1161   1168   1169   1170     1  0.0000000  0.6508444  3
   1162   1161   1163   1166     1  0.0000000  0.6508444  3
   1162   1161   1168   1169     1  0.0000000  0.6508444  3
   1162   1164   1165   1171     1  180.0000771  0.0000000  2
   1162   1164   1165   2392     1  0.0000000  0.2928800  2
   1162   1164   1165   2392     1  0.0000000  0.4184000  4
   1163   1161   1162   1164     1  0.0000000  0.6508444  3
   1163   1161   1168   1169     1  0.0000000  0.6508444  3
   1163   1166   1167   1172     1  180.0000771  0.0000000  2
   1163   1166   1167   2418     1  0.0000000  0.2928800  2
   1163   1166   1167   2418     1  0.0000000  0.4184000  4
   1164   1162   1161   1168     1  0.0000000  0.6508444  3
   1164   1165   2392   2391     1  180.0000771  6.2760000  1
   1164   1165   2392   2391     1  0.0000000  0.0000000  2
   1165   2392   2391   2390     1  0.0000000  2.2175200  1
   1165   2392   2391   2390     1  0.0000000  0.0000000  2
   1165   2392   2391   2390     1  180.0000771  0.6276000  3
   1165   2392   2391   2390     1  180.0000771  2.0920000  4
   1166   1163   1161   1168     1  0.0000000  0.6508444  3
   1166   1167   2418   2417     1  180.0000771  6.2760000  1
   1166   1167   2418   2417     1  0.0000000  0.0000000  2
   1167   2418   2417   2416     1  0.0000000  2.2175200  1
   1167   2418   2417   2416     1  0.0000000  0.0000000  2
   1167   2418   2417   2416     1  180.0000771  0.6276000  3
   1167   2418   2417   2416     1  180.0000771  2.0920000  4
   1171   1165   2392   2391     1  180.0000771  10.4600000  2
   1172   1167   2418   2417     1  180.0000771  10.4600000  2
   1187   1188   1190   1191     1  0.0000000  0.6508444  3
   1187   1189   1192   1193     1  0.0000000  0.6508444  3
   1187   1194   1195   1196     1  0.0000000  0.6508444  3
   1188   1187   1189   1192     1  0.0000000  0.6508444  3
   1188   1187   1194   1195     1  0.0000000  0.6508444  3
   1188   1190   1191   1197     1  180.0000771  0.0000000  2
   1188   1190   1191   2444     1  0.0000000  0.2928800  2
   1188   1190   1191   2444     1  0.0000000  0.4184000  4
   1189   1187   1188   1190     1  0.0000000  0.6508444  3
   1189   1187   1194   1195     1  0.0000000  0.6508444  3
   1189   1192   1193   1198     1  180.0000771  0.0000000  2
   1189   1192   1193   2470     1  0.0000000  0.2928800  2
   1189   1192   1193   2470     1  0.0000000  0.4184000  4
   1190   1188   1187   1194     1  0.0000000  0.6508444  3
   1190   1191   2444   2443     1  180.0000771  6.2760000  1
   1190   1191   2444   2443     1  0.0000000  0.0000000  2
   1191   2444   2443   2442     1  0.0000000  2.2175200  1
   1191   2444   2443   2442     1  0.0000000  0.0000000  2
   1191   2444   2443   2442     1  180.0000771  0.6276000  3
   1191   2444   2443   2442     1  180.0000771  2.0920000  4
   1192   1189   1187   1194     1  0.0000000  0.6508444  3
   1192   1193   2470   2469     1  180.0000771  6.2760000  1
   1192   1193   2470   2469     1  0.0000000  0.0000000  2
   1193   2470   2469   2468     1  0.0000000  2.2175200  1
   1193   2470   2469   2468     1  0.0000000  0.0000000  2
   1193   2470   2469   2468     1  180.0000771  0.6276000  3
   1193   2470   2469   2468     1  180.0000771  2.0920000  4
   1197   1191   2444   2443     1  180.0000771  10.4600000  2
   1198   1193   2470   2469     1  180.0000771  10.4600000  2
   1213   1214   1216   1217     1  0.0000000  0.6508444  3
   1213   1215   1218   1219     1  0.0000000  0.6508444  3
   1213   1220   1221   1222     1  0.0000000  0.6508444  3
   1214   1213   1215   1218     1  0.0000000  0.6508444  3
   1214   1213   1220   1221     1  0.0000000  0.6508444  3
   1214   1216   1217   1223     1  180.0000771  0.0000000  2
   1214   1216   1217   2496     1  0.0000000  0.2928800  2
   1214   1216   1217   2496     1  0.0000000  0.4184000  4
   1215   1213   1214   1216     1  0.0000000  0.6508444  3
   1215   1213   1220   1221     1  0.0000000  0.6508444  3
   1215   1218   1219   1224     1  180.0000771  0.0000000  2
   1215   1218   1219   2522     1  0.0000000  0.2928800  2
   1215   1218   1219   2522     1  0.0000000  0.4184000  4
   1216   1214   1213   1220     1  0.0000000  0.6508444  3
   1216   1217   2496   2495     1  180.0000771  6.2760000  1
   1216   1217   2496   2495     1  0.0000000  0.0000000  2
   1217   2496   2495   2494     1  0.0000000  2.2175200  1
   1217   2496   2495   2494     1  0.0000000  0.0000000  2
   1217   2496   2495   2494     1  180.0000771  0.6276000  3
   1217   2496   2495   2494     1  180.0000771  2.0920000  4
   1218   1215   1213   1220     1  0.0000000  0.6508444  3
   1218   1219   2522   2521     1  180.0000771  6.2760000  1
   1218   1219   2522   2521     1  0.0000000  0.0000000  2
   1219   2522   2521   2520     1  0.0000000  2.2175200  1
   1219   2522   2521   2520     1  0.0000000  0.0000000  2
   1219   2522   2521   2520     1  180.0000771  0.6276000  3
   1219   2522   2521   2520     1  180.0000771  2.0920000  4
   1223   1217   2496   2495     1  180.0000771  10.4600000  2
   1224   1219   2522   2521     1  180.0000771  10.4600000  2
   1239   1240   1242   1243     1  0.0000000  0.6508444  3
   1239   1241   1244   1245     1  0.0000000  0.6508444  3
   1239   1246   1247   1248     1  0.0000000  0.6508444  3
   1240   1239   1241   1244     1  0.0000000  0.6508444  3
   1240   1239   1246   1247     1  0.0000000  0.6508444  3
   1240   1242   1243   1249     1  180.0000771  0.0000000  2
   1240   1242   1243   2548     1  0.0000000  0.2928800  2
   1240   1242   1243   2548     1  0.0000000  0.4184000  4
   1241   1239   1240   1242     1  0.0000000  0.6508444  3
   1241   1239   1246   1247     1  0.0000000  0.6508444  3
   1241   1244   1245   1250     1  180.0000771  0.0000000  2
   1241   1244   1245   2574     1  0.0000000  0.2928800  2
   1241   1244   1245   2574     1  0.0000000  0.4184000  4
   1242   1240   1239   1246     1  0.0000000  0.6508444  3
   1242   1243   2548   2547     1  180.0000771  6.2760000  1
   1242   1243   2548   2547     1  0.0000000  0.0000000  2
   1243   2548   2547   2546     1  0.0000000  2.2175200  1
   1243   2548   2547   2546     1  0.0000000  0.0000000  2
   1243   2548   2547   2546     1  180.0000771  0.6276000  3
   1243   2548   2547   2546     1  180.0000771  2.0920000  4
   1244   1241   1239   1246     1  0.0000000  0.6508444  3
   1244   1245   2574   2573     1  180.0000771  6.2760000  1
   1244   1245   2574   2573     1  0.0000000  0.0000000  2
   1245   2574   2573   2572     1  0.0000000  2.2175200  1
   1245   2574   2573   2572     1  0.0000000  0.0000000  2
   1245   2574   2573   2572     1  180.0000771  0.6276000  3
   1245   2574   2573   2572     1  180.0000771  2.0920000  4
   1249   1243   2548   2547     1  180.0000771  10.4600000  2
   1250   1245   2574   2573     1  180.0000771  10.4600000  2
   1265   1266   1268   1269     1  0.0000000  0.6508444  3
   1265   1267   1270   1271     1  0.0000000  0.6508444  3
   1265   1272   1273   1274     1  0.0000000  0.6508444  3
   1266   1265   1267   1270     1  0.0000000  0.6508444  3
   1266   1265   1272   1273     1  0.0000000  0.6508444  3
   1266   1268   1269   1275     1  180.0000771  0.0000000  2
   1266   1268   1269   2600     1  0.0000000  0.2928800  2
   1266   1268   1269   2600     1  0.0000000  0.4184000  4
   1267   1265   1266   1268     1  0.0000000  0.6508444  3
   1267   1265   1272   1273     1  0.0000000  0.6508444  3
   1267   1270   1271   1276     1  180.0000771  0.0000000  2
   1267   1270   1271   2626     1  0.0000000  0.2928800  2
   1267   1270   1271   2626     1  0.0000000  0.4184000  4
   1268   1266   1265   1272     1  0.0000000  0.6508444  3
   1268   1269   2600   2599     1  180.0000771  6.2760000  1
   1268   1269   2600   2599     1  0.0000000  0.0000000  2
   1269   2600   2599   2598     1  0.0000000  2.2175200  1
   1269   2600   2599   2598     1  0.0000000  0.0000000  2
   1269   2600   2599   2598     1  180.0000771  0.6276000  3
   1269   2600   2599   2598     1  180.0000771  2.0920000  4
   1270   1267   1265   1272     1  0.0000000  0.6508444  3
   1270   1271   2626   2625     1  180.0000771  6.2760000  1
   1270   1271   2626   2625     1  0.0000000  0.0000000  2
   1271   2626   2625   2624     1  0.0000000  2.2175200  1
   1271   2626   2625   2624     1  0.0000000  0.0000000  2
   1271   2626   2625   2624     1  180.0000771  0.6276000  3
   1271   2626   2625   2624     1  180.0000771  2.0920000  4
   1275   1269   2600   2599     1  180.0000771  10.4600000  2
   1276   1271   2626   2625     1  180.0000771  10.4600000  2
   1291   1292   1294   1295     1  0.0000000  0.6508444  3
   1291   1293   1296   1297     1  0.0000000  0.6508444  3
   1291   1298   1299   1300     1  0.0000000  0.6508444  3
   1292   1291   1293   1296     1  0.0000000  0.6508444  3
   1292   1291   1298   1299     1  0.0000000  0.6508444  3
   1292   1294   1295   1301     1  180.0000771  0.0000000  2
   1292   1294   1295   2652     1  0.0000000  0.2928800  2
   1292   1294   1295   2652     1  0.0000000  0.4184000  4
   1293   1291   1292   1294     1  0.0000000  0.6508444  3
   1293   1291   1298   1299     1  0.0000000  0.6508444  3
   1293   1296   1297   1302     1  180.0000771  0.0000000  2
   1293   1296   1297   2678     1  0.0000000  0.2928800  2
   1293   1296   1297   2678     1  0.0000000  0.4184000  4
   1294   1292   1291   1298     1  0.0000000  0.6508444  3
   1294   1295   2652   2651     1  180.0000771  6.2760000  1
   1294   1295   2652   2651     1  0.0000000  0.0000000  2
   1295   2652   2651   2650     1  0.0000000  2.2175200  1
   1295   2652   2651   2650     1  0.0000000  0.0000000  2
   1295   2652   2651   2650     1  180.0000771  0.6276000  3
   1295   2652   2651   2650     1  180.0000771  2.0920000  4
   1296   1293   1291   1298     1  0.0000000  0.6508444  3
   1296   1297   2678   2677     1  180.0000771  6.2760000  1
   1296   1297   2678   2677     1  0.0000000  0.0000000  2
   1297   2678   2677   2676     1  0.0000000  2.2175200  1
   1297   2678   2677   2676     1  0.0000000  0.0000000  2
   1297   2678   2677   2676     1  180.0000771  0.6276000  3
   1297   2678   2677   2676     1  180.0000771  2.0920000  4
   1301   1295   2652   2651     1  180.0000771  10.4600000  2
   1302   1297   2678   2677     1  180.0000771  10.4600000  2
   1317   1318   1320   1321     1  0.0000000  0.6508444  3
   1317   1319   1322   1323     1  0.0000000  0.6508444  3
   1317   1324   1325   1326     1  0.0000000  0.6508444  3
   1318   1317   1319   1322     1  0.0000000  0.6508444  3
   1318   1317   1324   1325     1  0.0000000  0.6508444  3
   1318   1320   1321   1327     1  180.0000771  0.0000000  2
   1318   1320   1321   2704     1  0.0000000  0.2928800  2
   1318   1320   1321   2704     1  0.0000000  0.4184000  4
   1319   1317   1318   1320     1  0.0000000  0.6508444  3
   1319   1317   1324   1325     1  0.0000000  0.6508444  3
   1319   1322   1323   1328     1  180.0000771  0.0000000  2
   1319   1322   1323   2730     1  0.0000000  0.2928800  2
   1319   1322   1323   2730     1  0.0000000  0.4184000  4
   1320   1318   1317   1324     1  0.0000000  0.6508444  3
   1320   1321   2704   2703     1  180.0000771  6.2760000  1
   1320   1321   2704   2703     1  0.0000000  0.0000000  2
   1321   2704   2703   2702     1  0.0000000  2.2175200  1
   1321   2704   2703   2702     1  0.0000000  0.0000000  2
   1321   2704   2703   2702     1  180.0000771  0.6276000  3
   1321   2704   2703   2702     1  180.0000771  2.0920000  4
   1322   1319   1317   1324     1  0.0000000  0.6508444  3
   1322   1323   2730   2729     1  180.0000771  6.2760000  1
   1322   1323   2730   2729     1  0.0000000  0.0000000  2
   1323   2730   2729   2728     1  0.0000000  2.2175200  1
   1323   2730   2729   2728     1  0.0000000  0.0000000  2
   1323   2730   2729   2728     1  180.0000771  0.6276000  3
   1323   2730   2729   2728     1  180.0000771  2.0920000  4
   1327   1321   2704   2703     1  180.0000771  10.4600000  2
   1328   1323   2730   2729     1  180.0000771  10.4600000  2
   1343   1344   1346   1347     1  0.0000000  0.6508444  3
   1343   1345   1348   1349     1  0.0000000  0.6508444  3
   1343   1350   1351   1352     1  0.0000000  0.6508444  3
   1344   1343   1345   1348     1  0.0000000  0.6508444  3
   1344   1343   1350   1351     1  0.0000000  0.6508444  3
   1344   1346   1347   1353     1  180.0000771  0.0000000  2
   1344   1346   1347   2756     1  0.0000000  0.2928800  2
   1344   1346   1347   2756     1  0.0000000  0.4184000  4
   1345   1343   1344   1346     1  0.0000000  0.6508444  3
   1345   1343   1350   1351     1  0.0000000  0.6508444  3
   1345   1348   1349   1354     1  180.0000771  0.0000000  2
   1345   1348   1349   2782     1  0.0000000  0.2928800  2
   1345   1348   1349   2782     1  0.0000000  0.4184000  4
   1346   1344   1343   1350     1  0.0000000  0.6508444  3
   1346   1347   2756   2755     1  180.0000771  6.2760000  1
   1346   1347   2756   2755     1  0.0000000  0.0000000  2
   1347   2756   2755   2754     1  0.0000000  2.2175200  1
   1347   2756   2755   2754     1  0.0000000  0.0000000  2
   1347   2756   2755   2754     1  180.0000771  0.6276000  3
   1347   2756   2755   2754     1  180.0000771  2.0920000  4
   1348   1345   1343   1350     1  0.0000000  0.6508444  3
   1348   1349   2782   2781     1  180.0000771  6.2760000  1
   1348   1349   2782   2781     1  0.0000000  0.0000000  2
   1349   2782   2781   2780     1  0.0000000  2.2175200  1
   1349   2782   2781   2780     1  0.0000000  0.0000000  2
   1349   2782   2781   2780     1  180.0000771  0.6276000  3
   1349   2782   2781   2780     1  180.0000771  2.0920000  4
   1353   1347   2756   2755     1  180.0000771  10.4600000  2
   1354   1349   2782   2781     1  180.0000771  10.4600000  2
   1369   1370   1372   1373     1  0.0000000  0.6508444  3
   1369   1371   1374   1375     1  0.0000000  0.6508444  3
   1369   1376   1377   1378     1  0.0000000  0.6508444  3
   1370   1369   1371   1374     1  0.0000000  0.6508444  3
   1370   1369   1376   1377     1  0.0000000  0.6508444  3
   1370   1372   1373   1379     1  180.0000771  0.0000000  2
   1370   1372   1373   2808     1  0.0000000  0.2928800  2
   1370   1372   1373   2808     1  0.0000000  0.4184000  4
   1371   1369   1370   1372     1  0.0000000  0.6508444  3
   1371   1369   1376   1377     1  0.0000000  0.6508444  3
   1371   1374   1375   1380     1  180.0000771  0.0000000  2
   1371   1374   1375   2834     1  0.0000000  0.2928800  2
   1371   1374   1375   2834     1  0.0000000  0.4184000  4
   1372   1370   1369   1376     1  0.0000000  0.6508444  3
   1372   1373   2808   2807     1  180.0000771  6.2760000  1
   1372   1373   2808   2807     1  0.0000000  0.0000000  2
   1373   2808   2807   2806     1  0.0000000  2.2175200  1
   1373   2808   2807   2806     1  0.0000000  0.0000000  2
   1373   2808   2807   2806     1  180.0000771  0.6276000  3
   1373   2808   2807   2806     1  180.0000771  2.0920000  4
   1374   1371   1369   1376     1  0.0000000  0.6508444  3
   1374   1375   2834   2833     1  180.0000771  6.2760000  1
   1374   1375   2834   2833     1  0.0000000  0.0000000  2
   1375   2834   2833   2832     1  0.0000000  2.2175200  1
   1375   2834   2833   2832     1  0.0000000  0.0000000  2
   1375   2834   2833   2832     1  180.0000771  0.6276000  3
   1375   2834   2833   2832     1  180.0000771  2.0920000  4
   1379   1373   2808   2807     1  180.0000771  10.4600000  2
   1380   1375   2834   2833     1  180.0000771  10.4600000  2
   1395   1396   1398   1399     1  0.0000000  0.6508444  3
   1395   1397   1400   1401     1  0.0000000  0.6508444  3
   1395   1402   1403   1404     1  0.0000000  0.6508444  3
   1396   1395   1397   1400     1  0.0000000  0.6508444  3
   1396   1395   1402   1403     1  0.0000000  0.6508444  3
   1396   1398   1399   1405     1  180.0000771  0.0000000  2
   1396   1398   1399   2860     1  0.0000000  0.2928800  2
   1396   1398   1399   2860     1  0.0000000  0.4184000  4
   1397   1395   1396   1398     1  0.0000000  0.6508444  3
   1397   1395   1402   1403     1  0.0000000  0.6508444  3
   1397   1400   1401   1406     1  180.0000771  0.0000000  2
   1397   1400   1401   2886     1  0.0000000  0.2928800  2
   1397   1400   1401   2886     1  0.0000000  0.4184000  4
   1398   1396   1395   1402     1  0.0000000  0.6508444  3
   1398   1399   2860   2859     1  180.0000771  6.2760000  1
   1398   1399   2860   2859     1  0.0000000  0.0000000  2
   1399   2860   2859   2858     1  0.0000000  2.2175200  1
   1399   2860   2859   2858     1  0.0000000  0.0000000  2
   1399   2860   2859   2858     1  180.0000771  0.6276000  3
   1399   2860   2859   2858     1  180.0000771  2.0920000  4
   1400   1397   1395   1402     1  0.0000000  0.6508444  3
   1400   1401   2886   2885     1  180.0000771  6.2760000  1
   1400   1401   2886   2885     1  0.0000000  0.0000000  2
   1401   2886   2885   2884     1  0.0000000  2.2175200  1
   1401   2886   2885   2884     1  0.0000000  0.0000000  2
   1401   2886   2885   2884     1  180.0000771  0.6276000  3
   1401   2886   2885   2884     1  180.0000771  2.0920000  4
   1405   1399   2860   2859     1  180.0000771  10.4600000  2
   1406   1401   2886   2885     1  180.0000771  10.4600000  2
   1421   1422   1424   1425     1  0.0000000  0.6508444  3
   1421   1423   1426   1427     1  0.0000000  0.6508444  3
   1421   1428   1429   1430     1  0.0000000  0.6508444  3
   1422   1421   1423   1426     1  0.0000000  0.6508444  3
   1422   1421   1428   1429     1  0.0000000  0.6508444  3
   1422   1424   1425   1431     1  180.0000771  0.0000000  2
   1422   1424   1425   2912     1  0.0000000  0.2928800  2
   1422   1424   1425   2912     1  0.0000000  0.4184000  4
   1423   1421   1422   1424     1  0.0000000  0.6508444  3
   1423   1421   1428   1429     1  0.0000000  0.6508444  3
   1423   1426   1427   1432     1  180.0000771  0.0000000  2
   1423   1426   1427   2938     1  0.0000000  0.2928800  2
   1423   1426   1427   2938     1  0.0000000  0.4184000  4
   1424   1422   1421   1428     1  0.0000000  0.6508444  3
   1424   1425   2912   2911     1  180.0000771  6.2760000  1
   1424   1425   2912   2911     1  0.0000000  0.0000000  2
   1425   2912   2911   2910     1  0.0000000  2.2175200  1
   1425   2912   2911   2910     1  0.0000000  0.0000000  2
   1425   2912   2911   2910     1  180.0000771  0.6276000  3
   1425   2912   2911   2910     1  180.0000771  2.0920000  4
   1426   1423   1421   1428     1  0.0000000  0.6508444  3
   1426   1427   2938   2937     1  180.0000771  6.2760000  1
   1426   1427   2938   2937     1  0.0000000  0.0000000  2
   1427   2938   2937   2936     1  0.0000000  2.2175200  1
   1427   2938   2937   2936     1  0.0000000  0.0000000  2
   1427   2938   2937   2936     1  180.0000771  0.6276000  3
   1427   2938   2937   2936     1  180.0000771  2.0920000  4
   1431   1425   2912   2911     1  180.0000771  10.4600000  2
   1432   1427   2938   2937     1  180.0000771  10.4600000  2
   1447   1448   1450   1451     1  0.0000000  0.6508444  3
   1447   1449   1452   1453     1  0.0000000  0.6508444  3
   1447   1454   1455   1456     1  0.0000000  0.6508444  3
   1448   1447   1449   1452     1  0.0000000  0.6508444  3
   1448   1447   1454   1455     1  0.0000000  0.6508444  3
   1448   1450   1451   1457     1  180.0000771  0.0000000  2
   1448   1450   1451   2964     1  0.0000000  0.2928800  2
   1448   1450   1451   2964     1  0.0000000  0.4184000  4
   1449   1447   1448   1450     1  0.0000000  0.6508444  3
   1449   1447   1454   1455     1  0.0000000  0.6508444  3
   1449   1452   1453   1458     1  180.0000771  0.0000000  2
   1449   1452   1453   2990     1  0.0000000  0.2928800  2
   1449   1452   1453   2990     1  0.0000000  0.4184000  4
   1450   1448   1447   1454     1  0.0000000  0.6508444  3
   1450   1451   2964   2963     1  180.0000771  6.2760000  1
   1450   1451   2964   2963     1  0.0000000  0.0000000  2
   1451   2964   2963   2962     1  0.0000000  2.2175200  1
   1451   2964   2963   2962     1  0.0000000  0.0000000  2
   1451   2964   2963   2962     1  180.0000771  0.6276000  3
   1451   2964   2963   2962     1  180.0000771  2.0920000  4
   1452   1449   1447   1454     1  0.0000000  0.6508444  3
   1452   1453   2990   2989     1  180.0000771  6.2760000  1
   1452   1453   2990   2989     1  0.0000000  0.0000000  2
   1453   2990   2989   2988     1  0.0000000  2.2175200  1
   1453   2990   2989   2988     1  0.0000000  0.0000000  2
   1453   2990   2989   2988     1  180.0000771  0.6276000  3
   1453   2990   2989   2988     1  180.0000771  2.0920000  4
   1457   1451   2964   2963     1  180.0000771  10.4600000  2
   1458   1453   2990   2989     1  180.0000771  10.4600000  2
   1473   1474   1476   1477     1  0.0000000  0.6508444  3
   1473   1475   1478   1479     1  0.0000000  0.6508444  3
   1473   1480   1481   1482     1  0.0000000  0.6508444  3
   1474   1473   1475   1478     1  0.0000000  0.6508444  3
   1474   1473   1480   1481     1  0.0000000  0.6508444  3
   1474   1476   1477   1483     1  180.0000771  0.0000000  2
   1474   1476   1477   3016     1  0.0000000  0.2928800  2
   1474   1476   1477   3016     1  0.0000000  0.4184000  4
   1475   1473   1474   1476     1  0.0000000  0.6508444  3
   1475   1473   1480   1481     1  0.0000000  0.6508444  3
   1475   1478   1479   1484     1  180.0000771  0.0000000  2
   1475   1478   1479   3042     1  0.0000000  0.2928800  2
   1475   1478   1479   3042     1  0.0000000  0.4184000  4
   1476   1474   1473   1480     1  0.0000000  0.6508444  3
   1476   1477   3016   3015     1  180.0000771  6.2760000  1
   1476   1477   3016   3015     1  0.0000000  0.0000000  2
   1477   3016   3015   3014     1  0.0000000  2.2175200  1
   1477   3016   3015   3014     1  0.0000000  0.0000000  2
   1477   3016   3015   3014     1  180.0000771  0.6276000  3
   1477   3016   3015   3014     1  180.0000771  2.0920000  4
   1478   1475   1473   1480     1  0.0000000  0.6508444  3
   1478   1479   3042   3041     1  180.0000771  6.2760000  1
   1478   1479   3042   3041     1  0.0000000  0.0000000  2
   1479   3042   3041   3040     1  0.0000000  2.2175200  1
   1479   3042   3041   3040     1  0.0000000  0.0000000  2
   1479   3042   3041   3040     1  180.0000771  0.6276000  3
   1479   3042   3041   3040     1  180.0000771  2.0920000  4
   1483   1477   3016   3015     1  180.0000771  10.4600000  2
   1484   1479   3042   3041     1  180.0000771  10.4600000  2
   1499   1500   1502   1503     1  0.0000000  0.6508444  3
   1499   1501   1504   1505     1  0.0000000  0.6508444  3
   1499   1506   1507   1508     1  0.0000000  0.6508444  3
   1500   1499   1501   1504     1  0.0000000  0.6508444  3
   1500   1499   1506   1507     1  0.0000000  0.6508444  3
   1500   1502   1503   1509     1  180.0000771  0.0000000  2
   1500   1502   1503   3068     1  0.0000000  0.2928800  2
   1500   1502   1503   3068     1  0.0000000  0.4184000  4
   1501   1499   1500   1502     1  0.0000000  0.6508444  3
   1501   1499   1506   1507     1  0.0000000  0.6508444  3
   1501   1504   1505   1510     1  180.0000771  0.0000000  2
   1501   1504   1505   3094     1  0.0000000  0.2928800  2
   1501   1504   1505   3094     1  0.0000000  0.4184000  4
   1502   1500   1499   1506     1  0.0000000  0.6508444  3
   1502   1503   3068   3067     1  180.0000771  6.2760000  1
   1502   1503   3068   3067     1  0.0000000  0.0000000  2
   1503   3068   3067   3066     1  0.0000000  2.2175200  1
   1503   3068   3067   3066     1  0.0000000  0.0000000  2
   1503   3068   3067   3066     1  180.0000771  0.6276000  3
   1503   3068   3067   3066     1  180.0000771  2.0920000  4
   1504   1501   1499   1506     1  0.0000000  0.6508444  3
   1504   1505   3094   3093     1  180.0000771  6.2760000  1
   1504   1505   3094   3093     1  0.0000000  0.0000000  2
   1505   3094   3093   3092     1  0.0000000  2.2175200  1
   1505   3094   3093   3092     1  0.0000000  0.0000000  2
   1505   3094   3093   3092     1  180.0000771  0.6276000  3
   1505   3094   3093   3092     1  180.0000771  2.0920000  4
   1509   1503   3068   3067     1  180.0000771  10.4600000  2
   1510   1505   3094   3093     1  180.0000771  10.4600000  2
   1525   1526   1528   1529     1  0.0000000  0.6508444  3
   1525   1527   1530   1531     1  0.0000000  0.6508444  3
   1525   1532   1533   1534     1  0.0000000  0.6508444  3
   1526   1525   1527   1530     1  0.0000000  0.6508444  3
   1526   1525   1532   1533     1  0.0000000  0.6508444  3
   1526   1528   1529   1535     1  180.0000771  0.0000000  2
   1526   1528   1529   3120     1  0.0000000  0.2928800  2
   1526   1528   1529   3120     1  0.0000000  0.4184000  4
   1527   1525   1526   1528     1  0.0000000  0.6508444  3
   1527   1525   1532   1533     1  0.0000000  0.6508444  3
   1527   1530   1531   1536     1  180.0000771  0.0000000  2
   1527   1530   1531   3146     1  0.0000000  0.2928800  2
   1527   1530   1531   3146     1  0.0000000  0.4184000  4
   1528   1526   1525   1532     1  0.0000000  0.6508444  3
   1528   1529   3120   3119     1  180.0000771  6.2760000  1
   1528   1529   3120   3119     1  0.0000000  0.0000000  2
   1529   3120   3119   3118     1  0.0000000  2.2175200  1
   1529   3120   3119   3118     1  0.0000000  0.0000000  2
   1529   3120   3119   3118     1  180.0000771  0.6276000  3
   1529   3120   3119   3118     1  180.0000771  2.0920000  4
   1530   1527   1525   1532     1  0.0000000  0.6508444  3
   1530   1531   3146   3145     1  180.0000771  6.2760000  1
   1530   1531   3146   3145     1  0.0000000  0.0000000  2
   1531   3146   3145   3144     1  0.0000000  2.2175200  1
   1531   3146   3145   3144     1  0.0000000  0.0000000  2
   1531   3146   3145   3144     1  180.0000771  0.6276000  3
   1531   3146   3145   3144     1  180.0000771  2.0920000  4
   1535   1529   3120   3119     1  180.0000771  10.4600000  2
   1536   1531   3146   3145     1  180.0000771  10.4600000  2
   1551   1552   1554   1555     1  0.0000000  0.6508444  3
   1551   1553   1556   1557     1  0.0000000  0.6508444  3
   1551   1558   1559   1560     1  0.0000000  0.6508444  3
   1552   1551   1553   1556     1  0.0000000  0.6508444  3
   1552   1551   1558   1559     1  0.0000000  0.6508444  3
   1552   1554   1555   1561     1  180.0000771  0.0000000  2
   1552   1554   1555   3172     1  0.0000000  0.2928800  2
   1552   1554   1555   3172     1  0.0000000  0.4184000  4
   1553   1551   1552   1554     1  0.0000000  0.6508444  3
   1553   1551   1558   1559     1  0.0000000  0.6508444  3
   1553   1556   1557   1562     1  180.0000771  0.0000000  2
   1553   1556   1557   3198     1  0.0000000  0.2928800  2
   1553   1556   1557   3198     1  0.0000000  0.4184000  4
   1554   1552   1551   1558     1  0.0000000  0.6508444  3
   1554   1555   3172   3171     1  180.0000771  6.2760000  1
   1554   1555   3172   3171     1  0.0000000  0.0000000  2
   1555   3172   3171   3170     1  0.0000000  2.2175200  1
   1555   3172   3171   3170     1  0.0000000  0.0000000  2
   1555   3172   3171   3170     1  180.0000771  0.6276000  3
   1555   3172   3171   3170     1  180.0000771  2.0920000  4
   1556   1553   1551   1558     1  0.0000000  0.6508444  3
   1556   1557   3198   3197     1  180.0000771  6.2760000  1
   1556   1557   3198   3197     1  0.0000000  0.0000000  2
   1557   3198   3197   3196     1  0.0000000  2.2175200  1
   1557   3198   3197   3196     1  0.0000000  0.0000000  2
   1557   3198   3197   3196     1  180.0000771  0.6276000  3
   1557   3198   3197   3196     1  180.0000771  2.0920000  4
   1561   1555   3172   3171     1  180.0000771  10.4600000  2
   1562   1557   3198   3197     1  180.0000771  10.4600000  2
   1577   1578   1580   1581     1  0.0000000  0.6508444  3
   1577   1579   1582   1583     1  0.0000000  0.6508444  3
   1577   1584   1585   1586     1  0.0000000  0.6508444  3
   1578   1577   1579   1582     1  0.0000000  0.6508444  3
   1578   1577   1584   1585     1  0.0000000  0.6508444  3
   1578   1580   1581   1587     1  180.0000771  0.0000000  2
   1578   1580   1581   3224     1  0.0000000  0.2928800  2
   1578   1580   1581   3224     1  0.0000000  0.4184000  4
   1579   1577   1578   1580     1  0.0000000  0.6508444  3
   1579   1577   1584   1585     1  0.0000000  0.6508444  3
   1579   1582   1583   1588     1  180.0000771  0.0000000  2
   1579   1582   1583   3250     1  0.0000000  0.2928800  2
   1579   1582   1583   3250     1  0.0000000  0.4184000  4
   1580   1578   1577   1584     1  0.0000000  0.6508444  3
   1580   1581   3224   3223     1  180.0000771  6.2760000  1
   1580   1581   3224   3223     1  0.0000000  0.0000000  2
   1581   3224   3223   3222     1  0.0000000  2.2175200  1
   1581   3224   3223   3222     1  0.0000000  0.0000000  2
   1581   3224   3223   3222     1  180.0000771  0.6276000  3
   1581   3224   3223   3222     1  180.0000771  2.0920000  4
   1582   1579   1577   1584     1  0.0000000  0.6508444  3
   1582   1583   3250   3249     1  180.0000771  6.2760000  1
   1582   1583   3250   3249     1  0.0000000  0.0000000  2
   1583   3250   3249   3248     1  0.0000000  2.2175200  1
   1583   3250   3249   3248     1  0.0000000  0.0000000  2
   1583   3250   3249   3248     1  180.0000771  0.6276000  3
   1583   3250   3249   3248     1  180.0000771  2.0920000  4
   1587   1581   3224   3223     1  180.0000771  10.4600000  2
   1588   1583   3250   3249     1  180.0000771  10.4600000  2
   1603   1604   1606   1607     1  0.0000000  0.6508444  3
   1603   1605   1608   1609     1  0.0000000  0.6508444  3
   1603   1610   1611   1612     1  0.0000000  0.6508444  3
   1604   1603   1605   1608     1  0.0000000  0.6508444  3
   1604   1603   1610   1611     1  0.0000000  0.6508444  3
   1604   1606   1607   3267     1  0.0000000  0.2928800  2
   1604   1606   1607   3267     1  0.0000000  0.4184000  4
   1604   1606   1607   1613     1  180.0000771  0.0000000  2
   1605   1603   1604   1606     1  0.0000000  0.6508444  3
   1605   1603   1610   1611     1  0.0000000  0.6508444  3
   1605   1608   1609   1614     1  180.0000771  0.0000000  2
   1605   1608   1609   3341     1  0.0000000  0.2928800  2
   1605   1608   1609   3341     1  0.0000000  0.4184000  4
   1606   1604   1603   1610     1  0.0000000  0.6508444  3
   1606   1607   3267   3269     1  180.0000771  6.2760000  1
   1606   1607   3267   3269     1  0.0000000  0.0000000  2
   1607   3267   3269   3271     1  0.0000000  2.2175200  1
   1607   3267   3269   3271     1  0.0000000  0.0000000  2
   1607   3267   3269   3271     1  180.0000771  0.6276000  3
   1607   3267   3269   3271     1  180.0000771  2.0920000  4
   1608   1605   1603   1610     1  0.0000000  0.6508444  3
   1608   1609   3341   3343     1  180.0000771  6.2760000  1
   1608   1609   3341   3343     1  0.0000000  0.0000000  2
   1609   3341   3343   3345     1  0.0000000  2.2175200  1
   1609   3341   3343   3345     1  0.0000000  0.0000000  2
   1609   3341   3343   3345     1  180.0000771  0.6276000  3
   1609   3341   3343   3345     1  180.0000771  2.0920000  4
   1613   1607   3267   3269     1  180.0000771  10.4600000  2
   1614   1609   3341   3343     1  180.0000771  10.4600000  2
   1629   1630   1632   1633     1  0.0000000  0.6508444  3
   1629   1631   1634   1635     1  0.0000000  0.6508444  3
   1629   1636   1637   1638     1  0.0000000  0.6508444  3
   1630   1629   1631   1634     1  0.0000000  0.6508444  3
   1630   1629   1636   1637     1  0.0000000  0.6508444  3
   1630   1632   1633   3415     1  0.0000000  0.2928800  2
   1630   1632   1633   3415     1  0.0000000  0.4184000  4
   1630   1632   1633   1639     1  180.0000771  0.0000000  2
   1631   1629   1630   1632     1  0.0000000  0.6508444  3
   1631   1629   1636   1637     1  0.0000000  0.6508444  3
   1631   1634   1635   1640     1  180.0000771  0.0000000  2
   1631   1634   1635   3489     1  0.0000000  0.2928800  2
   1631   1634   1635   3489     1  0.0000000  0.4184000  4
   1632   1630   1629   1636     1  0.0000000  0.6508444  3
   1632   1633   3415   3417     1  180.0000771  6.2760000  1
   1632   1633   3415   3417     1  0.0000000  0.0000000  2
   1633   3415   3417   3419     1  0.0000000  2.2175200  1
   1633   3415   3417   3419     1  0.0000000  0.0000000  2
   1633   3415   3417   3419     1  180.0000771  0.6276000  3
   1633   3415   3417   3419     1  180.0000771  2.0920000  4
   1634   1631   1629   1636     1  0.0000000  0.6508444  3
   1634   1635   3489   3491     1  180.0000771  6.2760000  1
   1634   1635   3489   3491     1  0.0000000  0.0000000  2
   1635   3489   3491   3493     1  0.0000000  2.2175200  1
   1635   3489   3491   3493     1  0.0000000  0.0000000  2
   1635   3489   3491   3493     1  180.0000771  0.6276000  3
   1635   3489   3491   3493     1  180.0000771  2.0920000  4
   1639   1633   3415   3417     1  180.0000771  10.4600000  2
   1640   1635   3489   3491     1  180.0000771  10.4600000  2
   1655   1656   1658   1659     1  0.0000000  0.6508444  3
   1655   1657   1660   1661     1  0.0000000  0.6508444  3
   1655   1662   1663   1664     1  0.0000000  0.6508444  3
   1656   1655   1657   1660     1  0.0000000  0.6508444  3
   1656   1655   1662   1663     1  0.0000000  0.6508444  3
   1656   1658   1659   3563     1  0.0000000  0.2928800  2
   1656   1658   1659   3563     1  0.0000000  0.4184000  4
   1656   1658   1659   1665     1  180.0000771  0.0000000  2
   1657   1655   1656   1658     1  0.0000000  0.6508444  3
   1657   1655   1662   1663     1  0.0000000  0.6508444  3
   1657   1660   1661   1666     1  180.0000771  0.0000000  2
   1657   1660   1661   3637     1  0.0000000  0.2928800  2
   1657   1660   1661   3637     1  0.0000000  0.4184000  4
   1658   1656   1655   1662     1  0.0000000  0.6508444  3
   1658   1659   3563   3565     1  180.0000771  6.2760000  1
   1658   1659   3563   3565     1  0.0000000  0.0000000  2
   1659   3563   3565   3567     1  0.0000000  2.2175200  1
   1659   3563   3565   3567     1  0.0000000  0.0000000  2
   1659   3563   3565   3567     1  180.0000771  0.6276000  3
   1659   3563   3565   3567     1  180.0000771  2.0920000  4
   1660   1657   1655   1662     1  0.0000000  0.6508444  3
   1660   1661   3637   3639     1  180.0000771  6.2760000  1
   1660   1661   3637   3639     1  0.0000000  0.0000000  2
   1661   3637   3639   3641     1  0.0000000  2.2175200  1
   1661   3637   3639   3641     1  0.0000000  0.0000000  2
   1661   3637   3639   3641     1  180.0000771  0.6276000  3
   1661   3637   3639   3641     1  180.0000771  2.0920000  4
   1665   1659   3563   3565     1  180.0000771  10.4600000  2
   1666   1661   3637   3639     1  180.0000771  10.4600000  2
   1681   1682   1684   1685     1  0.0000000  0.6508444  3
   1681   1683   1686   1687     1  0.0000000  0.6508444  3
   1681   1688   1689   1690     1  0.0000000  0.6508444  3
   1682   1681   1683   1686     1  0.0000000  0.6508444  3
   1682   1681   1688   1689     1  0.0000000  0.6508444  3
   1682   1684   1685   3711     1  0.0000000  0.2928800  2
   1682   1684   1685   3711     1  0.0000000  0.4184000  4
   1682   1684   1685   1691     1  180.0000771  0.0000000  2
   1683   1681   1682   1684     1  0.0000000  0.6508444  3
   1683   1681   1688   1689     1  0.0000000  0.6508444  3
   1683   1686   1687   1692     1  180.0000771  0.0000000  2
   1683   1686   1687   3785     1  0.0000000  0.2928800  2
   1683   1686   1687   3785     1  0.0000000  0.4184000  4
   1684   1682   1681   1688     1  0.0000000  0.6508444  3
   1684   1685   3711   3713     1  180.0000771  6.2760000  1
   1684   1685   3711   3713     1  0.0000000  0.0000000  2
   1685   3711   3713   3715     1  0.0000000  2.2175200  1
   1685   3711   3713   3715     1  0.0000000  0.0000000  2
   1685   3711   3713   3715     1  180.0000771  0.6276000  3
   1685   3711   3713   3715     1  180.0000771  2.0920000  4
   1686   1683   1681   1688     1  0.0000000  0.6508444  3
   1686   1687   3785   3787     1  180.0000771  6.2760000  1
   1686   1687   3785   3787     1  0.0000000  0.0000000  2
   1687   3785   3787   3789     1  0.0000000  2.2175200  1
   1687   3785   3787   3789     1  0.0000000  0.0000000  2
   1687   3785   3787   3789     1  180.0000771  0.6276000  3
   1687   3785   3787   3789     1  180.0000771  2.0920000  4
   1691   1685   3711   3713     1  180.0000771  10.4600000  2
   1692   1687   3785   3787     1  180.0000771  10.4600000  2
   1707   1708   1710   1711     1  0.0000000  0.6508444  3
   1707   1709   1712   1713     1  0.0000000  0.6508444  3
   1707   1714   1715   1716     1  0.0000000  0.6508444  3
   1708   1707   1709   1712     1  0.0000000  0.6508444  3
   1708   1707   1714   1715     1  0.0000000  0.6508444  3
   1708   1710   1711   3859     1  0.0000000  0.2928800  2
   1708   1710   1711   3859     1  0.0000000  0.4184000  4
   1708   1710   1711   1717     1  180.0000771  0.0000000  2
   1709   1707   1708   1710     1  0.0000000  0.6508444  3
   1709   1707   1714   1715     1  0.0000000  0.6508444  3
   1709   1712   1713   1718     1  180.0000771  0.0000000  2
   1709   1712   1713   3933     1  0.0000000  0.2928800  2
   1709   1712   1713   3933     1  0.0000000  0.4184000  4
   1710   1708   1707   1714     1  0.0000000  0.6508444  3
   1710   1711   3859   3861     1  180.0000771  6.2760000  1
   1710   1711   3859   3861     1  0.0000000  0.0000000  2
   1711   3859   3861   3863     1  0.0000000  2.2175200  1
   1711   3859   3861   3863     1  0.0000000  0.0000000  2
   1711   3859   3861   3863     1  180.0000771  0.6276000  3
   1711   3859   3861   3863     1  180.0000771  2.0920000  4
   1712   1709   1707   1714     1  0.0000000  0.6508444  3
   1712   1713   3933   3935     1  180.0000771  6.2760000  1
   1712   1713   3933   3935     1  0.0000000  0.0000000  2
   1713   3933   3935   3937     1  0.0000000  2.2175200  1
   1713   3933   3935   3937     1  0.0000000  0.0000000  2
   1713   3933   3935   3937     1  180.0000771  0.6276000  3
   1713   3933   3935   3937     1  180.0000771  2.0920000  4
   1717   1711   3859   3861     1  180.0000771  10.4600000  2
   1718   1713   3933   3935     1  180.0000771  10.4600000  2
   1733   1734   1736   1737     1  0.0000000  0.6508444  3
   1733   1735   1738   1739     1  0.0000000  0.6508444  3
   1733   1740   1741   1742     1  0.0000000  0.6508444  3
   1734   1733   1735   1738     1  0.0000000  0.6508444  3
   1734   1733   1740   1741     1  0.0000000  0.6508444  3
   1734   1736   1737   4007     1  0.0000000  0.2928800  2
   1734   1736   1737   4007     1  0.0000000  0.4184000  4
   1734   1736   1737   1743     1  180.0000771  0.0000000  2
   1735   1733   1734   1736     1  0.0000000  0.6508444  3
   1735   1733   1740   1741     1  0.0000000  0.6508444  3
   1735   1738   1739   1744     1  180.0000771  0.0000000  2
   1735   1738   1739   4081     1  0.0000000  0.2928800  2
   1735   1738   1739   4081     1  0.0000000  0.4184000  4
   1736   1734   1733   1740     1  0.0000000  0.6508444  3
   1736   1737   4007   4009     1  180.0000771  6.2760000  1
   1736   1737   4007   4009     1  0.0000000  0.0000000  2
   1737   4007   4009   4011     1  0.0000000  2.2175200  1
   1737   4007   4009   4011     1  0.0000000  0.0000000  2
   1737   4007   4009   4011     1  180.0000771  0.6276000  3
   1737   4007   4009   4011     1  180.0000771  2.0920000  4
   1738   1735   1733   1740     1  0.0000000  0.6508444  3
   1738   1739   4081   4083     1  180.0000771  6.2760000  1
   1738   1739   4081   4083     1  0.0000000  0.0000000  2
   1739   4081   4083   4085     1  0.0000000  2.2175200  1
   1739   4081   4083   4085     1  0.0000000  0.0000000  2
   1739   4081   4083   4085     1  180.0000771  0.6276000  3
   1739   4081   4083   4085     1  180.0000771  2.0920000  4
   1743   1737   4007   4009     1  180.0000771  10.4600000  2
   1744   1739   4081   4083     1  180.0000771  10.4600000  2
   1759   1760   1762   1763     1  0.0000000  0.6508444  3
   1759   1761   1764   1765     1  0.0000000  0.6508444  3
   1759   1766   1767   1768     1  0.0000000  0.6508444  3
   1760   1759   1761   1764     1  0.0000000  0.6508444  3
   1760   1759   1766   1767     1  0.0000000  0.6508444  3
   1760   1762   1763   4155     1  0.0000000  0.2928800  2
   1760   1762   1763   4155     1  0.0000000  0.4184000  4
   1760   1762   1763   1769     1  180.0000771  0.0000000  2
   1761   1759   1760   1762     1  0.0000000  0.6508444  3
   1761   1759   1766   1767     1  0.0000000  0.6508444  3
   1761   1764   1765   1770     1  180.0000771  0.0000000  2
   1761   1764   1765   4229     1  0.0000000  0.2928800  2
   1761   1764   1765   4229     1  0.0000000  0.4184000  4
   1762   1760   1759   1766     1  0.0000000  0.6508444  3
   1762   1763   4155   4157     1  180.0000771  6.2760000  1
   1762   1763   4155   4157     1  0.0000000  0.0000000  2
   1763   4155   4157   4159     1  0.0000000  2.2175200  1
   1763   4155   4157   4159     1  0.0000000  0.0000000  2
   1763   4155   4157   4159     1  180.0000771  0.6276000  3
   1763   4155   4157   4159     1  180.0000771  2.0920000  4
   1764   1761   1759   1766     1  0.0000000  0.6508444  3
   1764   1765   4229   4231     1  180.0000771  6.2760000  1
   1764   1765   4229   4231     1  0.0000000  0.0000000  2
   1765   4229   4231   4233     1  0.0000000  2.2175200  1
   1765   4229   4231   4233     1  0.0000000  0.0000000  2
   1765   4229   4231   4233     1  180.0000771  0.6276000  3
   1765   4229   4231   4233     1  180.0000771  2.0920000  4
   1769   1763   4155   4157     1  180.0000771  10.4600000  2
   1770   1765   4229   4231     1  180.0000771  10.4600000  2
   1785   1786   1788   1789     1  0.0000000  0.6508444  3
   1785   1787   1790   1791     1  0.0000000  0.6508444  3
   1785   1792   1793   1794     1  0.0000000  0.6508444  3
   1786   1785   1787   1790     1  0.0000000  0.6508444  3
   1786   1785   1792   1793     1  0.0000000  0.6508444  3
   1786   1788   1789   4303     1  0.0000000  0.2928800  2
   1786   1788   1789   4303     1  0.0000000  0.4184000  4
   1786   1788   1789   1795     1  180.0000771  0.0000000  2
   1787   1785   1786   1788     1  0.0000000  0.6508444  3
   1787   1785   1792   1793     1  0.0000000  0.6508444  3
   1787   1790   1791   1796     1  180.0000771  0.0000000  2
   1787   1790   1791   4377     1  0.0000000  0.2928800  2
   1787   1790   1791   4377     1  0.0000000  0.4184000  4
   1788   1786   1785   1792     1  0.0000000  0.6508444  3
   1788   1789   4303   4305     1  180.0000771  6.2760000  1
   1788   1789   4303   4305     1  0.0000000  0.0000000  2
   1789   4303   4305   4307     1  0.0000000  2.2175200  1
   1789   4303   4305   4307     1  0.0000000  0.0000000  2
   1789   4303   4305   4307     1  180.0000771  0.6276000  3
   1789   4303   4305   4307     1  180.0000771  2.0920000  4
   1790   1787   1785   1792     1  0.0000000  0.6508444  3
   1790   1791   4377   4379     1  180.0000771  6.2760000  1
   1790   1791   4377   4379     1  0.0000000  0.0000000  2
   1791   4377   4379   4381     1  0.0000000  2.2175200  1
   1791   4377   4379   4381     1  0.0000000  0.0000000  2
   1791   4377   4379   4381     1  180.0000771  0.6276000  3
   1791   4377   4379   4381     1  180.0000771  2.0920000  4
   1795   1789   4303   4305     1  180.0000771  10.4600000  2
   1796   1791   4377   4379     1  180.0000771  10.4600000  2
   1811   1812   1814   1815     1  0.0000000  0.6508444  3
   1811   1813   1816   1817     1  0.0000000  0.6508444  3
   1811   1818   1819   1820     1  0.0000000  0.6508444  3
   1812   1811   1813   1816     1  0.0000000  0.6508444  3
   1812   1811   1818   1819     1  0.0000000  0.6508444  3
   1812   1814   1815   4451     1  0.0000000  0.2928800  2
   1812   1814   1815   4451     1  0.0000000  0.4184000  4
   1812   1814   1815   1821     1  180.0000771  0.0000000  2
   1813   1811   1812   1814     1  0.0000000  0.6508444  3
   1813   1811   1818   1819     1  0.0000000  0.6508444  3
   1813   1816   1817   1822     1  180.0000771  0.0000000  2
   1813   1816   1817   4525     1  0.0000000  0.2928800  2
   1813   1816   1817   4525     1  0.0000000  0.4184000  4
   1814   1812   1811   1818     1  0.0000000  0.6508444  3
   1814   1815   4451   4453     1  180.0000771  6.2760000  1
   1814   1815   4451   4453     1  0.0000000  0.0000000  2
   1815   4451   4453   4455     1  0.0000000  2.2175200  1
   1815   4451   4453   4455     1  0.0000000  0.0000000  2
   1815   4451   4453   4455     1  180.0000771  0.6276000  3
   1815   4451   4453   4455     1  180.0000771  2.0920000  4
   1816   1813   1811   1818     1  0.0000000  0.6508444  3
   1816   1817   4525   4527     1  180.0000771  6.2760000  1
   1816   1817   4525   4527     1  0.0000000  0.0000000  2
   1817   4525   4527   4529     1  0.0000000  2.2175200  1
   1817   4525   4527   4529     1  0.0000000  0.0000000  2
   1817   4525   4527   4529     1  180.0000771  0.6276000  3
   1817   4525   4527   4529     1  180.0000771  2.0920000  4
   1821   1815   4451   4453     1  180.0000771  10.4600000  2
   1822   1817   4525   4527     1  180.0000771  10.4600000  2
   1837   1838   1840   1841     1  0.0000000  0.6508444  3
   1837   1839   1842   1843     1  0.0000000  0.6508444  3
   1837   1844   1845   1846     1  0.0000000  0.6508444  3
   1838   1837   1839   1842     1  0.0000000  0.6508444  3
   1838   1837   1844   1845     1  0.0000000  0.6508444  3
   1838   1840   1841   4599     1  0.0000000  0.2928800  2
   1838   1840   1841   4599     1  0.0000000  0.4184000  4
   1838   1840   1841   1847     1  180.0000771  0.0000000  2
   1839   1837   1838   1840     1  0.0000000  0.6508444  3
   1839   1837   1844   1845     1  0.0000000  0.6508444  3
   1839   1842   1843   1848     1  180.0000771  0.0000000  2
   1839   1842   1843   4673     1  0.0000000  0.2928800  2
   1839   1842   1843   4673     1  0.0000000  0.4184000  4
   1840   1838   1837   1844     1  0.0000000  0.6508444  3
   1840   1841   4599   4601     1  180.0000771  6.2760000  1
   1840   1841   4599   4601     1  0.0000000  0.0000000  2
   1841   4599   4601   4603     1  0.0000000  2.2175200  1
   1841   4599   4601   4603     1  0.0000000  0.0000000  2
   1841   4599   4601   4603     1  180.0000771  0.6276000  3
   1841   4599   4601   4603     1  180.0000771  2.0920000  4
   1842   1839   1837   1844     1  0.0000000  0.6508444  3
   1842   1843   4673   4675     1  180.0000771  6.2760000  1
   1842   1843   4673   4675     1  0.0000000  0.0000000  2
   1843   4673   4675   4677     1  0.0000000  2.2175200  1
   1843   4673   4675   4677     1  0.0000000  0.0000000  2
   1843   4673   4675   4677     1  180.0000771  0.6276000  3
   1843   4673   4675   4677     1  180.0000771  2.0920000  4
   1847   1841   4599   4601     1  180.0000771  10.4600000  2
   1848   1843   4673   4675     1  180.0000771  10.4600000  2
   1863   1864   1866   1867     1  0.0000000  0.6508444  3
   1863   1865   1868   1869     1  0.0000000  0.6508444  3
   1863   1870   1871   1872     1  0.0000000  0.6508444  3
   1864   1863   1865   1868     1  0.0000000  0.6508444  3
   1864   1863   1870   1871     1  0.0000000  0.6508444  3
   1864   1866   1867   4747     1  0.0000000  0.2928800  2
   1864   1866   1867   4747     1  0.0000000  0.4184000  4
   1864   1866   1867   1873     1  180.0000771  0.0000000  2
   1865   1863   1864   1866     1  0.0000000  0.6508444  3
   1865   1863   1870   1871     1  0.0000000  0.6508444  3
   1865   1868   1869   1874     1  180.0000771  0.0000000  2
   1865   1868   1869   4821     1  0.0000000  0.2928800  2
   1865   1868   1869   4821     1  0.0000000  0.4184000  4
   1866   1864   1863   1870     1  0.0000000  0.6508444  3
   1866   1867   4747   4749     1  180.0000771  6.2760000  1
   1866   1867   4747   4749     1  0.0000000  0.0000000  2
   1867   4747   4749   4751     1  0.0000000  2.2175200  1
   1867   4747   4749   4751     1  0.0000000  0.0000000  2
   1867   4747   4749   4751     1  180.0000771  0.6276000  3
   1867   4747   4749   4751     1  180.0000771  2.0920000  4
   1868   1865   1863   1870     1  0.0000000  0.6508444  3
   1868   1869   4821   4823     1  180.0000771  6.2760000  1
   1868   1869   4821   4823     1  0.0000000  0.0000000  2
   1869   4821   4823   4825     1  0.0000000  2.2175200  1
   1869   4821   4823   4825     1  0.0000000  0.0000000  2
   1869   4821   4823   4825     1  180.0000771  0.6276000  3
   1869   4821   4823   4825     1  180.0000771  2.0920000  4
   1873   1867   4747   4749     1  180.0000771  10.4600000  2
   1874   1869   4821   4823     1  180.0000771  10.4600000  2
   1889   1890   1892   1893     1  0.0000000  0.6508444  3
   1889   1891   1894   1895     1  0.0000000  0.6508444  3
   1889   1896   1897   1898     1  0.0000000  0.6508444  3
   1890   1889   1891   1894     1  0.0000000  0.6508444  3
   1890   1889   1896   1897     1  0.0000000  0.6508444  3
   1890   1892   1893   4895     1  0.0000000  0.2928800  2
   1890   1892   1893   4895     1  0.0000000  0.4184000  4
   1890   1892   1893   1899     1  180.0000771  0.0000000  2
   1891   1889   1890   1892     1  0.0000000  0.6508444  3
   1891   1889   1896   1897     1  0.0000000  0.6508444  3
   1891   1894   1895   1900     1  180.0000771  0.0000000  2
   1891   1894   1895   4969     1  0.0000000  0.2928800  2
   1891   1894   1895   4969     1  0.0000000  0.4184000  4
   1892   1890   1889   1896     1  0.0000000  0.6508444  3
   1892   1893   4895   4897     1  180.0000771  6.2760000  1
   1892   1893   4895   4897     1  0.0000000  0.0000000  2
   1893   4895   4897   4899     1  0.0000000  2.2175200  1
   1893   4895   4897   4899     1  0.0000000  0.0000000  2
   1893   4895   4897   4899     1  180.0000771  0.6276000  3
   1893   4895   4897   4899     1  180.0000771  2.0920000  4
   1894   1891   1889   1896     1  0.0000000  0.6508444  3
   1894   1895   4969   4971     1  180.0000771  6.2760000  1
   1894   1895   4969   4971     1  0.0000000  0.0000000  2
   1895   4969   4971   4973     1  0.0000000  2.2175200  1
   1895   4969   4971   4973     1  0.0000000  0.0000000  2
   1895   4969   4971   4973     1  180.0000771  0.6276000  3
   1895   4969   4971   4973     1  180.0000771  2.0920000  4
   1899   1893   4895   4897     1  180.0000771  10.4600000  2
   1900   1895   4969   4971     1  180.0000771  10.4600000  2
   1915   1916   1918   1919     1  0.0000000  0.6508444  3
   1915   1917   1920   1921     1  0.0000000  0.6508444  3
   1915   1922   1923   1924     1  0.0000000  0.6508444  3
   1916   1915   1917   1920     1  0.0000000  0.6508444  3
   1916   1915   1922   1923     1  0.0000000  0.6508444  3
   1916   1918   1919   5043     1  0.0000000  0.2928800  2
   1916   1918   1919   5043     1  0.0000000  0.4184000  4
   1916   1918   1919   1925     1  180.0000771  0.0000000  2
   1917   1915   1916   1918     1  0.0000000  0.6508444  3
   1917   1915   1922   1923     1  0.0000000  0.6508444  3
   1917   1920   1921   1926     1  180.0000771  0.0000000  2
   1917   1920   1921   5117     1  0.0000000  0.2928800  2
   1917   1920   1921   5117     1  0.0000000  0.4184000  4
   1918   1916   1915   1922     1  0.0000000  0.6508444  3
   1918   1919   5043   5045     1  180.0000771  6.2760000  1
   1918   1919   5043   5045     1  0.0000000  0.0000000  2
   1919   5043   5045   5047     1  0.0000000  2.2175200  1
   1919   5043   5045   5047     1  0.0000000  0.0000000  2
   1919   5043   5045   5047     1  180.0000771  0.6276000  3
   1919   5043   5045   5047     1  180.0000771  2.0920000  4
   1920   1917   1915   1922     1  0.0000000  0.6508444  3
   1920   1921   5117   5119     1  180.0000771  6.2760000  1
   1920   1921   5117   5119     1  0.0000000  0.0000000  2
   1921   5117   5119   5121     1  0.0000000  2.2175200  1
   1921   5117   5119   5121     1  0.0000000  0.0000000  2
   1921   5117   5119   5121     1  180.0000771  0.6276000  3
   1921   5117   5119   5121     1  180.0000771  2.0920000  4
   1925   1919   5043   5045     1  180.0000771  10.4600000  2
   1926   1921   5117   5119     1  180.0000771  10.4600000  2
   1941   1942   1944   1945     1  0.0000000  0.6508444  3
   1941   1943   1946   1947     1  0.0000000  0.6508444  3
   1941   1948   1949   1950     1  0.0000000  0.6508444  3
   1942   1941   1943   1946     1  0.0000000  0.6508444  3
   1942   1941   1948   1949     1  0.0000000  0.6508444  3
   1942   1944   1945   5191     1  0.0000000  0.2928800  2
   1942   1944   1945   5191     1  0.0000000  0.4184000  4
   1942   1944   1945   1951     1  180.0000771  0.0000000  2
   1943   1941   1942   1944     1  0.0000000  0.6508444  3
   1943   1941   1948   1949     1  0.0000000  0.6508444  3
   1943   1946   1947   1952     1  180.0000771  0.0000000  2
   1943   1946   1947   5265     1  0.0000000  0.2928800  2
   1943   1946   1947   5265     1  0.0000000  0.4184000  4
   1944   1942   1941   1948     1  0.0000000  0.6508444  3
   1944   1945   5191   5193     1  180.0000771  6.2760000  1
   1944   1945   5191   5193     1  0.0000000  0.0000000  2
   1945   5191   5193   5195     1  0.0000000  2.2175200  1
   1945   5191   5193   5195     1  0.0000000  0.0000000  2
   1945   5191   5193   5195     1  180.0000771  0.6276000  3
   1945   5191   5193   5195     1  180.0000771  2.0920000  4
   1946   1943   1941   1948     1  0.0000000  0.6508444  3
   1946   1947   5265   5267     1  180.0000771  6.2760000  1
   1946   1947   5265   5267     1  0.0000000  0.0000000  2
   1947   5265   5267   5269     1  0.0000000  2.2175200  1
   1947   5265   5267   5269     1  0.0000000  0.0000000  2
   1947   5265   5267   5269     1  180.0000771  0.6276000  3
   1947   5265   5267   5269     1  180.0000771  2.0920000  4
   1951   1945   5191   5193     1  180.0000771  10.4600000  2
   1952   1947   5265   5267     1  180.0000771  10.4600000  2
   1967   1968   1970   1971     1  0.0000000  0.6508444  3
   1967   1969   1972   1973     1  0.0000000  0.6508444  3
   1967   1974   1975   1976     1  0.0000000  0.6508444  3
   1968   1967   1969   1972     1  0.0000000  0.6508444  3
   1968   1967   1974   1975     1  0.0000000  0.6508444  3
   1968   1970   1971   5339     1  0.0000000  0.2928800  2
   1968   1970   1971   5339     1  0.0000000  0.4184000  4
   1968   1970   1971   1977     1  180.0000771  0.0000000  2
   1969   1967   1968   1970     1  0.0000000  0.6508444  3
   1969   1967   1974   1975     1  0.0000000  0.6508444  3
   1969   1972   1973   1978     1  180.0000771  0.0000000  2
   1969   1972   1973   5413     1  0.0000000  0.2928800  2
   1969   1972   1973   5413     1  0.0000000  0.4184000  4
   1970   1968   1967   1974     1  0.0000000  0.6508444  3
   1970   1971   5339   5341     1  180.0000771  6.2760000  1
   1970   1971   5339   5341     1  0.0000000  0.0000000  2
   1971   5339   5341   5343     1  0.0000000  2.2175200  1
   1971   5339   5341   5343     1  0.0000000  0.0000000  2
   1971   5339   5341   5343     1  180.0000771  0.6276000  3
   1971   5339   5341   5343     1  180.0000771  2.0920000  4
   1972   1969   1967   1974     1  0.0000000  0.6508444  3
   1972   1973   5413   5415     1  180.0000771  6.2760000  1
   1972   1973   5413   5415     1  0.0000000  0.0000000  2
   1973   5413   5415   5417     1  0.0000000  2.2175200  1
   1973   5413   5415   5417     1  0.0000000  0.0000000  2
   1973   5413   5415   5417     1  180.0000771  0.6276000  3
   1973   5413   5415   5417     1  180.0000771  2.0920000  4
   1977   1971   5339   5341     1  180.0000771  10.4600000  2
   1978   1973   5413   5415     1  180.0000771  10.4600000  2
   1993   1994   1996   1997     1  0.0000000  0.6508444  3
   1993   1995   1998   1999     1  0.0000000  0.6508444  3
   1993   2000   2001   2002     1  0.0000000  0.6508444  3
   1994   1993   1995   1998     1  0.0000000  0.6508444  3
   1994   1993   2000   2001     1  0.0000000  0.6508444  3
   1994   1996   1997   5487     1  0.0000000  0.2928800  2
   1994   1996   1997   5487     1  0.0000000  0.4184000  4
   1994   1996   1997   2003     1  180.0000771  0.0000000  2
   1995   1993   1994   1996     1  0.0000000  0.6508444  3
   1995   1993   2000   2001     1  0.0000000  0.6508444  3
   1995   1998   1999   2004     1  180.0000771  0.0000000  2
   1995   1998   1999   5561     1  0.0000000  0.2928800  2
   1995   1998   1999   5561     1  0.0000000  0.4184000  4
   1996   1994   1993   2000     1  0.0000000  0.6508444  3
   1996   1997   5487   5489     1  180.0000771  6.2760000  1
   1996   1997   5487   5489     1  0.0000000  0.0000000  2
   1997   5487   5489   5491     1  0.0000000  2.2175200  1
   1997   5487   5489   5491     1  0.0000000  0.0000000  2
   1997   5487   5489   5491     1  180.0000771  0.6276000  3
   1997   5487   5489   5491     1  180.0000771  2.0920000  4
   1998   1995   1993   2000     1  0.0000000  0.6508444  3
   1998   1999   5561   5563     1  180.0000771  6.2760000  1
   1998   1999   5561   5563     1  0.0000000  0.0000000  2
   1999   5561   5563   5565     1  0.0000000  2.2175200  1
   1999   5561   5563   5565     1  0.0000000  0.0000000  2
   1999   5561   5563   5565     1  180.0000771  0.6276000  3
   1999   5561   5563   5565     1  180.0000771  2.0920000  4
   2003   1997   5487   5489     1  180.0000771  10.4600000  2
   2004   1999   5561   5563     1  180.0000771  10.4600000  2
   2019   2020   2022   2023     1  0.0000000  0.6508444  3
   2019   2021   2024   2025     1  0.0000000  0.6508444  3
   2019   2026   2027   2028     1  0.0000000  0.6508444  3
   2020   2019   2021   2024     1  0.0000000  0.6508444  3
   2020   2019   2026   2027     1  0.0000000  0.6508444  3
   2020   2022   2023   5635     1  0.0000000  0.2928800  2
   2020   2022   2023   5635     1  0.0000000  0.4184000  4
   2020   2022   2023   2029     1  180.0000771  0.0000000  2
   2021   2019   2020   2022     1  0.0000000  0.6508444  3
   2021   2019   2026   2027     1  0.0000000  0.6508444  3
   2021   2024   2025   2030     1  180.0000771  0.0000000  2
   2021   2024   2025   5709     1  0.0000000  0.2928800  2
   2021   2024   2025   5709     1  0.0000000  0.4184000  4
   2022   2020   2019   2026     1  0.0000000  0.6508444  3
   2022   2023   5635   5637     1  180.0000771  6.2760000  1
   2022   2023   5635   5637     1  0.0000000  0.0000000  2
   2023   5635   5637   5639     1  0.0000000  2.2175200  1
   2023   5635   5637   5639     1  0.0000000  0.0000000  2
   2023   5635   5637   5639     1  180.0000771  0.6276000  3
   2023   5635   5637   5639     1  180.0000771  2.0920000  4
   2024   2021   2019   2026     1  0.0000000  0.6508444  3
   2024   2025   5709   5711     1  180.0000771  6.2760000  1
   2024   2025   5709   5711     1  0.0000000  0.0000000  2
   2025   5709   5711   5713     1  0.0000000  2.2175200  1
   2025   5709   5711   5713     1  0.0000000  0.0000000  2
   2025   5709   5711   5713     1  180.0000771  0.6276000  3
   2025   5709   5711   5713     1  180.0000771  2.0920000  4
   2029   2023   5635   5637     1  180.0000771  10.4600000  2
   2030   2025   5709   5711     1  180.0000771  10.4600000  2
   2045   2046   2048   2049     1  0.0000000  0.6508444  3
   2045   2047   2050   2051     1  0.0000000  0.6508444  3
   2045   2052   2053   2054     1  0.0000000  0.6508444  3
   2046   2045   2047   2050     1  0.0000000  0.6508444  3
   2046   2045   2052   2053     1  0.0000000  0.6508444  3
   2046   2048   2049   5783     1  0.0000000  0.2928800  2
   2046   2048   2049   5783     1  0.0000000  0.4184000  4
   2046   2048   2049   2055     1  180.0000771  0.0000000  2
   2047   2045   2046   2048     1  0.0000000  0.6508444  3
   2047   2045   2052   2053     1  0.0000000  0.6508444  3
   2047   2050   2051   2056     1  180.0000771  0.0000000  2
   2047   2050   2051   5857     1  0.0000000  0.2928800  2
   2047   2050   2051   5857     1  0.0000000  0.4184000  4
   2048   2046   2045   2052     1  0.0000000  0.6508444  3
   2048   2049   5783   5785     1  180.0000771  6.2760000  1
   2048   2049   5783   5785     1  0.0000000  0.0000000  2
   2049   5783   5785   5787     1  0.0000000  2.2175200  1
   2049   5783   5785   5787     1  0.0000000  0.0000000  2
   2049   5783   5785   5787     1  180.0000771  0.6276000  3
   2049   5783   5785   5787     1  180.0000771  2.0920000  4
   2050   2047   2045   2052     1  0.0000000  0.6508444  3
   2050   2051   5857   5859     1  180.0000771  6.2760000  1
   2050   2051   5857   5859     1  0.0000000  0.0000000  2
   2051   5857   5859   5861     1  0.0000000  2.2175200  1
   2051   5857   5859   5861     1  0.0000000  0.0000000  2
   2051   5857   5859   5861     1  180.0000771  0.6276000  3
   2051   5857   5859   5861     1  180.0000771  2.0920000  4
   2055   2049   5783   5785     1  180.0000771  10.4600000  2
   2056   2051   5857   5859     1  180.0000771  10.4600000  2
   2071   2072   2074   2075     1  0.0000000  0.6508444  3
   2071   2073   2076   2077     1  0.0000000  0.6508444  3
   2071   2078   2079   2080     1  0.0000000  0.6508444  3
   2072   2071   2073   2076     1  0.0000000  0.6508444  3
   2072   2071   2078   2079     1  0.0000000  0.6508444  3
   2072   2074   2075   5931     1  0.0000000  0.2928800  2
   2072   2074   2075   5931     1  0.0000000  0.4184000  4
   2072   2074   2075   2081     1  180.0000771  0.0000000  2
   2073   2071   2072   2074     1  0.0000000  0.6508444  3
   2073   2071   2078   2079     1  0.0000000  0.6508444  3
   2073   2076   2077   2082     1  180.0000771  0.0000000  2
   2073   2076   2077   6005     1  0.0000000  0.2928800  2
   2073   2076   2077   6005     1  0.0000000  0.4184000  4
   2074   2072   2071   2078     1  0.0000000  0.6508444  3
   2074   2075   5931   5933     1  180.0000771  6.2760000  1
   2074   2075   5931   5933     1  0.0000000  0.0000000  2
   2075   5931   5933   5935     1  0.0000000  2.2175200  1
   2075   5931   5933   5935     1  0.0000000  0.0000000  2
   2075   5931   5933   5935     1  180.0000771  0.6276000  3
   2075   5931   5933   5935     1  180.0000771  2.0920000  4
   2076   2073   2071   2078     1  0.0000000  0.6508444  3
   2076   2077   6005   6007     1  180.0000771  6.2760000  1
   2076   2077   6005   6007     1  0.0000000  0.0000000  2
   2077   6005   6007   6009     1  0.0000000  2.2175200  1
   2077   6005   6007   6009     1  0.0000000  0.0000000  2
   2077   6005   6007   6009     1  180.0000771  0.6276000  3
   2077   6005   6007   6009     1  180.0000771  2.0920000  4
   2081   2075   5931   5933     1  180.0000771  10.4600000  2
   2082   2077   6005   6007     1  180.0000771  10.4600000  2
   2097   2098   2100   2101     1  0.0000000  0.6508444  3
   2097   2099   2102   2103     1  0.0000000  0.6508444  3
   2097   2104   2105   2106     1  0.0000000  0.6508444  3
   2098   2097   2099   2102     1  0.0000000  0.6508444  3
   2098   2097   2104   2105     1  0.0000000  0.6508444  3
   2098   2100   2101   6079     1  0.0000000  0.2928800  2
   2098   2100   2101   6079     1  0.0000000  0.4184000  4
   2098   2100   2101   2107     1  180.0000771  0.0000000  2
   2099   2097   2098   2100     1  0.0000000  0.6508444  3
   2099   2097   2104   2105     1  0.0000000  0.6508444  3
   2099   2102   2103   2108     1  180.0000771  0.0000000  2
   2099   2102   2103   6153     1  0.0000000  0.2928800  2
   2099   2102   2103   6153     1  0.0000000  0.4184000  4
   2100   2098   2097   2104     1  0.0000000  0.6508444  3
   2100   2101   6079   6081     1  180.0000771  6.2760000  1
   2100   2101   6079   6081     1  0.0000000  0.0000000  2
   2101   6079   6081   6083     1  0.0000000  2.2175200  1
   2101   6079   6081   6083     1  0.0000000  0.0000000  2
   2101   6079   6081   6083     1  180.0000771  0.6276000  3
   2101   6079   6081   6083     1  180.0000771  2.0920000  4
   2102   2099   2097   2104     1  0.0000000  0.6508444  3
   2102   2103   6153   6155     1  180.0000771  6.2760000  1
   2102   2103   6153   6155     1  0.0000000  0.0000000  2
   2103   6153   6155   6157     1  0.0000000  2.2175200  1
   2103   6153   6155   6157     1  0.0000000  0.0000000  2
   2103   6153   6155   6157     1  180.0000771  0.6276000  3
   2103   6153   6155   6157     1  180.0000771  2.0920000  4
   2107   2101   6079   6081     1  180.0000771  10.4600000  2
   2108   2103   6153   6155     1  180.0000771  10.4600000  2
   2123   2124   2126   2127     1  0.0000000  0.6508444  3
   2123   2125   2128   2129     1  0.0000000  0.6508444  3
   2123   2130   2131   2132     1  0.0000000  0.6508444  3
   2124   2123   2125   2128     1  0.0000000  0.6508444  3
   2124   2123   2130   2131     1  0.0000000  0.6508444  3
   2124   2126   2127   6227     1  0.0000000  0.2928800  2
   2124   2126   2127   6227     1  0.0000000  0.4184000  4
   2124   2126   2127   2133     1  180.0000771  0.0000000  2
   2125   2123   2124   2126     1  0.0000000  0.6508444  3
   2125   2123   2130   2131     1  0.0000000  0.6508444  3
   2125   2128   2129   2134     1  180.0000771  0.0000000  2
   2125   2128   2129   6301     1  0.0000000  0.2928800  2
   2125   2128   2129   6301     1  0.0000000  0.4184000  4
   2126   2124   2123   2130     1  0.0000000  0.6508444  3
   2126   2127   6227   6229     1  180.0000771  6.2760000  1
   2126   2127   6227   6229     1  0.0000000  0.0000000  2
   2127   6227   6229   6231     1  0.0000000  2.2175200  1
   2127   6227   6229   6231     1  0.0000000  0.0000000  2
   2127   6227   6229   6231     1  180.0000771  0.6276000  3
   2127   6227   6229   6231     1  180.0000771  2.0920000  4
   2128   2125   2123   2130     1  0.0000000  0.6508444  3
   2128   2129   6301   6303     1  180.0000771  6.2760000  1
   2128   2129   6301   6303     1  0.0000000  0.0000000  2
   2129   6301   6303   6305     1  0.0000000  2.2175200  1
   2129   6301   6303   6305     1  0.0000000  0.0000000  2
   2129   6301   6303   6305     1  180.0000771  0.6276000  3
   2129   6301   6303   6305     1  180.0000771  2.0920000  4
   2133   2127   6227   6229     1  180.0000771  10.4600000  2
   2134   2129   6301   6303     1  180.0000771  10.4600000  2
   2149   2150   2152   2153     1  0.0000000  0.6508444  3
   2149   2151   2154   2155     1  0.0000000  0.6508444  3
   2149   2156   2157   2158     1  0.0000000  0.6508444  3
   2150   2149   2151   2154     1  0.0000000  0.6508444  3
   2150   2149   2156   2157     1  0.0000000  0.6508444  3
   2150   2152   2153   6375     1  0.0000000  0.2928800  2
   2150   2152   2153   6375     1  0.0000000  0.4184000  4
   2150   2152   2153   2159     1  180.0000771  0.0000000  2
   2151   2149   2150   2152     1  0.0000000  0.6508444  3
   2151   2149   2156   2157     1  0.0000000  0.6508444  3
   2151   2154   2155   2160     1  180.0000771  0.0000000  2
   2151   2154   2155   6449     1  0.0000000  0.2928800  2
   2151   2154   2155   6449     1  0.0000000  0.4184000  4
   2152   2150   2149   2156     1  0.0000000  0.6508444  3
   2152   2153   6375   6377     1  180.0000771  6.2760000  1
   2152   2153   6375   6377     1  0.0000000  0.0000000  2
   2153   6375   6377   6379     1  0.0000000  2.2175200  1
   2153   6375   6377   6379     1  0.0000000  0.0000000  2
   2153   6375   6377   6379     1  180.0000771  0.6276000  3
   2153   6375   6377   6379     1  180.0000771  2.0920000  4
   2154   2151   2149   2156     1  0.0000000  0.6508444  3
   2154   2155   6449   6451     1  180.0000771  6.2760000  1
   2154   2155   6449   6451     1  0.0000000  0.0000000  2
   2155   6449   6451   6453     1  0.0000000  2.2175200  1
   2155   6449   6451   6453     1  0.0000000  0.0000000  2
   2155   6449   6451   6453     1  180.0000771  0.6276000  3
   2155   6449   6451   6453     1  180.0000771  2.0920000  4
   2159   2153   6375   6377     1  180.0000771  10.4600000  2
   2160   2155   6449   6451     1  180.0000771  10.4600000  2
   2175   2176   2178   2179     1  0.0000000  0.6508444  3
   2175   2177   2180   2181     1  0.0000000  0.6508444  3
   2175   2182   2183   2184     1  0.0000000  0.6508444  3
   2176   2175   2177   2180     1  0.0000000  0.6508444  3
   2176   2175   2182   2183     1  0.0000000  0.6508444  3
   2176   2178   2179   6523     1  0.0000000  0.2928800  2
   2176   2178   2179   6523     1  0.0000000  0.4184000  4
   2176   2178   2179   2185     1  180.0000771  0.0000000  2
   2177   2175   2176   2178     1  0.0000000  0.6508444  3
   2177   2175   2182   2183     1  0.0000000  0.6508444  3
   2177   2180   2181   2186     1  180.0000771  0.0000000  2
   2177   2180   2181   6597     1  0.0000000  0.2928800  2
   2177   2180   2181   6597     1  0.0000000  0.4184000  4
   2178   2176   2175   2182     1  0.0000000  0.6508444  3
   2178   2179   6523   6525     1  180.0000771  6.2760000  1
   2178   2179   6523   6525     1  0.0000000  0.0000000  2
   2179   6523   6525   6527     1  0.0000000  2.2175200  1
   2179   6523   6525   6527     1  0.0000000  0.0000000  2
   2179   6523   6525   6527     1  180.0000771  0.6276000  3
   2179   6523   6525   6527     1  180.0000771  2.0920000  4
   2180   2177   2175   2182     1  0.0000000  0.6508444  3
   2180   2181   6597   6599     1  180.0000771  6.2760000  1
   2180   2181   6597   6599     1  0.0000000  0.0000000  2
   2181   6597   6599   6601     1  0.0000000  2.2175200  1
   2181   6597   6599   6601     1  0.0000000  0.0000000  2
   2181   6597   6599   6601     1  180.0000771  0.6276000  3
   2181   6597   6599   6601     1  180.0000771  2.0920000  4
   2185   2179   6523   6525     1  180.0000771  10.4600000  2
   2186   2181   6597   6599     1  180.0000771  10.4600000  2
   2201   2202   2204   2205     1  0.0000000  0.6508444  3
   2201   2203   2206   2207     1  0.0000000  0.6508444  3
   2201   2208   2209   2210     1  0.0000000  0.6508444  3
   2202   2201   2203   2206     1  0.0000000  0.6508444  3
   2202   2201   2208   2209     1  0.0000000  0.6508444  3
   2202   2204   2205   6671     1  0.0000000  0.2928800  2
   2202   2204   2205   6671     1  0.0000000  0.4184000  4
   2202   2204   2205   2211     1  180.0000771  0.0000000  2
   2203   2201   2202   2204     1  0.0000000  0.6508444  3
   2203   2201   2208   2209     1  0.0000000  0.6508444  3
   2203   2206   2207   2212     1  180.0000771  0.0000000  2
   2203   2206   2207   6745     1  0.0000000  0.2928800  2
   2203   2206   2207   6745     1  0.0000000  0.4184000  4
   2204   2202   2201   2208     1  0.0000000  0.6508444  3
   2204   2205   6671   6673     1  180.0000771  6.2760000  1
   2204   2205   6671   6673     1  0.0000000  0.0000000  2
   2205   6671   6673   6675     1  0.0000000  2.2175200  1
   2205   6671   6673   6675     1  0.0000000  0.0000000  2
   2205   6671   6673   6675     1  180.0000771  0.6276000  3
   2205   6671   6673   6675     1  180.0000771  2.0920000  4
   2206   2203   2201   2208     1  0.0000000  0.6508444  3
   2206   2207   6745   6747     1  180.0000771  6.2760000  1
   2206   2207   6745   6747     1  0.0000000  0.0000000  2
   2207   6745   6747   6749     1  0.0000000  2.2175200  1
   2207   6745   6747   6749     1  0.0000000  0.0000000  2
   2207   6745   6747   6749     1  180.0000771  0.6276000  3
   2207   6745   6747   6749     1  180.0000771  2.0920000  4
   2211   2205   6671   6673     1  180.0000771  10.4600000  2
   2212   2207   6745   6747     1  180.0000771  10.4600000  2
   2227   2228   2230   2231     1  0.0000000  0.6508444  3
   2227   2229   2232   2233     1  0.0000000  0.6508444  3
   2227   2234   2235   2236     1  0.0000000  0.6508444  3
   2228   2227   2229   2232     1  0.0000000  0.6508444  3
   2228   2227   2234   2235     1  0.0000000  0.6508444  3
   2228   2230   2231   6819     1  0.0000000  0.2928800  2
   2228   2230   2231   6819     1  0.0000000  0.4184000  4
   2228   2230   2231   2237     1  180.0000771  0.0000000  2
   2229   2227   2228   2230     1  0.0000000  0.6508444  3
   2229   2227   2234   2235     1  0.0000000  0.6508444  3
   2229   2232   2233   2238     1  180.0000771  0.0000000  2
   2229   2232   2233   6893     1  0.0000000  0.2928800  2
   2229   2232   2233   6893     1  0.0000000  0.4184000  4
   2230   2228   2227   2234     1  0.0000000  0.6508444  3
   2230   2231   6819   6821     1  180.0000771  6.2760000  1
   2230   2231   6819   6821     1  0.0000000  0.0000000  2
   2231   6819   6821   6823     1  0.0000000  2.2175200  1
   2231   6819   6821   6823     1  0.0000000  0.0000000  2
   2231   6819   6821   6823     1  180.0000771  0.6276000  3
   2231   6819   6821   6823     1  180.0000771  2.0920000  4
   2232   2229   2227   2234     1  0.0000000  0.6508444  3
   2232   2233   6893   6895     1  180.0000771  6.2760000  1
   2232   2233   6893   6895     1  0.0000000  0.0000000  2
   2233   6893   6895   6897     1  0.0000000  2.2175200  1
   2233   6893   6895   6897     1  0.0000000  0.0000000  2
   2233   6893   6895   6897     1  180.0000771  0.6276000  3
   2233   6893   6895   6897     1  180.0000771  2.0920000  4
   2237   2231   6819   6821     1  180.0000771  10.4600000  2
   2238   2233   6893   6895     1  180.0000771  10.4600000  2
   2253   2254   2256   2257     1  0.0000000  0.6508444  3
   2253   2255   2258   2259     1  0.0000000  0.6508444  3
   2253   2260   2261   2262     1  0.0000000  0.6508444  3
   2254   2253   2255   2258     1  0.0000000  0.6508444  3
   2254   2253   2260   2261     1  0.0000000  0.6508444  3
   2254   2256   2257   6967     1  0.0000000  0.2928800  2
   2254   2256   2257   6967     1  0.0000000  0.4184000  4
   2254   2256   2257   2263     1  180.0000771  0.0000000  2
   2255   2253   2254   2256     1  0.0000000  0.6508444  3
   2255   2253   2260   2261     1  0.0000000  0.6508444  3
   2255   2258   2259   2264     1  180.0000771  0.0000000  2
   2255   2258   2259   7041     1  0.0000000  0.2928800  2
   2255   2258   2259   7041     1  0.0000000  0.4184000  4
   2256   2254   2253   2260     1  0.0000000  0.6508444  3
   2256   2257   6967   6969     1  180.0000771  6.2760000  1
   2256   2257   6967   6969     1  0.0000000  0.0000000  2
   2257   6967   6969   6971     1  0.0000000  2.2175200  1
   2257   6967   6969   6971     1  0.0000000  0.0000000  2
   2257   6967   6969   6971     1  180.0000771  0.6276000  3
   2257   6967   6969   6971     1  180.0000771  2.0920000  4
   2258   2255   2253   2260     1  0.0000000  0.6508444  3
   2258   2259   7041   7043     1  180.0000771  6.2760000  1
   2258   2259   7041   7043     1  0.0000000  0.0000000  2
   2259   7041   7043   7045     1  0.0000000  2.2175200  1
   2259   7041   7043   7045     1  0.0000000  0.0000000  2
   2259   7041   7043   7045     1  180.0000771  0.6276000  3
   2259   7041   7043   7045     1  180.0000771  2.0920000  4
   2263   2257   6967   6969     1  180.0000771  10.4600000  2
   2264   2259   7041   7043     1  180.0000771  10.4600000  2
   2279   2280   2282   2283     1  0.0000000  0.6508444  3
   2279   2281   2284   2285     1  0.0000000  0.6508444  3
   2279   2286   2287   2288     1  0.0000000  0.6508444  3
   2280   2279   2281   2284     1  0.0000000  0.6508444  3
   2280   2279   2286   2287     1  0.0000000  0.6508444  3
   2280   2282   2283   7115     1  0.0000000  0.2928800  2
   2280   2282   2283   7115     1  0.0000000  0.4184000  4
   2280   2282   2283   2289     1  180.0000771  0.0000000  2
   2281   2279   2280   2282     1  0.0000000  0.6508444  3
   2281   2279   2286   2287     1  0.0000000  0.6508444  3
   2281   2284   2285   2290     1  180.0000771  0.0000000  2
   2281   2284   2285   7189     1  0.0000000  0.2928800  2
   2281   2284   2285   7189     1  0.0000000  0.4184000  4
   2282   2280   2279   2286     1  0.0000000  0.6508444  3
   2282   2283   7115   7117     1  180.0000771  6.2760000  1
   2282   2283   7115   7117     1  0.0000000  0.0000000  2
   2283   7115   7117   7119     1  0.0000000  2.2175200  1
   2283   7115   7117   7119     1  0.0000000  0.0000000  2
   2283   7115   7117   7119     1  180.0000771  0.6276000  3
   2283   7115   7117   7119     1  180.0000771  2.0920000  4
   2284   2281   2279   2286     1  0.0000000  0.6508444  3
   2284   2285   7189   7191     1  180.0000771  6.2760000  1
   2284   2285   7189   7191     1  0.0000000  0.0000000  2
   2285   7189   7191   7193     1  0.0000000  2.2175200  1
   2285   7189   7191   7193     1  0.0000000  0.0000000  2
   2285   7189   7191   7193     1  180.0000771  0.6276000  3
   2285   7189   7191   7193     1  180.0000771  2.0920000  4
   2289   2283   7115   7117     1  180.0000771  10.4600000  2
   2290   2285   7189   7191     1  180.0000771  10.4600000  2
   2305   2306   2308   2309     1  0.0000000  0.6508444  3
   2305   2307   2310   2311     1  0.0000000  0.6508444  3
   2305   2312   2313   2314     1  0.0000000  0.6508444  3
   2306   2305   2307   2310     1  0.0000000  0.6508444  3
   2306   2305   2312   2313     1  0.0000000  0.6508444  3
   2306   2308   2309   7263     1  0.0000000  0.2928800  2
   2306   2308   2309   7263     1  0.0000000  0.4184000  4
   2306   2308   2309   2315     1  180.0000771  0.0000000  2
   2307   2305   2306   2308     1  0.0000000  0.6508444  3
   2307   2305   2312   2313     1  0.0000000  0.6508444  3
   2307   2310   2311   2316     1  180.0000771  0.0000000  2
   2307   2310   2311   7337     1  0.0000000  0.2928800  2
   2307   2310   2311   7337     1  0.0000000  0.4184000  4
   2308   2306   2305   2312     1  0.0000000  0.6508444  3
   2308   2309   7263   7265     1  180.0000771  6.2760000  1
   2308   2309   7263   7265     1  0.0000000  0.0000000  2
   2309   7263   7265   7267     1  0.0000000  2.2175200  1
   2309   7263   7265   7267     1  0.0000000  0.0000000  2
   2309   7263   7265   7267     1  180.0000771  0.6276000  3
   2309   7263   7265   7267     1  180.0000771  2.0920000  4
   2310   2307   2305   2312     1  0.0000000  0.6508444  3
   2310   2311   7337   7339     1  180.0000771  6.2760000  1
   2310   2311   7337   7339     1  0.0000000  0.0000000  2
   2311   7337   7339   7341     1  0.0000000  2.2175200  1
   2311   7337   7339   7341     1  0.0000000  0.0000000  2
   2311   7337   7339   7341     1  180.0000771  0.6276000  3
   2311   7337   7339   7341     1  180.0000771  2.0920000  4
   2315   2309   7263   7265     1  180.0000771  10.4600000  2
   2316   2311   7337   7339     1  180.0000771  10.4600000  2
   2331   2332   2334   2335     1  0.0000000  0.6508444  3
   2331   2333   2336   2337     1  0.0000000  0.6508444  3
   2331   2338   2339   2340     1  0.0000000  0.6508444  3
   2332   2331   2333   2336     1  0.0000000  0.6508444  3
   2332   2331   2338   2339     1  0.0000000  0.6508444  3
   2332   2334   2335   7411     1  0.0000000  0.2928800  2
   2332   2334   2335   7411     1  0.0000000  0.4184000  4
   2332   2334   2335   2341     1  180.0000771  0.0000000  2
   2333   2331   2332   2334     1  0.0000000  0.6508444  3
   2333   2331   2338   2339     1  0.0000000  0.6508444  3
   2333   2336   2337   2342     1  180.0000771  0.0000000  2
   2333   2336   2337   7485     1  0.0000000  0.2928800  2
   2333   2336   2337   7485     1  0.0000000  0.4184000  4
   2334   2332   2331   2338     1  0.0000000  0.6508444  3
   2334   2335   7411   7413     1  180.0000771  6.2760000  1
   2334   2335   7411   7413     1  0.0000000  0.0000000  2
   2335   7411   7413   7415     1  0.0000000  2.2175200  1
   2335   7411   7413   7415     1  0.0000000  0.0000000  2
   2335   7411   7413   7415     1  180.0000771  0.6276000  3
   2335   7411   7413   7415     1  180.0000771  2.0920000  4
   2336   2333   2331   2338     1  0.0000000  0.6508444  3
   2336   2337   7485   7487     1  180.0000771  6.2760000  1
   2336   2337   7485   7487     1  0.0000000  0.0000000  2
   2337   7485   7487   7489     1  0.0000000  2.2175200  1
   2337   7485   7487   7489     1  0.0000000  0.0000000  2
   2337   7485   7487   7489     1  180.0000771  0.6276000  3
   2337   7485   7487   7489     1  180.0000771  2.0920000  4
   2341   2335   7411   7413     1  180.0000771  10.4600000  2
   2342   2337   7485   7487     1  180.0000771  10.4600000  2
   2357   2358   2360   2361     1  0.0000000  0.6508444  3
   2357   2359   2362   2363     1  0.0000000  0.6508444  3
   2357   2364   2365   2366     1  0.0000000  0.6508444  3
   2358   2357   2359   2362     1  0.0000000  0.6508444  3
   2358   2357   2364   2365     1  0.0000000  0.6508444  3
   2358   2360   2361   7559     1  0.0000000  0.2928800  2
   2358   2360   2361   7559     1  0.0000000  0.4184000  4
   2358   2360   2361   2367     1  180.0000771  0.0000000  2
   2359   2357   2358   2360     1  0.0000000  0.6508444  3
   2359   2357   2364   2365     1  0.0000000  0.6508444  3
   2359   2362   2363   2368     1  180.0000771  0.0000000  2
   2359   2362   2363   7633     1  0.0000000  0.2928800  2
   2359   2362   2363   7633     1  0.0000000  0.4184000  4
   2360   2358   2357   2364     1  0.0000000  0.6508444  3
   2360   2361   7559   7561     1  180.0000771  6.2760000  1
   2360   2361   7559   7561     1  0.0000000  0.0000000  2
   2361   7559   7561   7563     1  0.0000000  2.2175200  1
   2361   7559   7561   7563     1  0.0000000  0.0000000  2
   2361   7559   7561   7563     1  180.0000771  0.6276000  3
   2361   7559   7561   7563     1  180.0000771  2.0920000  4
   2362   2359   2357   2364     1  0.0000000  0.6508444  3
   2362   2363   7633   7635     1  180.0000771  6.2760000  1
   2362   2363   7633   7635     1  0.0000000  0.0000000  2
   2363   7633   7635   7637     1  0.0000000  2.2175200  1
   2363   7633   7635   7637     1  0.0000000  0.0000000  2
   2363   7633   7635   7637     1  180.0000771  0.6276000  3
   2363   7633   7635   7637     1  180.0000771  2.0920000  4
   2367   2361   7559   7561     1  180.0000771  10.4600000  2
   2368   2363   7633   7635     1  180.0000771  10.4600000  2
   2383   2384   2386   2387     1  0.0000000  0.6508444  3
   2383   2385   2388   2389     1  0.0000000  0.6508444  3
   2383   2390   2391   2392     1  0.0000000  0.6508444  3
   2384   2383   2385   2388     1  0.0000000  0.6508444  3
   2384   2383   2390   2391     1  0.0000000  0.6508444  3
   2384   2386   2387   7707     1  0.0000000  0.2928800  2
   2384   2386   2387   7707     1  0.0000000  0.4184000  4
   2384   2386   2387   2393     1  180.0000771  0.0000000  2
   2385   2383   2384   2386     1  0.0000000  0.6508444  3
   2385   2383   2390   2391     1  0.0000000  0.6508444  3
   2385   2388   2389   2394     1  180.0000771  0.0000000  2
   2385   2388   2389   7781     1  0.0000000  0.2928800  2
   2385   2388   2389   7781     1  0.0000000  0.4184000  4
   2386   2384   2383   2390     1  0.0000000  0.6508444  3
   2386   2387   7707   7709     1  180.0000771  6.2760000  1
   2386   2387   7707   7709     1  0.0000000  0.0000000  2
   2387   7707   7709   7711     1  0.0000000  2.2175200  1
   2387   7707   7709   7711     1  0.0000000  0.0000000  2
   2387   7707   7709   7711     1  180.0000771  0.6276000  3
   2387   7707   7709   7711     1  180.0000771  2.0920000  4
   2388   2385   2383   2390     1  0.0000000  0.6508444  3
   2388   2389   7781   7783     1  180.0000771  6.2760000  1
   2388   2389   7781   7783     1  0.0000000  0.0000000  2
   2389   7781   7783   7785     1  0.0000000  2.2175200  1
   2389   7781   7783   7785     1  0.0000000  0.0000000  2
   2389   7781   7783   7785     1  180.0000771  0.6276000  3
   2389   7781   7783   7785     1  180.0000771  2.0920000  4
   2393   2387   7707   7709     1  180.0000771  10.4600000  2
   2394   2389   7781   7783     1  180.0000771  10.4600000  2
   2409   2410   2412   2413     1  0.0000000  0.6508444  3
   2409   2411   2414   2415     1  0.0000000  0.6508444  3
   2409   2416   2417   2418     1  0.0000000  0.6508444  3
   2410   2409   2411   2414     1  0.0000000  0.6508444  3
   2410   2409   2416   2417     1  0.0000000  0.6508444  3
   2410   2412   2413   7855     1  0.0000000  0.2928800  2
   2410   2412   2413   7855     1  0.0000000  0.4184000  4
   2410   2412   2413   2419     1  180.0000771  0.0000000  2
   2411   2409   2410   2412     1  0.0000000  0.6508444  3
   2411   2409   2416   2417     1  0.0000000  0.6508444  3
   2411   2414   2415   2420     1  180.0000771  0.0000000  2
   2411   2414   2415   7929     1  0.0000000  0.2928800  2
   2411   2414   2415   7929     1  0.0000000  0.4184000  4
   2412   2410   2409   2416     1  0.0000000  0.6508444  3
   2412   2413   7855   7857     1  180.0000771  6.2760000  1
   2412   2413   7855   7857     1  0.0000000  0.0000000  2
   2413   7855   7857   7859     1  0.0000000  2.2175200  1
   2413   7855   7857   7859     1  0.0000000  0.0000000  2
   2413   7855   7857   7859     1  180.0000771  0.6276000  3
   2413   7855   7857   7859     1  180.0000771  2.0920000  4
   2414   2411   2409   2416     1  0.0000000  0.6508444  3
   2414   2415   7929   7931     1  180.0000771  6.2760000  1
   2414   2415   7929   7931     1  0.0000000  0.0000000  2
   2415   7929   7931   7933     1  0.0000000  2.2175200  1
   2415   7929   7931   7933     1  0.0000000  0.0000000  2
   2415   7929   7931   7933     1  180.0000771  0.6276000  3
   2415   7929   7931   7933     1  180.0000771  2.0920000  4
   2419   2413   7855   7857     1  180.0000771  10.4600000  2
   2420   2415   7929   7931     1  180.0000771  10.4600000  2
   2435   2436   2438   2439     1  0.0000000  0.6508444  3
   2435   2437   2440   2441     1  0.0000000  0.6508444  3
   2435   2442   2443   2444     1  0.0000000  0.6508444  3
   2436   2435   2437   2440     1  0.0000000  0.6508444  3
   2436   2435   2442   2443     1  0.0000000  0.6508444  3
   2436   2438   2439   8003     1  0.0000000  0.2928800  2
   2436   2438   2439   8003     1  0.0000000  0.4184000  4
   2436   2438   2439   2445     1  180.0000771  0.0000000  2
   2437   2435   2436   2438     1  0.0000000  0.6508444  3
   2437   2435   2442   2443     1  0.0000000  0.6508444  3
   2437   2440   2441   2446     1  180.0000771  0.0000000  2
   2437   2440   2441   8077     1  0.0000000  0.2928800  2
   2437   2440   2441   8077     1  0.0000000  0.4184000  4
   2438   2436   2435   2442     1  0.0000000  0.6508444  3
   2438   2439   8003   8005     1  180.0000771  6.2760000  1
   2438   2439   8003   8005     1  0.0000000  0.0000000  2
   2439   8003   8005   8007     1  0.0000000  2.2175200  1
   2439   8003   8005   8007     1  0.0000000  0.0000000  2
   2439   8003   8005   8007     1  180.0000771  0.6276000  3
   2439   8003   8005   8007     1  180.0000771  2.0920000  4
   2440   2437   2435   2442     1  0.0000000  0.6508444  3
   2440   2441   8077   8079     1  180.0000771  6.2760000  1
   2440   2441   8077   8079     1  0.0000000  0.0000000  2
   2441   8077   8079   8081     1  0.0000000  2.2175200  1
   2441   8077   8079   8081     1  0.0000000  0.0000000  2
   2441   8077   8079   8081     1  180.0000771  0.6276000  3
   2441   8077   8079   8081     1  180.0000771  2.0920000  4
   2445   2439   8003   8005     1  180.0000771  10.4600000  2
   2446   2441   8077   8079     1  180.0000771  10.4600000  2
   2461   2462   2464   2465     1  0.0000000  0.6508444  3
   2461   2463   2466   2467     1  0.0000000  0.6508444  3
   2461   2468   2469   2470     1  0.0000000  0.6508444  3
   2462   2461   2463   2466     1  0.0000000  0.6508444  3
   2462   2461   2468   2469     1  0.0000000  0.6508444  3
   2462   2464   2465   8151     1  0.0000000  0.2928800  2
   2462   2464   2465   8151     1  0.0000000  0.4184000  4
   2462   2464   2465   2471     1  180.0000771  0.0000000  2
   2463   2461   2462   2464     1  0.0000000  0.6508444  3
   2463   2461   2468   2469     1  0.0000000  0.6508444  3
   2463   2466   2467   2472     1  180.0000771  0.0000000  2
   2463   2466   2467   8225     1  0.0000000  0.2928800  2
   2463   2466   2467   8225     1  0.0000000  0.4184000  4
   2464   2462   2461   2468     1  0.0000000  0.6508444  3
   2464   2465   8151   8153     1  180.0000771  6.2760000  1
   2464   2465   8151   8153     1  0.0000000  0.0000000  2
   2465   8151   8153   8155     1  0.0000000  2.2175200  1
   2465   8151   8153   8155     1  0.0000000  0.0000000  2
   2465   8151   8153   8155     1  180.0000771  0.6276000  3
   2465   8151   8153   8155     1  180.0000771  2.0920000  4
   2466   2463   2461   2468     1  0.0000000  0.6508444  3
   2466   2467   8225   8227     1  180.0000771  6.2760000  1
   2466   2467   8225   8227     1  0.0000000  0.0000000  2
   2467   8225   8227   8229     1  0.0000000  2.2175200  1
   2467   8225   8227   8229     1  0.0000000  0.0000000  2
   2467   8225   8227   8229     1  180.0000771  0.6276000  3
   2467   8225   8227   8229     1  180.0000771  2.0920000  4
   2471   2465   8151   8153     1  180.0000771  10.4600000  2
   2472   2467   8225   8227     1  180.0000771  10.4600000  2
   2487   2488   2490   2491     1  0.0000000  0.6508444  3
   2487   2489   2492   2493     1  0.0000000  0.6508444  3
   2487   2494   2495   2496     1  0.0000000  0.6508444  3
   2488   2487   2489   2492     1  0.0000000  0.6508444  3
   2488   2487   2494   2495     1  0.0000000  0.6508444  3
   2488   2490   2491   8299     1  0.0000000  0.2928800  2
   2488   2490   2491   8299     1  0.0000000  0.4184000  4
   2488   2490   2491   2497     1  180.0000771  0.0000000  2
   2489   2487   2488   2490     1  0.0000000  0.6508444  3
   2489   2487   2494   2495     1  0.0000000  0.6508444  3
   2489   2492   2493   2498     1  180.0000771  0.0000000  2
   2489   2492   2493   8373     1  0.0000000  0.2928800  2
   2489   2492   2493   8373     1  0.0000000  0.4184000  4
   2490   2488   2487   2494     1  0.0000000  0.6508444  3
   2490   2491   8299   8301     1  180.0000771  6.2760000  1
   2490   2491   8299   8301     1  0.0000000  0.0000000  2
   2491   8299   8301   8303     1  0.0000000  2.2175200  1
   2491   8299   8301   8303     1  0.0000000  0.0000000  2
   2491   8299   8301   8303     1  180.0000771  0.6276000  3
   2491   8299   8301   8303     1  180.0000771  2.0920000  4
   2492   2489   2487   2494     1  0.0000000  0.6508444  3
   2492   2493   8373   8375     1  180.0000771  6.2760000  1
   2492   2493   8373   8375     1  0.0000000  0.0000000  2
   2493   8373   8375   8377     1  0.0000000  2.2175200  1
   2493   8373   8375   8377     1  0.0000000  0.0000000  2
   2493   8373   8375   8377     1  180.0000771  0.6276000  3
   2493   8373   8375   8377     1  180.0000771  2.0920000  4
   2497   2491   8299   8301     1  180.0000771  10.4600000  2
   2498   2493   8373   8375     1  180.0000771  10.4600000  2
   2513   2514   2516   2517     1  0.0000000  0.6508444  3
   2513   2515   2518   2519     1  0.0000000  0.6508444  3
   2513   2520   2521   2522     1  0.0000000  0.6508444  3
   2514   2513   2515   2518     1  0.0000000  0.6508444  3
   2514   2513   2520   2521     1  0.0000000  0.6508444  3
   2514   2516   2517   8447     1  0.0000000  0.2928800  2
   2514   2516   2517   8447     1  0.0000000  0.4184000  4
   2514   2516   2517   2523     1  180.0000771  0.0000000  2
   2515   2513   2514   2516     1  0.0000000  0.6508444  3
   2515   2513   2520   2521     1  0.0000000  0.6508444  3
   2515   2518   2519   2524     1  180.0000771  0.0000000  2
   2515   2518   2519   8521     1  0.0000000  0.2928800  2
   2515   2518   2519   8521     1  0.0000000  0.4184000  4
   2516   2514   2513   2520     1  0.0000000  0.6508444  3
   2516   2517   8447   8449     1  180.0000771  6.2760000  1
   2516   2517   8447   8449     1  0.0000000  0.0000000  2
   2517   8447   8449   8451     1  0.0000000  2.2175200  1
   2517   8447   8449   8451     1  0.0000000  0.0000000  2
   2517   8447   8449   8451     1  180.0000771  0.6276000  3
   2517   8447   8449   8451     1  180.0000771  2.0920000  4
   2518   2515   2513   2520     1  0.0000000  0.6508444  3
   2518   2519   8521   8523     1  180.0000771  6.2760000  1
   2518   2519   8521   8523     1  0.0000000  0.0000000  2
   2519   8521   8523   8525     1  0.0000000  2.2175200  1
   2519   8521   8523   8525     1  0.0000000  0.0000000  2
   2519   8521   8523   8525     1  180.0000771  0.6276000  3
   2519   8521   8523   8525     1  180.0000771  2.0920000  4
   2523   2517   8447   8449     1  180.0000771  10.4600000  2
   2524   2519   8521   8523     1  180.0000771  10.4600000  2
   2539   2540   2542   2543     1  0.0000000  0.6508444  3
   2539   2541   2544   2545     1  0.0000000  0.6508444  3
   2539   2546   2547   2548     1  0.0000000  0.6508444  3
   2540   2539   2541   2544     1  0.0000000  0.6508444  3
   2540   2539   2546   2547     1  0.0000000  0.6508444  3
   2540   2542   2543   8595     1  0.0000000  0.2928800  2
   2540   2542   2543   8595     1  0.0000000  0.4184000  4
   2540   2542   2543   2549     1  180.0000771  0.0000000  2
   2541   2539   2540   2542     1  0.0000000  0.6508444  3
   2541   2539   2546   2547     1  0.0000000  0.6508444  3
   2541   2544   2545   2550     1  180.0000771  0.0000000  2
   2541   2544   2545   8669     1  0.0000000  0.2928800  2
   2541   2544   2545   8669     1  0.0000000  0.4184000  4
   2542   2540   2539   2546     1  0.0000000  0.6508444  3
   2542   2543   8595   8597     1  180.0000771  6.2760000  1
   2542   2543   8595   8597     1  0.0000000  0.0000000  2
   2543   8595   8597   8599     1  0.0000000  2.2175200  1
   2543   8595   8597   8599     1  0.0000000  0.0000000  2
   2543   8595   8597   8599     1  180.0000771  0.6276000  3
   2543   8595   8597   8599     1  180.0000771  2.0920000  4
   2544   2541   2539   2546     1  0.0000000  0.6508444  3
   2544   2545   8669   8671     1  180.0000771  6.2760000  1
   2544   2545   8669   8671     1  0.0000000  0.0000000  2
   2545   8669   8671   8673     1  0.0000000  2.2175200  1
   2545   8669   8671   8673     1  0.0000000  0.0000000  2
   2545   8669   8671   8673     1  180.0000771  0.6276000  3
   2545   8669   8671   8673     1  180.0000771  2.0920000  4
   2549   2543   8595   8597     1  180.0000771  10.4600000  2
   2550   2545   8669   8671     1  180.0000771  10.4600000  2
   2565   2566   2568   2569     1  0.0000000  0.6508444  3
   2565   2567   2570   2571     1  0.0000000  0.6508444  3
   2565   2572   2573   2574     1  0.0000000  0.6508444  3
   2566   2565   2567   2570     1  0.0000000  0.6508444  3
   2566   2565   2572   2573     1  0.0000000  0.6508444  3
   2566   2568   2569   8743     1  0.0000000  0.2928800  2
   2566   2568   2569   8743     1  0.0000000  0.4184000  4
   2566   2568   2569   2575     1  180.0000771  0.0000000  2
   2567   2565   2566   2568     1  0.0000000  0.6508444  3
   2567   2565   2572   2573     1  0.0000000  0.6508444  3
   2567   2570   2571   2576     1  180.0000771  0.0000000  2
   2567   2570   2571   8817     1  0.0000000  0.2928800  2
   2567   2570   2571   8817     1  0.0000000  0.4184000  4
   2568   2566   2565   2572     1  0.0000000  0.6508444  3
   2568   2569   8743   8745     1  180.0000771  6.2760000  1
   2568   2569   8743   8745     1  0.0000000  0.0000000  2
   2569   8743   8745   8747     1  0.0000000  2.2175200  1
   2569   8743   8745   8747     1  0.0000000  0.0000000  2
   2569   8743   8745   8747     1  180.0000771  0.6276000  3
   2569   8743   8745   8747     1  180.0000771  2.0920000  4
   2570   2567   2565   2572     1  0.0000000  0.6508444  3
   2570   2571   8817   8819     1  180.0000771  6.2760000  1
   2570   2571   8817   8819     1  0.0000000  0.0000000  2
   2571   8817   8819   8821     1  0.0000000  2.2175200  1
   2571   8817   8819   8821     1  0.0000000  0.0000000  2
   2571   8817   8819   8821     1  180.0000771  0.6276000  3
   2571   8817   8819   8821     1  180.0000771  2.0920000  4
   2575   2569   8743   8745     1  180.0000771  10.4600000  2
   2576   2571   8817   8819     1  180.0000771  10.4600000  2
   2591   2592   2594   2595     1  0.0000000  0.6508444  3
   2591   2593   2596   2597     1  0.0000000  0.6508444  3
   2591   2598   2599   2600     1  0.0000000  0.6508444  3
   2592   2591   2593   2596     1  0.0000000  0.6508444  3
   2592   2591   2598   2599     1  0.0000000  0.6508444  3
   2592   2594   2595   8891     1  0.0000000  0.2928800  2
   2592   2594   2595   8891     1  0.0000000  0.4184000  4
   2592   2594   2595   2601     1  180.0000771  0.0000000  2
   2593   2591   2592   2594     1  0.0000000  0.6508444  3
   2593   2591   2598   2599     1  0.0000000  0.6508444  3
   2593   2596   2597   2602     1  180.0000771  0.0000000  2
   2593   2596   2597   8965     1  0.0000000  0.2928800  2
   2593   2596   2597   8965     1  0.0000000  0.4184000  4
   2594   2592   2591   2598     1  0.0000000  0.6508444  3
   2594   2595   8891   8893     1  180.0000771  6.2760000  1
   2594   2595   8891   8893     1  0.0000000  0.0000000  2
   2595   8891   8893   8895     1  0.0000000  2.2175200  1
   2595   8891   8893   8895     1  0.0000000  0.0000000  2
   2595   8891   8893   8895     1  180.0000771  0.6276000  3
   2595   8891   8893   8895     1  180.0000771  2.0920000  4
   2596   2593   2591   2598     1  0.0000000  0.6508444  3
   2596   2597   8965   8967     1  180.0000771  6.2760000  1
   2596   2597   8965   8967     1  0.0000000  0.0000000  2
   2597   8965   8967   8969     1  0.0000000  2.2175200  1
   2597   8965   8967   8969     1  0.0000000  0.0000000  2
   2597   8965   8967   8969     1  180.0000771  0.6276000  3
   2597   8965   8967   8969     1  180.0000771  2.0920000  4
   2601   2595   8891   8893     1  180.0000771  10.4600000  2
   2602   2597   8965   8967     1  180.0000771  10.4600000  2
   2617   2618   2620   2621     1  0.0000000  0.6508444  3
   2617   2619   2622   2623     1  0.0000000  0.6508444  3
   2617   2624   2625   2626     1  0.0000000  0.6508444  3
   2618   2617   2619   2622     1  0.0000000  0.6508444  3
   2618   2617   2624   2625     1  0.0000000  0.6508444  3
   2618   2620   2621   9039     1  0.0000000  0.2928800  2
   2618   2620   2621   9039     1  0.0000000  0.4184000  4
   2618   2620   2621   2627     1  180.0000771  0.0000000  2
   2619   2617   2618   2620     1  0.0000000  0.6508444  3
   2619   2617   2624   2625     1  0.0000000  0.6508444  3
   2619   2622   2623   2628     1  180.0000771  0.0000000  2
   2619   2622   2623   9113     1  0.0000000  0.2928800  2
   2619   2622   2623   9113     1  0.0000000  0.4184000  4
   2620   2618   2617   2624     1  0.0000000  0.6508444  3
   2620   2621   9039   9041     1  180.0000771  6.2760000  1
   2620   2621   9039   9041     1  0.0000000  0.0000000  2
   2621   9039   9041   9043     1  0.0000000  2.2175200  1
   2621   9039   9041   9043     1  0.0000000  0.0000000  2
   2621   9039   9041   9043     1  180.0000771  0.6276000  3
   2621   9039   9041   9043     1  180.0000771  2.0920000  4
   2622   2619   2617   2624     1  0.0000000  0.6508444  3
   2622   2623   9113   9115     1  180.0000771  6.2760000  1
   2622   2623   9113   9115     1  0.0000000  0.0000000  2
   2623   9113   9115   9117     1  0.0000000  2.2175200  1
   2623   9113   9115   9117     1  0.0000000  0.0000000  2
   2623   9113   9115   9117     1  180.0000771  0.6276000  3
   2623   9113   9115   9117     1  180.0000771  2.0920000  4
   2627   2621   9039   9041     1  180.0000771  10.4600000  2
   2628   2623   9113   9115     1  180.0000771  10.4600000  2
   2643   2644   2646   2647     1  0.0000000  0.6508444  3
   2643   2645   2648   2649     1  0.0000000  0.6508444  3
   2643   2650   2651   2652     1  0.0000000  0.6508444  3
   2644   2643   2645   2648     1  0.0000000  0.6508444  3
   2644   2643   2650   2651     1  0.0000000  0.6508444  3
   2644   2646   2647   9187     1  0.0000000  0.2928800  2
   2644   2646   2647   9187     1  0.0000000  0.4184000  4
   2644   2646   2647   2653     1  180.0000771  0.0000000  2
   2645   2643   2644   2646     1  0.0000000  0.6508444  3
   2645   2643   2650   2651     1  0.0000000  0.6508444  3
   2645   2648   2649   2654     1  180.0000771  0.0000000  2
   2645   2648   2649   9261     1  0.0000000  0.2928800  2
   2645   2648   2649   9261     1  0.0000000  0.4184000  4
   2646   2644   2643   2650     1  0.0000000  0.6508444  3
   2646   2647   9187   9189     1  180.0000771  6.2760000  1
   2646   2647   9187   9189     1  0.0000000  0.0000000  2
   2647   9187   9189   9191     1  0.0000000  2.2175200  1
   2647   9187   9189   9191     1  0.0000000  0.0000000  2
   2647   9187   9189   9191     1  180.0000771  0.6276000  3
   2647   9187   9189   9191     1  180.0000771  2.0920000  4
   2648   2645   2643   2650     1  0.0000000  0.6508444  3
   2648   2649   9261   9263     1  180.0000771  6.2760000  1
   2648   2649   9261   9263     1  0.0000000  0.0000000  2
   2649   9261   9263   9265     1  0.0000000  2.2175200  1
   2649   9261   9263   9265     1  0.0000000  0.0000000  2
   2649   9261   9263   9265     1  180.0000771  0.6276000  3
   2649   9261   9263   9265     1  180.0000771  2.0920000  4
   2653   2647   9187   9189     1  180.0000771  10.4600000  2
   2654   2649   9261   9263     1  180.0000771  10.4600000  2
   2669   2670   2672   2673     1  0.0000000  0.6508444  3
   2669   2671   2674   2675     1  0.0000000  0.6508444  3
   2669   2676   2677   2678     1  0.0000000  0.6508444  3
   2670   2669   2671   2674     1  0.0000000  0.6508444  3
   2670   2669   2676   2677     1  0.0000000  0.6508444  3
   2670   2672   2673   9335     1  0.0000000  0.2928800  2
   2670   2672   2673   9335     1  0.0000000  0.4184000  4
   2670   2672   2673   2679     1  180.0000771  0.0000000  2
   2671   2669   2670   2672     1  0.0000000  0.6508444  3
   2671   2669   2676   2677     1  0.0000000  0.6508444  3
   2671   2674   2675   2680     1  180.0000771  0.0000000  2
   2671   2674   2675   9409     1  0.0000000  0.2928800  2
   2671   2674   2675   9409     1  0.0000000  0.4184000  4
   2672   2670   2669   2676     1  0.0000000  0.6508444  3
   2672   2673   9335   9337     1  180.0000771  6.2760000  1
   2672   2673   9335   9337     1  0.0000000  0.0000000  2
   2673   9335   9337   9339     1  0.0000000  2.2175200  1
   2673   9335   9337   9339     1  0.0000000  0.0000000  2
   2673   9335   9337   9339     1  180.0000771  0.6276000  3
   2673   9335   9337   9339     1  180.0000771  2.0920000  4
   2674   2671   2669   2676     1  0.0000000  0.6508444  3
   2674   2675   9409   9411     1  180.0000771  6.2760000  1
   2674   2675   9409   9411     1  0.0000000  0.0000000  2
   2675   9409   9411   9413     1  0.0000000  2.2175200  1
   2675   9409   9411   9413     1  0.0000000  0.0000000  2
   2675   9409   9411   9413     1  180.0000771  0.6276000  3
   2675   9409   9411   9413     1  180.0000771  2.0920000  4
   2679   2673   9335   9337     1  180.0000771  10.4600000  2
   2680   2675   9409   9411     1  180.0000771  10.4600000  2
   2695   2696   2698   2699     1  0.0000000  0.6508444  3
   2695   2697   2700   2701     1  0.0000000  0.6508444  3
   2695   2702   2703   2704     1  0.0000000  0.6508444  3
   2696   2695   2697   2700     1  0.0000000  0.6508444  3
   2696   2695   2702   2703     1  0.0000000  0.6508444  3
   2696   2698   2699   9483     1  0.0000000  0.2928800  2
   2696   2698   2699   9483     1  0.0000000  0.4184000  4
   2696   2698   2699   2705     1  180.0000771  0.0000000  2
   2697   2695   2696   2698     1  0.0000000  0.6508444  3
   2697   2695   2702   2703     1  0.0000000  0.6508444  3
   2697   2700   2701   2706     1  180.0000771  0.0000000  2
   2697   2700   2701   9557     1  0.0000000  0.2928800  2
   2697   2700   2701   9557     1  0.0000000  0.4184000  4
   2698   2696   2695   2702     1  0.0000000  0.6508444  3
   2698   2699   9483   9485     1  180.0000771  6.2760000  1
   2698   2699   9483   9485     1  0.0000000  0.0000000  2
   2699   9483   9485   9487     1  0.0000000  2.2175200  1
   2699   9483   9485   9487     1  0.0000000  0.0000000  2
   2699   9483   9485   9487     1  180.0000771  0.6276000  3
   2699   9483   9485   9487     1  180.0000771  2.0920000  4
   2700   2697   2695   2702     1  0.0000000  0.6508444  3
   2700   2701   9557   9559     1  180.0000771  6.2760000  1
   2700   2701   9557   9559     1  0.0000000  0.0000000  2
   2701   9557   9559   9561     1  0.0000000  2.2175200  1
   2701   9557   9559   9561     1  0.0000000  0.0000000  2
   2701   9557   9559   9561     1  180.0000771  0.6276000  3
   2701   9557   9559   9561     1  180.0000771  2.0920000  4
   2705   2699   9483   9485     1  180.0000771  10.4600000  2
   2706   2701   9557   9559     1  180.0000771  10.4600000  2
   2721   2722   2724   2725     1  0.0000000  0.6508444  3
   2721   2723   2726   2727     1  0.0000000  0.6508444  3
   2721   2728   2729   2730     1  0.0000000  0.6508444  3
   2722   2721   2723   2726     1  0.0000000  0.6508444  3
   2722   2721   2728   2729     1  0.0000000  0.6508444  3
   2722   2724   2725   9631     1  0.0000000  0.2928800  2
   2722   2724   2725   9631     1  0.0000000  0.4184000  4
   2722   2724   2725   2731     1  180.0000771  0.0000000  2
   2723   2721   2722   2724     1  0.0000000  0.6508444  3
   2723   2721   2728   2729     1  0.0000000  0.6508444  3
   2723   2726   2727   2732     1  180.0000771  0.0000000  2
   2723   2726   2727   9705     1  0.0000000  0.2928800  2
   2723   2726   2727   9705     1  0.0000000  0.4184000  4
   2724   2722   2721   2728     1  0.0000000  0.6508444  3
   2724   2725   9631   9633     1  180.0000771  6.2760000  1
   2724   2725   9631   9633     1  0.0000000  0.0000000  2
   2725   9631   9633   9635     1  0.0000000  2.2175200  1
   2725   9631   9633   9635     1  0.0000000  0.0000000  2
   2725   9631   9633   9635     1  180.0000771  0.6276000  3
   2725   9631   9633   9635     1  180.0000771  2.0920000  4
   2726   2723   2721   2728     1  0.0000000  0.6508444  3
   2726   2727   9705   9707     1  180.0000771  6.2760000  1
   2726   2727   9705   9707     1  0.0000000  0.0000000  2
   2727   9705   9707   9709     1  0.0000000  2.2175200  1
   2727   9705   9707   9709     1  0.0000000  0.0000000  2
   2727   9705   9707   9709     1  180.0000771  0.6276000  3
   2727   9705   9707   9709     1  180.0000771  2.0920000  4
   2731   2725   9631   9633     1  180.0000771  10.4600000  2
   2732   2727   9705   9707     1  180.0000771  10.4600000  2
   2747   2748   2750   2751     1  0.0000000  0.6508444  3
   2747   2749   2752   2753     1  0.0000000  0.6508444  3
   2747   2754   2755   2756     1  0.0000000  0.6508444  3
   2748   2747   2749   2752     1  0.0000000  0.6508444  3
   2748   2747   2754   2755     1  0.0000000  0.6508444  3
   2748   2750   2751   9779     1  0.0000000  0.2928800  2
   2748   2750   2751   9779     1  0.0000000  0.4184000  4
   2748   2750   2751   2757     1  180.0000771  0.0000000  2
   2749   2747   2748   2750     1  0.0000000  0.6508444  3
   2749   2747   2754   2755     1  0.0000000  0.6508444  3
   2749   2752   2753   2758     1  180.0000771  0.0000000  2
   2749   2752   2753   9853     1  0.0000000  0.2928800  2
   2749   2752   2753   9853     1  0.0000000  0.4184000  4
   2750   2748   2747   2754     1  0.0000000  0.6508444  3
   2750   2751   9779   9781     1  180.0000771  6.2760000  1
   2750   2751   9779   9781     1  0.0000000  0.0000000  2
   2751   9779   9781   9783     1  0.0000000  2.2175200  1
   2751   9779   9781   9783     1  0.0000000  0.0000000  2
   2751   9779   9781   9783     1  180.0000771  0.6276000  3
   2751   9779   9781   9783     1  180.0000771  2.0920000  4
   2752   2749   2747   2754     1  0.0000000  0.6508444  3
   2752   2753   9853   9855     1  180.0000771  6.2760000  1
   2752   2753   9853   9855     1  0.0000000  0.0000000  2
   2753   9853   9855   9857     1  0.0000000  2.2175200  1
   2753   9853   9855   9857     1  0.0000000  0.0000000  2
   2753   9853   9855   9857     1  180.0000771  0.6276000  3
   2753   9853   9855   9857     1  180.0000771  2.0920000  4
   2757   2751   9779   9781     1  180.0000771  10.4600000  2
   2758   2753   9853   9855     1  180.0000771  10.4600000  2
   2773   2774   2776   2777     1  0.0000000  0.6508444  3
   2773   2775   2778   2779     1  0.0000000  0.6508444  3
   2773   2780   2781   2782     1  0.0000000  0.6508444  3
   2774   2773   2775   2778     1  0.0000000  0.6508444  3
   2774   2773   2780   2781     1  0.0000000  0.6508444  3
   2774   2776   2777   9927     1  0.0000000  0.2928800  2
   2774   2776   2777   9927     1  0.0000000  0.4184000  4
   2774   2776   2777   2783     1  180.0000771  0.0000000  2
   2775   2773   2774   2776     1  0.0000000  0.6508444  3
   2775   2773   2780   2781     1  0.0000000  0.6508444  3
   2775   2778   2779   2784     1  180.0000771  0.0000000  2
   2775   2778   2779  10001     1  0.0000000  0.2928800  2
   2775   2778   2779  10001     1  0.0000000  0.4184000  4
   2776   2774   2773   2780     1  0.0000000  0.6508444  3
   2776   2777   9927   9929     1  180.0000771  6.2760000  1
   2776   2777   9927   9929     1  0.0000000  0.0000000  2
   2777   9927   9929   9931     1  0.0000000  2.2175200  1
   2777   9927   9929   9931     1  0.0000000  0.0000000  2
   2777   9927   9929   9931     1  180.0000771  0.6276000  3
   2777   9927   9929   9931     1  180.0000771  2.0920000  4
   2778   2775   2773   2780     1  0.0000000  0.6508444  3
   2778   2779  10001  10003     1  180.0000771  6.2760000  1
   2778   2779  10001  10003     1  0.0000000  0.0000000  2
   2779  10001  10003  10005     1  0.0000000  2.2175200  1
   2779  10001  10003  10005     1  0.0000000  0.0000000  2
   2779  10001  10003  10005     1  180.0000771  0.6276000  3
   2779  10001  10003  10005     1  180.0000771  2.0920000  4
   2783   2777   9927   9929     1  180.0000771  10.4600000  2
   2784   2779  10001  10003     1  180.0000771  10.4600000  2
   2799   2800   2802   2803     1  0.0000000  0.6508444  3
   2799   2801   2804   2805     1  0.0000000  0.6508444  3
   2799   2806   2807   2808     1  0.0000000  0.6508444  3
   2800   2799   2801   2804     1  0.0000000  0.6508444  3
   2800   2799   2806   2807     1  0.0000000  0.6508444  3
   2800   2802   2803  10075     1  0.0000000  0.2928800  2
   2800   2802   2803  10075     1  0.0000000  0.4184000  4
   2800   2802   2803   2809     1  180.0000771  0.0000000  2
   2801   2799   2800   2802     1  0.0000000  0.6508444  3
   2801   2799   2806   2807     1  0.0000000  0.6508444  3
   2801   2804   2805   2810     1  180.0000771  0.0000000  2
   2801   2804   2805  10149     1  0.0000000  0.2928800  2
   2801   2804   2805  10149     1  0.0000000  0.4184000  4
   2802   2800   2799   2806     1  0.0000000  0.6508444  3
   2802   2803  10075  10077     1  180.0000771  6.2760000  1
   2802   2803  10075  10077     1  0.0000000  0.0000000  2
   2803  10075  10077  10079     1  0.0000000  2.2175200  1
   2803  10075  10077  10079     1  0.0000000  0.0000000  2
   2803  10075  10077  10079     1  180.0000771  0.6276000  3
   2803  10075  10077  10079     1  180.0000771  2.0920000  4
   2804   2801   2799   2806     1  0.0000000  0.6508444  3
   2804   2805  10149  10151     1  180.0000771  6.2760000  1
   2804   2805  10149  10151     1  0.0000000  0.0000000  2
   2805  10149  10151  10153     1  0.0000000  2.2175200  1
   2805  10149  10151  10153     1  0.0000000  0.0000000  2
   2805  10149  10151  10153     1  180.0000771  0.6276000  3
   2805  10149  10151  10153     1  180.0000771  2.0920000  4
   2809   2803  10075  10077     1  180.0000771  10.4600000  2
   2810   2805  10149  10151     1  180.0000771  10.4600000  2
   2825   2826   2828   2829     1  0.0000000  0.6508444  3
   2825   2827   2830   2831     1  0.0000000  0.6508444  3
   2825   2832   2833   2834     1  0.0000000  0.6508444  3
   2826   2825   2827   2830     1  0.0000000  0.6508444  3
   2826   2825   2832   2833     1  0.0000000  0.6508444  3
   2826   2828   2829  10223     1  0.0000000  0.2928800  2
   2826   2828   2829  10223     1  0.0000000  0.4184000  4
   2826   2828   2829   2835     1  180.0000771  0.0000000  2
   2827   2825   2826   2828     1  0.0000000  0.6508444  3
   2827   2825   2832   2833     1  0.0000000  0.6508444  3
   2827   2830   2831   2836     1  180.0000771  0.0000000  2
   2827   2830   2831  10297     1  0.0000000  0.2928800  2
   2827   2830   2831  10297     1  0.0000000  0.4184000  4
   2828   2826   2825   2832     1  0.0000000  0.6508444  3
   2828   2829  10223  10225     1  180.0000771  6.2760000  1
   2828   2829  10223  10225     1  0.0000000  0.0000000  2
   2829  10223  10225  10227     1  0.0000000  2.2175200  1
   2829  10223  10225  10227     1  0.0000000  0.0000000  2
   2829  10223  10225  10227     1  180.0000771  0.6276000  3
   2829  10223  10225  10227     1  180.0000771  2.0920000  4
   2830   2827   2825   2832     1  0.0000000  0.6508444  3
   2830   2831  10297  10299     1  180.0000771  6.2760000  1
   2830   2831  10297  10299     1  0.0000000  0.0000000  2
   2831  10297  10299  10301     1  0.0000000  2.2175200  1
   2831  10297  10299  10301     1  0.0000000  0.0000000  2
   2831  10297  10299  10301     1  180.0000771  0.6276000  3
   2831  10297  10299  10301     1  180.0000771  2.0920000  4
   2835   2829  10223  10225     1  180.0000771  10.4600000  2
   2836   2831  10297  10299     1  180.0000771  10.4600000  2
   2851   2852   2854   2855     1  0.0000000  0.6508444  3
   2851   2853   2856   2857     1  0.0000000  0.6508444  3
   2851   2858   2859   2860     1  0.0000000  0.6508444  3
   2852   2851   2853   2856     1  0.0000000  0.6508444  3
   2852   2851   2858   2859     1  0.0000000  0.6508444  3
   2852   2854   2855  10371     1  0.0000000  0.2928800  2
   2852   2854   2855  10371     1  0.0000000  0.4184000  4
   2852   2854   2855   2861     1  180.0000771  0.0000000  2
   2853   2851   2852   2854     1  0.0000000  0.6508444  3
   2853   2851   2858   2859     1  0.0000000  0.6508444  3
   2853   2856   2857   2862     1  180.0000771  0.0000000  2
   2853   2856   2857  10445     1  0.0000000  0.2928800  2
   2853   2856   2857  10445     1  0.0000000  0.4184000  4
   2854   2852   2851   2858     1  0.0000000  0.6508444  3
   2854   2855  10371  10373     1  180.0000771  6.2760000  1
   2854   2855  10371  10373     1  0.0000000  0.0000000  2
   2855  10371  10373  10375     1  0.0000000  2.2175200  1
   2855  10371  10373  10375     1  0.0000000  0.0000000  2
   2855  10371  10373  10375     1  180.0000771  0.6276000  3
   2855  10371  10373  10375     1  180.0000771  2.0920000  4
   2856   2853   2851   2858     1  0.0000000  0.6508444  3
   2856   2857  10445  10447     1  180.0000771  6.2760000  1
   2856   2857  10445  10447     1  0.0000000  0.0000000  2
   2857  10445  10447  10449     1  0.0000000  2.2175200  1
   2857  10445  10447  10449     1  0.0000000  0.0000000  2
   2857  10445  10447  10449     1  180.0000771  0.6276000  3
   2857  10445  10447  10449     1  180.0000771  2.0920000  4
   2861   2855  10371  10373     1  180.0000771  10.4600000  2
   2862   2857  10445  10447     1  180.0000771  10.4600000  2
   2877   2878   2880   2881     1  0.0000000  0.6508444  3
   2877   2879   2882   2883     1  0.0000000  0.6508444  3
   2877   2884   2885   2886     1  0.0000000  0.6508444  3
   2878   2877   2879   2882     1  0.0000000  0.6508444  3
   2878   2877   2884   2885     1  0.0000000  0.6508444  3
   2878   2880   2881  10519     1  0.0000000  0.2928800  2
   2878   2880   2881  10519     1  0.0000000  0.4184000  4
   2878   2880   2881   2887     1  180.0000771  0.0000000  2
   2879   2877   2878   2880     1  0.0000000  0.6508444  3
   2879   2877   2884   2885     1  0.0000000  0.6508444  3
   2879   2882   2883   2888     1  180.0000771  0.0000000  2
   2879   2882   2883  10593     1  0.0000000  0.2928800  2
   2879   2882   2883  10593     1  0.0000000  0.4184000  4
   2880   2878   2877   2884     1  0.0000000  0.6508444  3
   2880   2881  10519  10521     1  180.0000771  6.2760000  1
   2880   2881  10519  10521     1  0.0000000  0.0000000  2
   2881  10519  10521  10523     1  0.0000000  2.2175200  1
   2881  10519  10521  10523     1  0.0000000  0.0000000  2
   2881  10519  10521  10523     1  180.0000771  0.6276000  3
   2881  10519  10521  10523     1  180.0000771  2.0920000  4
   2882   2879   2877   2884     1  0.0000000  0.6508444  3
   2882   2883  10593  10595     1  180.0000771  6.2760000  1
   2882   2883  10593  10595     1  0.0000000  0.0000000  2
   2883  10593  10595  10597     1  0.0000000  2.2175200  1
   2883  10593  10595  10597     1  0.0000000  0.0000000  2
   2883  10593  10595  10597     1  180.0000771  0.6276000  3
   2883  10593  10595  10597     1  180.0000771  2.0920000  4
   2887   2881  10519  10521     1  180.0000771  10.4600000  2
   2888   2883  10593  10595     1  180.0000771  10.4600000  2
   2903   2904   2906   2907     1  0.0000000  0.6508444  3
   2903   2905   2908   2909     1  0.0000000  0.6508444  3
   2903   2910   2911   2912     1  0.0000000  0.6508444  3
   2904   2903   2905   2908     1  0.0000000  0.6508444  3
   2904   2903   2910   2911     1  0.0000000  0.6508444  3
   2904   2906   2907  10667     1  0.0000000  0.2928800  2
   2904   2906   2907  10667     1  0.0000000  0.4184000  4
   2904   2906   2907   2913     1  180.0000771  0.0000000  2
   2905   2903   2904   2906     1  0.0000000  0.6508444  3
   2905   2903   2910   2911     1  0.0000000  0.6508444  3
   2905   2908   2909   2914     1  180.0000771  0.0000000  2
   2905   2908   2909  10741     1  0.0000000  0.2928800  2
   2905   2908   2909  10741     1  0.0000000  0.4184000  4
   2906   2904   2903   2910     1  0.0000000  0.6508444  3
   2906   2907  10667  10669     1  180.0000771  6.2760000  1
   2906   2907  10667  10669     1  0.0000000  0.0000000  2
   2907  10667  10669  10671     1  0.0000000  2.2175200  1
   2907  10667  10669  10671     1  0.0000000  0.0000000  2
   2907  10667  10669  10671     1  180.0000771  0.6276000  3
   2907  10667  10669  10671     1  180.0000771  2.0920000  4
   2908   2905   2903   2910     1  0.0000000  0.6508444  3
   2908   2909  10741  10743     1  180.0000771  6.2760000  1
   2908   2909  10741  10743     1  0.0000000  0.0000000  2
   2909  10741  10743  10745     1  0.0000000  2.2175200  1
   2909  10741  10743  10745     1  0.0000000  0.0000000  2
   2909  10741  10743  10745     1  180.0000771  0.6276000  3
   2909  10741  10743  10745     1  180.0000771  2.0920000  4
   2913   2907  10667  10669     1  180.0000771  10.4600000  2
   2914   2909  10741  10743     1  180.0000771  10.4600000  2
   2929   2930   2932   2933     1  0.0000000  0.6508444  3
   2929   2931   2934   2935     1  0.0000000  0.6508444  3
   2929   2936   2937   2938     1  0.0000000  0.6508444  3
   2930   2929   2931   2934     1  0.0000000  0.6508444  3
   2930   2929   2936   2937     1  0.0000000  0.6508444  3
   2930   2932   2933  10815     1  0.0000000  0.2928800  2
   2930   2932   2933  10815     1  0.0000000  0.4184000  4
   2930   2932   2933   2939     1  180.0000771  0.0000000  2
   2931   2929   2930   2932     1  0.0000000  0.6508444  3
   2931   2929   2936   2937     1  0.0000000  0.6508444  3
   2931   2934   2935   2940     1  180.0000771  0.0000000  2
   2931   2934   2935  10889     1  0.0000000  0.2928800  2
   2931   2934   2935  10889     1  0.0000000  0.4184000  4
   2932   2930   2929   2936     1  0.0000000  0.6508444  3
   2932   2933  10815  10817     1  180.0000771  6.2760000  1
   2932   2933  10815  10817     1  0.0000000  0.0000000  2
   2933  10815  10817  10819     1  0.0000000  2.2175200  1
   2933  10815  10817  10819     1  0.0000000  0.0000000  2
   2933  10815  10817  10819     1  180.0000771  0.6276000  3
   2933  10815  10817  10819     1  180.0000771  2.0920000  4
   2934   2931   2929   2936     1  0.0000000  0.6508444  3
   2934   2935  10889  10891     1  180.0000771  6.2760000  1
   2934   2935  10889  10891     1  0.0000000  0.0000000  2
   2935  10889  10891  10893     1  0.0000000  2.2175200  1
   2935  10889  10891  10893     1  0.0000000  0.0000000  2
   2935  10889  10891  10893     1  180.0000771  0.6276000  3
   2935  10889  10891  10893     1  180.0000771  2.0920000  4
   2939   2933  10815  10817     1  180.0000771  10.4600000  2
   2940   2935  10889  10891     1  180.0000771  10.4600000  2
   2955   2956   2958   2959     1  0.0000000  0.6508444  3
   2955   2957   2960   2961     1  0.0000000  0.6508444  3
   2955   2962   2963   2964     1  0.0000000  0.6508444  3
   2956   2955   2957   2960     1  0.0000000  0.6508444  3
   2956   2955   2962   2963     1  0.0000000  0.6508444  3
   2956   2958   2959  10963     1  0.0000000  0.2928800  2
   2956   2958   2959  10963     1  0.0000000  0.4184000  4
   2956   2958   2959   2965     1  180.0000771  0.0000000  2
   2957   2955   2956   2958     1  0.0000000  0.6508444  3
   2957   2955   2962   2963     1  0.0000000  0.6508444  3
   2957   2960   2961   2966     1  180.0000771  0.0000000  2
   2957   2960   2961  11037     1  0.0000000  0.2928800  2
   2957   2960   2961  11037     1  0.0000000  0.4184000  4
   2958   2956   2955   2962     1  0.0000000  0.6508444  3
   2958   2959  10963  10965     1  180.0000771  6.2760000  1
   2958   2959  10963  10965     1  0.0000000  0.0000000  2
   2959  10963  10965  10967     1  0.0000000  2.2175200  1
   2959  10963  10965  10967     1  0.0000000  0.0000000  2
   2959  10963  10965  10967     1  180.0000771  0.6276000  3
   2959  10963  10965  10967     1  180.0000771  2.0920000  4
   2960   2957   2955   2962     1  0.0000000  0.6508444  3
   2960   2961  11037  11039     1  180.0000771  6.2760000  1
   2960   2961  11037  11039     1  0.0000000  0.0000000  2
   2961  11037  11039  11041     1  0.0000000  2.2175200  1
   2961  11037  11039  11041     1  0.0000000  0.0000000  2
   2961  11037  11039  11041     1  180.0000771  0.6276000  3
   2961  11037  11039  11041     1  180.0000771  2.0920000  4
   2965   2959  10963  10965     1  180.0000771  10.4600000  2
   2966   2961  11037  11039     1  180.0000771  10.4600000  2
   2981   2982   2984   2985     1  0.0000000  0.6508444  3
   2981   2983   2986   2987     1  0.0000000  0.6508444  3
   2981   2988   2989   2990     1  0.0000000  0.6508444  3
   2982   2981   2983   2986     1  0.0000000  0.6508444  3
   2982   2981   2988   2989     1  0.0000000  0.6508444  3
   2982   2984   2985  11111     1  0.0000000  0.2928800  2
   2982   2984   2985  11111     1  0.0000000  0.4184000  4
   2982   2984   2985   2991     1  180.0000771  0.0000000  2
   2983   2981   2982   2984     1  0.0000000  0.6508444  3
   2983   2981   2988   2989     1  0.0000000  0.6508444  3
   2983   2986   2987   2992     1  180.0000771  0.0000000  2
   2983   2986   2987  11185     1  0.0000000  0.2928800  2
   2983   2986   2987  11185     1  0.0000000  0.4184000  4
   2984   2982   2981   2988     1  0.0000000  0.6508444  3
   2984   2985  11111  11113     1  180.0000771  6.2760000  1
   2984   2985  11111  11113     1  0.0000000  0.0000000  2
   2985  11111  11113  11115     1  0.0000000  2.2175200  1
   2985  11111  11113  11115     1  0.0000000  0.0000000  2
   2985  11111  11113  11115     1  180.0000771  0.6276000  3
   2985  11111  11113  11115     1  180.0000771  2.0920000  4
   2986   2983   2981   2988     1  0.0000000  0.6508444  3
   2986   2987  11185  11187     1  180.0000771  6.2760000  1
   2986   2987  11185  11187     1  0.0000000  0.0000000  2
   2987  11185  11187  11189     1  0.0000000  2.2175200  1
   2987  11185  11187  11189     1  0.0000000  0.0000000  2
   2987  11185  11187  11189     1  180.0000771  0.6276000  3
   2987  11185  11187  11189     1  180.0000771  2.0920000  4
   2991   2985  11111  11113     1  180.0000771  10.4600000  2
   2992   2987  11185  11187     1  180.0000771  10.4600000  2
   3007   3008   3010   3011     1  0.0000000  0.6508444  3
   3007   3009   3012   3013     1  0.0000000  0.6508444  3
   3007   3014   3015   3016     1  0.0000000  0.6508444  3
   3008   3007   3009   3012     1  0.0000000  0.6508444  3
   3008   3007   3014   3015     1  0.0000000  0.6508444  3
   3008   3010   3011  11259     1  0.0000000  0.2928800  2
   3008   3010   3011  11259     1  0.0000000  0.4184000  4
   3008   3010   3011   3017     1  180.0000771  0.0000000  2
   3009   3007   3008   3010     1  0.0000000  0.6508444  3
   3009   3007   3014   3015     1  0.0000000  0.6508444  3
   3009   3012   3013   3018     1  180.0000771  0.0000000  2
   3009   3012   3013  11333     1  0.0000000  0.2928800  2
   3009   3012   3013  11333     1  0.0000000  0.4184000  4
   3010   3008   3007   3014     1  0.0000000  0.6508444  3
   3010   3011  11259  11261     1  180.0000771  6.2760000  1
   3010   3011  11259  11261     1  0.0000000  0.0000000  2
   3011  11259  11261  11263     1  0.0000000  2.2175200  1
   3011  11259  11261  11263     1  0.0000000  0.0000000  2
   3011  11259  11261  11263     1  180.0000771  0.6276000  3
   3011  11259  11261  11263     1  180.0000771  2.0920000  4
   3012   3009   3007   3014     1  0.0000000  0.6508444  3
   3012   3013  11333  11335     1  180.0000771  6.2760000  1
   3012   3013  11333  11335     1  0.0000000  0.0000000  2
   3013  11333  11335  11337     1  0.0000000  2.2175200  1
   3013  11333  11335  11337     1  0.0000000  0.0000000  2
   3013  11333  11335  11337     1  180.0000771  0.6276000  3
   3013  11333  11335  11337     1  180.0000771  2.0920000  4
   3017   3011  11259  11261     1  180.0000771  10.4600000  2
   3018   3013  11333  11335     1  180.0000771  10.4600000  2
   3033   3034   3036   3037     1  0.0000000  0.6508444  3
   3033   3035   3038   3039     1  0.0000000  0.6508444  3
   3033   3040   3041   3042     1  0.0000000  0.6508444  3
   3034   3033   3035   3038     1  0.0000000  0.6508444  3
   3034   3033   3040   3041     1  0.0000000  0.6508444  3
   3034   3036   3037  11407     1  0.0000000  0.2928800  2
   3034   3036   3037  11407     1  0.0000000  0.4184000  4
   3034   3036   3037   3043     1  180.0000771  0.0000000  2
   3035   3033   3034   3036     1  0.0000000  0.6508444  3
   3035   3033   3040   3041     1  0.0000000  0.6508444  3
   3035   3038   3039   3044     1  180.0000771  0.0000000  2
   3035   3038   3039  11481     1  0.0000000  0.2928800  2
   3035   3038   3039  11481     1  0.0000000  0.4184000  4
   3036   3034   3033   3040     1  0.0000000  0.6508444  3
   3036   3037  11407  11409     1  180.0000771  6.2760000  1
   3036   3037  11407  11409     1  0.0000000  0.0000000  2
   3037  11407  11409  11411     1  0.0000000  2.2175200  1
   3037  11407  11409  11411     1  0.0000000  0.0000000  2
   3037  11407  11409  11411     1  180.0000771  0.6276000  3
   3037  11407  11409  11411     1  180.0000771  2.0920000  4
   3038   3035   3033   3040     1  0.0000000  0.6508444  3
   3038   3039  11481  11483     1  180.0000771  6.2760000  1
   3038   3039  11481  11483     1  0.0000000  0.0000000  2
   3039  11481  11483  11485     1  0.0000000  2.2175200  1
   3039  11481  11483  11485     1  0.0000000  0.0000000  2
   3039  11481  11483  11485     1  180.0000771  0.6276000  3
   3039  11481  11483  11485     1  180.0000771  2.0920000  4
   3043   3037  11407  11409     1  180.0000771  10.4600000  2
   3044   3039  11481  11483     1  180.0000771  10.4600000  2
   3059   3060   3062   3063     1  0.0000000  0.6508444  3
   3059   3061   3064   3065     1  0.0000000  0.6508444  3
   3059   3066   3067   3068     1  0.0000000  0.6508444  3
   3060   3059   3061   3064     1  0.0000000  0.6508444  3
   3060   3059   3066   3067     1  0.0000000  0.6508444  3
   3060   3062   3063  11555     1  0.0000000  0.2928800  2
   3060   3062   3063  11555     1  0.0000000  0.4184000  4
   3060   3062   3063   3069     1  180.0000771  0.0000000  2
   3061   3059   3060   3062     1  0.0000000  0.6508444  3
   3061   3059   3066   3067     1  0.0000000  0.6508444  3
   3061   3064   3065   3070     1  180.0000771  0.0000000  2
   3061   3064   3065  11629     1  0.0000000  0.2928800  2
   3061   3064   3065  11629     1  0.0000000  0.4184000  4
   3062   3060   3059   3066     1  0.0000000  0.6508444  3
   3062   3063  11555  11557     1  180.0000771  6.2760000  1
   3062   3063  11555  11557     1  0.0000000  0.0000000  2
   3063  11555  11557  11559     1  0.0000000  2.2175200  1
   3063  11555  11557  11559     1  0.0000000  0.0000000  2
   3063  11555  11557  11559     1  180.0000771  0.6276000  3
   3063  11555  11557  11559     1  180.0000771  2.0920000  4
   3064   3061   3059   3066     1  0.0000000  0.6508444  3
   3064   3065  11629  11631     1  180.0000771  6.2760000  1
   3064   3065  11629  11631     1  0.0000000  0.0000000  2
   3065  11629  11631  11633     1  0.0000000  2.2175200  1
   3065  11629  11631  11633     1  0.0000000  0.0000000  2
   3065  11629  11631  11633     1  180.0000771  0.6276000  3
   3065  11629  11631  11633     1  180.0000771  2.0920000  4
   3069   3063  11555  11557     1  180.0000771  10.4600000  2
   3070   3065  11629  11631     1  180.0000771  10.4600000  2
   3085   3086   3088   3089     1  0.0000000  0.6508444  3
   3085   3087   3090   3091     1  0.0000000  0.6508444  3
   3085   3092   3093   3094     1  0.0000000  0.6508444  3
   3086   3085   3087   3090     1  0.0000000  0.6508444  3
   3086   3085   3092   3093     1  0.0000000  0.6508444  3
   3086   3088   3089  11703     1  0.0000000  0.2928800  2
   3086   3088   3089  11703     1  0.0000000  0.4184000  4
   3086   3088   3089   3095     1  180.0000771  0.0000000  2
   3087   3085   3086   3088     1  0.0000000  0.6508444  3
   3087   3085   3092   3093     1  0.0000000  0.6508444  3
   3087   3090   3091   3096     1  180.0000771  0.0000000  2
   3087   3090   3091  11777     1  0.0000000  0.2928800  2
   3087   3090   3091  11777     1  0.0000000  0.4184000  4
   3088   3086   3085   3092     1  0.0000000  0.6508444  3
   3088   3089  11703  11705     1  180.0000771  6.2760000  1
   3088   3089  11703  11705     1  0.0000000  0.0000000  2
   3089  11703  11705  11707     1  0.0000000  2.2175200  1
   3089  11703  11705  11707     1  0.0000000  0.0000000  2
   3089  11703  11705  11707     1  180.0000771  0.6276000  3
   3089  11703  11705  11707     1  180.0000771  2.0920000  4
   3090   3087   3085   3092     1  0.0000000  0.6508444  3
   3090   3091  11777  11779     1  180.0000771  6.2760000  1
   3090   3091  11777  11779     1  0.0000000  0.0000000  2
   3091  11777  11779  11781     1  0.0000000  2.2175200  1
   3091  11777  11779  11781     1  0.0000000  0.0000000  2
   3091  11777  11779  11781     1  180.0000771  0.6276000  3
   3091  11777  11779  11781     1  180.0000771  2.0920000  4
   3095   3089  11703  11705     1  180.0000771  10.4600000  2
   3096   3091  11777  11779     1  180.0000771  10.4600000  2
   3111   3112   3114   3115     1  0.0000000  0.6508444  3
   3111   3113   3116   3117     1  0.0000000  0.6508444  3
   3111   3118   3119   3120     1  0.0000000  0.6508444  3
   3112   3111   3113   3116     1  0.0000000  0.6508444  3
   3112   3111   3118   3119     1  0.0000000  0.6508444  3
   3112   3114   3115  11851     1  0.0000000  0.2928800  2
   3112   3114   3115  11851     1  0.0000000  0.4184000  4
   3112   3114   3115   3121     1  180.0000771  0.0000000  2
   3113   3111   3112   3114     1  0.0000000  0.6508444  3
   3113   3111   3118   3119     1  0.0000000  0.6508444  3
   3113   3116   3117   3122     1  180.0000771  0.0000000  2
   3113   3116   3117  11925     1  0.0000000  0.2928800  2
   3113   3116   3117  11925     1  0.0000000  0.4184000  4
   3114   3112   3111   3118     1  0.0000000  0.6508444  3
   3114   3115  11851  11853     1  180.0000771  6.2760000  1
   3114   3115  11851  11853     1  0.0000000  0.0000000  2
   3115  11851  11853  11855     1  0.0000000  2.2175200  1
   3115  11851  11853  11855     1  0.0000000  0.0000000  2
   3115  11851  11853  11855     1  180.0000771  0.6276000  3
   3115  11851  11853  11855     1  180.0000771  2.0920000  4
   3116   3113   3111   3118     1  0.0000000  0.6508444  3
   3116   3117  11925  11927     1  180.0000771  6.2760000  1
   3116   3117  11925  11927     1  0.0000000  0.0000000  2
   3117  11925  11927  11929     1  0.0000000  2.2175200  1
   3117  11925  11927  11929     1  0.0000000  0.0000000  2
   3117  11925  11927  11929     1  180.0000771  0.6276000  3
   3117  11925  11927  11929     1  180.0000771  2.0920000  4
   3121   3115  11851  11853     1  180.0000771  10.4600000  2
   3122   3117  11925  11927     1  180.0000771  10.4600000  2
   3137   3138   3140   3141     1  0.0000000  0.6508444  3
   3137   3139   3142   3143     1  0.0000000  0.6508444  3
   3137   3144   3145   3146     1  0.0000000  0.6508444  3
   3138   3137   3139   3142     1  0.0000000  0.6508444  3
   3138   3137   3144   3145     1  0.0000000  0.6508444  3
   3138   3140   3141  11999     1  0.0000000  0.2928800  2
   3138   3140   3141  11999     1  0.0000000  0.4184000  4
   3138   3140   3141   3147     1  180.0000771  0.0000000  2
   3139   3137   3138   3140     1  0.0000000  0.6508444  3
   3139   3137   3144   3145     1  0.0000000  0.6508444  3
   3139   3142   3143   3148     1  180.0000771  0.0000000  2
   3139   3142   3143  12073     1  0.0000000  0.2928800  2
   3139   3142   3143  12073     1  0.0000000  0.4184000  4
   3140   3138   3137   3144     1  0.0000000  0.6508444  3
   3140   3141  11999  12001     1  180.0000771  6.2760000  1
   3140   3141  11999  12001     1  0.0000000  0.0000000  2
   3141  11999  12001  12003     1  0.0000000  2.2175200  1
   3141  11999  12001  12003     1  0.0000000  0.0000000  2
   3141  11999  12001  12003     1  180.0000771  0.6276000  3
   3141  11999  12001  12003     1  180.0000771  2.0920000  4
   3142   3139   3137   3144     1  0.0000000  0.6508444  3
   3142   3143  12073  12075     1  180.0000771  6.2760000  1
   3142   3143  12073  12075     1  0.0000000  0.0000000  2
   3143  12073  12075  12077     1  0.0000000  2.2175200  1
   3143  12073  12075  12077     1  0.0000000  0.0000000  2
   3143  12073  12075  12077     1  180.0000771  0.6276000  3
   3143  12073  12075  12077     1  180.0000771  2.0920000  4
   3147   3141  11999  12001     1  180.0000771  10.4600000  2
   3148   3143  12073  12075     1  180.0000771  10.4600000  2
   3163   3164   3166   3167     1  0.0000000  0.6508444  3
   3163   3165   3168   3169     1  0.0000000  0.6508444  3
   3163   3170   3171   3172     1  0.0000000  0.6508444  3
   3164   3163   3165   3168     1  0.0000000  0.6508444  3
   3164   3163   3170   3171     1  0.0000000  0.6508444  3
   3164   3166   3167  12147     1  0.0000000  0.2928800  2
   3164   3166   3167  12147     1  0.0000000  0.4184000  4
   3164   3166   3167   3173     1  180.0000771  0.0000000  2
   3165   3163   3164   3166     1  0.0000000  0.6508444  3
   3165   3163   3170   3171     1  0.0000000  0.6508444  3
   3165   3168   3169   3174     1  180.0000771  0.0000000  2
   3165   3168   3169  12221     1  0.0000000  0.2928800  2
   3165   3168   3169  12221     1  0.0000000  0.4184000  4
   3166   3164   3163   3170     1  0.0000000  0.6508444  3
   3166   3167  12147  12149     1  180.0000771  6.2760000  1
   3166   3167  12147  12149     1  0.0000000  0.0000000  2
   3167  12147  12149  12151     1  0.0000000  2.2175200  1
   3167  12147  12149  12151     1  0.0000000  0.0000000  2
   3167  12147  12149  12151     1  180.0000771  0.6276000  3
   3167  12147  12149  12151     1  180.0000771  2.0920000  4
   3168   3165   3163   3170     1  0.0000000  0.6508444  3
   3168   3169  12221  12223     1  180.0000771  6.2760000  1
   3168   3169  12221  12223     1  0.0000000  0.0000000  2
   3169  12221  12223  12225     1  0.0000000  2.2175200  1
   3169  12221  12223  12225     1  0.0000000  0.0000000  2
   3169  12221  12223  12225     1  180.0000771  0.6276000  3
   3169  12221  12223  12225     1  180.0000771  2.0920000  4
   3173   3167  12147  12149     1  180.0000771  10.4600000  2
   3174   3169  12221  12223     1  180.0000771  10.4600000  2
   3189   3190   3192   3193     1  0.0000000  0.6508444  3
   3189   3191   3194   3195     1  0.0000000  0.6508444  3
   3189   3196   3197   3198     1  0.0000000  0.6508444  3
   3190   3189   3191   3194     1  0.0000000  0.6508444  3
   3190   3189   3196   3197     1  0.0000000  0.6508444  3
   3190   3192   3193  12295     1  0.0000000  0.2928800  2
   3190   3192   3193  12295     1  0.0000000  0.4184000  4
   3190   3192   3193   3199     1  180.0000771  0.0000000  2
   3191   3189   3190   3192     1  0.0000000  0.6508444  3
   3191   3189   3196   3197     1  0.0000000  0.6508444  3
   3191   3194   3195   3200     1  180.0000771  0.0000000  2
   3191   3194   3195  12369     1  0.0000000  0.2928800  2
   3191   3194   3195  12369     1  0.0000000  0.4184000  4
   3192   3190   3189   3196     1  0.0000000  0.6508444  3
   3192   3193  12295  12297     1  180.0000771  6.2760000  1
   3192   3193  12295  12297     1  0.0000000  0.0000000  2
   3193  12295  12297  12299     1  0.0000000  2.2175200  1
   3193  12295  12297  12299     1  0.0000000  0.0000000  2
   3193  12295  12297  12299     1  180.0000771  0.6276000  3
   3193  12295  12297  12299     1  180.0000771  2.0920000  4
   3194   3191   3189   3196     1  0.0000000  0.6508444  3
   3194   3195  12369  12371     1  180.0000771  6.2760000  1
   3194   3195  12369  12371     1  0.0000000  0.0000000  2
   3195  12369  12371  12373     1  0.0000000  2.2175200  1
   3195  12369  12371  12373     1  0.0000000  0.0000000  2
   3195  12369  12371  12373     1  180.0000771  0.6276000  3
   3195  12369  12371  12373     1  180.0000771  2.0920000  4
   3199   3193  12295  12297     1  180.0000771  10.4600000  2
   3200   3195  12369  12371     1  180.0000771  10.4600000  2
   3215   3216   3218   3219     1  0.0000000  0.6508444  3
   3215   3217   3220   3221     1  0.0000000  0.6508444  3
   3215   3222   3223   3224     1  0.0000000  0.6508444  3
   3216   3215   3217   3220     1  0.0000000  0.6508444  3
   3216   3215   3222   3223     1  0.0000000  0.6508444  3
   3216   3218   3219  12443     1  0.0000000  0.2928800  2
   3216   3218   3219  12443     1  0.0000000  0.4184000  4
   3216   3218   3219   3225     1  180.0000771  0.0000000  2
   3217   3215   3216   3218     1  0.0000000  0.6508444  3
   3217   3215   3222   3223     1  0.0000000  0.6508444  3
   3217   3220   3221   3226     1  180.0000771  0.0000000  2
   3217   3220   3221  12517     1  0.0000000  0.2928800  2
   3217   3220   3221  12517     1  0.0000000  0.4184000  4
   3218   3216   3215   3222     1  0.0000000  0.6508444  3
   3218   3219  12443  12445     1  180.0000771  6.2760000  1
   3218   3219  12443  12445     1  0.0000000  0.0000000  2
   3219  12443  12445  12447     1  0.0000000  2.2175200  1
   3219  12443  12445  12447     1  0.0000000  0.0000000  2
   3219  12443  12445  12447     1  180.0000771  0.6276000  3
   3219  12443  12445  12447     1  180.0000771  2.0920000  4
   3220   3217   3215   3222     1  0.0000000  0.6508444  3
   3220   3221  12517  12519     1  180.0000771  6.2760000  1
   3220   3221  12517  12519     1  0.0000000  0.0000000  2
   3221  12517  12519  12521     1  0.0000000  2.2175200  1
   3221  12517  12519  12521     1  0.0000000  0.0000000  2
   3221  12517  12519  12521     1  180.0000771  0.6276000  3
   3221  12517  12519  12521     1  180.0000771  2.0920000  4
   3225   3219  12443  12445     1  180.0000771  10.4600000  2
   3226   3221  12517  12519     1  180.0000771  10.4600000  2
   3241   3242   3244   3245     1  0.0000000  0.6508444  3
   3241   3243   3246   3247     1  0.0000000  0.6508444  3
   3241   3248   3249   3250     1  0.0000000  0.6508444  3
   3242   3241   3243   3246     1  0.0000000  0.6508444  3
   3242   3241   3248   3249     1  0.0000000  0.6508444  3
   3242   3244   3245  12591     1  0.0000000  0.2928800  2
   3242   3244   3245  12591     1  0.0000000  0.4184000  4
   3242   3244   3245   3251     1  180.0000771  0.0000000  2
   3243   3241   3242   3244     1  0.0000000  0.6508444  3
   3243   3241   3248   3249     1  0.0000000  0.6508444  3
   3243   3246   3247  12665     1  0.0000000  0.2928800  2
   3243   3246   3247  12665     1  0.0000000  0.4184000  4
   3243   3246   3247   3252     1  180.0000771  0.0000000  2
   3244   3242   3241   3248     1  0.0000000  0.6508444  3
   3244   3245  12591  12593     1  180.0000771  6.2760000  1
   3244   3245  12591  12593     1  0.0000000  0.0000000  2
   3245  12591  12593  12595     1  0.0000000  2.2175200  1
   3245  12591  12593  12595     1  0.0000000  0.0000000  2
   3245  12591  12593  12595     1  180.0000771  0.6276000  3
   3245  12591  12593  12595     1  180.0000771  2.0920000  4
   3246   3243   3241   3248     1  0.0000000  0.6508444  3
   3246   3247  12665  12667     1  180.0000771  6.2760000  1
   3246   3247  12665  12667     1  0.0000000  0.0000000  2
   3247  12665  12667  12669     1  0.0000000  2.2175200  1
   3247  12665  12667  12669     1  0.0000000  0.0000000  2
   3247  12665  12667  12669     1  180.0000771  0.6276000  3
   3247  12665  12667  12669     1  180.0000771  2.0920000  4
   3251   3245  12591  12593     1  180.0000771  10.4600000  2
   3252   3247  12665  12667     1  180.0000771  10.4600000  2
   3267   3269   3271   3275     1  0.0000000  0.6508444  3
   3269   3271   3275   3276     1  0.0000000  0.6508444  3
   3269   3271   3275   3277     1  0.0000000  0.6508444  3
   3271   3275   3276   3287     1  0.0000000  0.6508444  3
   3271   3275   3277   3279     1  0.0000000  0.6508444  3
   3275   3276   3287   3290     1  0.0000000  0.6508444  3
   3275   3277   3279   3283     1  0.0000000  0.6508444  3
   3276   3275   3277   3279     1  0.0000000  0.6508444  3
   3276   3287   3290   3291     1  180.0000771  0.0000000  2
   3276   3287   3290   3339     1  180.0000771  0.0000000  2
   3277   3275   3276   3287     1  0.0000000  0.6508444  3
   3277   3279   3283   3284     1  180.0000771  0.0000000  2
   3277   3279   3283   3315     1  180.0000771  0.0000000  2
   3279   3283   3315   3296     1  180.0000771  6.0668000  2
   3279   3283   3315   3296     1  180.0000771  1.4644000  4
   3283   3315   3296   3295     1  0.0000000  1.2552000  3
   3283   3315   3296   3297     1  0.0000000  1.2552000  3
   3284   3283   3315   3296     1  180.0000771  6.0668000  2
   3284   3283   3315   3296     1  180.0000771  1.4644000  4
   3287   3290   3339   3320     1  180.0000771  6.0668000  2
   3287   3290   3339   3320     1  180.0000771  1.4644000  4
   3290   3339   3320   3319     1  0.0000000  1.2552000  3
   3290   3339   3320   3321     1  0.0000000  1.2552000  3
   3291   3290   3339   3320     1  180.0000771  6.0668000  2
   3291   3290   3339   3320     1  180.0000771  1.4644000  4
   3292   3293   3295   3296     1  180.0000771  0.8368000  1
   3292   3293   3295   3296     1  180.0000771  1.0460000  2
   3292   3293   3295   3296     1  0.0000000  0.7531200  3
   3292   3293   3295   3302     1  0.0000000  0.6508444  3
   3292   3310   3297   3296     1  180.0000771  0.4184000  2
   3292   3310   3297   3296     1  0.0000000  1.6024720  3
   3292   3310   3297   3301     1  0.0000000  1.6038667  3
   3293   3292   3303   3308     1  0.0000000  0.6508444  3
   3293   3292   3310   3297     1  180.0000771  0.4184000  2
   3293   3292   3310   3297     1  0.0000000  1.6024720  3
   3293   3295   3296   3297     1  180.0000771  0.8368000  1
   3293   3295   3296   3297     1  180.0000771  1.0460000  2
   3293   3295   3296   3297     1  0.0000000  0.7531200  3
   3293   3295   3296   3315     1  0.0000000  0.6508444  3
   3295   3293   3292   3303     1  180.0000771  0.8368000  1
   3295   3293   3292   3303     1  180.0000771  1.0460000  2
   3295   3293   3292   3303     1  0.0000000  0.7531200  3
   3295   3293   3292   3310     1  0.0000000  0.6508444  3
   3295   3296   3297   3301     1  0.0000000  0.6508444  3
   3295   3296   3297   3310     1  0.0000000  0.6508444  3
   3296   3295   3293   3313     1  0.0000000  0.6508444  3
   3297   3296   3295   3302     1  0.0000000  0.6508444  3
   3297   3310   3292   3303     1  180.0000771  0.4184000  2
   3297   3310   3292   3303     1  0.0000000  1.6024720  3
   3301   3297   3296   3315     1  0.0000000  0.6508444  3
   3302   3295   3293   3313     1  0.0000000  4.9162000  2
   3302   3295   3293   3313     1  0.0000000  0.6024960  3
   3302   3295   3296   3315     1  0.0000000  0.6508444  3
   3303   3292   3293   3313     1  0.0000000  0.6508444  3
   3308   3303   3292   3310     1  0.0000000  4.9162000  2
   3308   3303   3292   3310     1  0.0000000  0.6024960  3
   3310   3292   3293   3313     1  0.0000000  4.9162000  2
   3310   3292   3293   3313     1  0.0000000  0.6024960  3
   3310   3297   3296   3315     1  0.0000000  0.6508444  3
   3316   3317   3319   3320     1  180.0000771  0.8368000  1
   3316   3317   3319   3320     1  180.0000771  1.0460000  2
   3316   3317   3319   3320     1  0.0000000  0.7531200  3
   3316   3317   3319   3326     1  0.0000000  0.6508444  3
   3316   3334   3321   3320     1  180.0000771  0.4184000  2
   3316   3334   3321   3320     1  0.0000000  1.6024720  3
   3316   3334   3321   3325     1  0.0000000  1.6038667  3
   3317   3316   3327   3332     1  0.0000000  0.6508444  3
   3317   3316   3334   3321     1  180.0000771  0.4184000  2
   3317   3316   3334   3321     1  0.0000000  1.6024720  3
   3317   3319   3320   3321     1  180.0000771  0.8368000  1
   3317   3319   3320   3321     1  180.0000771  1.0460000  2
   3317   3319   3320   3321     1  0.0000000  0.7531200  3
   3317   3319   3320   3339     1  0.0000000  0.6508444  3
   3319   3317   3316   3327     1  180.0000771  0.8368000  1
   3319   3317   3316   3327     1  180.0000771  1.0460000  2
   3319   3317   3316   3327     1  0.0000000  0.7531200  3
   3319   3317   3316   3334     1  0.0000000  0.6508444  3
   3319   3320   3321   3325     1  0.0000000  0.6508444  3
   3319   3320   3321   3334     1  0.0000000  0.6508444  3
   3320   3319   3317   3337     1  0.0000000  0.6508444  3
   3321   3320   3319   3326     1  0.0000000  0.6508444  3
   3321   3334   3316   3327     1  180.0000771  0.4184000  2
   3321   3334   3316   3327     1  0.0000000  1.6024720  3
   3325   3321   3320   3339     1  0.0000000  0.6508444  3
   3326   3319   3317   3337     1  0.0000000  4.9162000  2
   3326   3319   3317   3337     1  0.0000000  0.6024960  3
   3326   3319   3320   3339     1  0.0000000  0.6508444  3
   3327   3316   3317   3337     1  0.0000000  0.6508444  3
   3332   3327   3316   3334     1  0.0000000  4.9162000  2
   3332   3327   3316   3334     1  0.0000000  0.6024960  3
   3334   3316   3317   3337     1  0.0000000  4.9162000  2
   3334   3316   3317   3337     1  0.0000000  0.6024960  3
   3334   3321   3320   3339     1  0.0000000  0.6508444  3
   3341   3343   3345   3349     1  0.0000000  0.6508444  3
   3343   3345   3349   3350     1  0.0000000  0.6508444  3
   3343   3345   3349   3351     1  0.0000000  0.6508444  3
   3345   3349   3350   3361     1  0.0000000  0.6508444  3
   3345   3349   3351   3353     1  0.0000000  0.6508444  3
   3349   3350   3361   3364     1  0.0000000  0.6508444  3
   3349   3351   3353   3357     1  0.0000000  0.6508444  3
   3350   3361   3364   3365     1  180.0000771  0.0000000  2
   3350   3361   3364   3413     1  180.0000771  0.0000000  2
   3350   3349   3351   3353     1  0.0000000  0.6508444  3
   3351   3353   3357   3358     1  180.0000771  0.0000000  2
   3351   3353   3357   3389     1  180.0000771  0.0000000  2
   3351   3349   3350   3361     1  0.0000000  0.6508444  3
   3353   3357   3389   3370     1  180.0000771  6.0668000  2
   3353   3357   3389   3370     1  180.0000771  1.4644000  4
   3357   3389   3370   3371     1  0.0000000  1.2552000  3
   3357   3389   3370   3369     1  0.0000000  1.2552000  3
   3358   3357   3389   3370     1  180.0000771  6.0668000  2
   3358   3357   3389   3370     1  180.0000771  1.4644000  4
   3361   3364   3413   3394     1  180.0000771  6.0668000  2
   3361   3364   3413   3394     1  180.0000771  1.4644000  4
   3364   3413   3394   3395     1  0.0000000  1.2552000  3
   3364   3413   3394   3393     1  0.0000000  1.2552000  3
   3365   3364   3413   3394     1  180.0000771  6.0668000  2
   3365   3364   3413   3394     1  180.0000771  1.4644000  4
   3366   3367   3369   3370     1  180.0000771  0.8368000  1
   3366   3367   3369   3370     1  180.0000771  1.0460000  2
   3366   3367   3369   3370     1  0.0000000  0.7531200  3
   3366   3367   3369   3376     1  0.0000000  0.6508444  3
   3366   3384   3371   3375     1  0.0000000  1.6038667  3
   3366   3384   3371   3370     1  180.0000771  0.4184000  2
   3366   3384   3371   3370     1  0.0000000  1.6024720  3
   3367   3369   3370   3371     1  180.0000771  0.8368000  1
   3367   3369   3370   3371     1  180.0000771  1.0460000  2
   3367   3369   3370   3371     1  0.0000000  0.7531200  3
   3367   3369   3370   3389     1  0.0000000  0.6508444  3
   3367   3366   3377   3382     1  0.0000000  0.6508444  3
   3367   3366   3384   3371     1  180.0000771  0.4184000  2
   3367   3366   3384   3371     1  0.0000000  1.6024720  3
   3369   3370   3371   3375     1  0.0000000  0.6508444  3
   3369   3370   3371   3384     1  0.0000000  0.6508444  3
   3369   3367   3366   3377     1  180.0000771  0.8368000  1
   3369   3367   3366   3377     1  180.0000771  1.0460000  2
   3369   3367   3366   3377     1  0.0000000  0.7531200  3
   3369   3367   3366   3384     1  0.0000000  0.6508444  3
   3370   3369   3367   3387     1  0.0000000  0.6508444  3
   3371   3384   3366   3377     1  180.0000771  0.4184000  2
   3371   3384   3366   3377     1  0.0000000  1.6024720  3
   3371   3370   3369   3376     1  0.0000000  0.6508444  3
   3375   3371   3370   3389     1  0.0000000  0.6508444  3
   3376   3369   3370   3389     1  0.0000000  0.6508444  3
   3376   3369   3367   3387     1  0.0000000  4.9162000  2
   3376   3369   3367   3387     1  0.0000000  0.6024960  3
   3377   3366   3367   3387     1  0.0000000  0.6508444  3
   3382   3377   3366   3384     1  0.0000000  4.9162000  2
   3382   3377   3366   3384     1  0.0000000  0.6024960  3
   3384   3371   3370   3389     1  0.0000000  0.6508444  3
   3384   3366   3367   3387     1  0.0000000  4.9162000  2
   3384   3366   3367   3387     1  0.0000000  0.6024960  3
   3390   3391   3393   3394     1  180.0000771  0.8368000  1
   3390   3391   3393   3394     1  180.0000771  1.0460000  2
   3390   3391   3393   3394     1  0.0000000  0.7531200  3
   3390   3391   3393   3400     1  0.0000000  0.6508444  3
   3390   3408   3395   3399     1  0.0000000  1.6038667  3
   3390   3408   3395   3394     1  180.0000771  0.4184000  2
   3390   3408   3395   3394     1  0.0000000  1.6024720  3
   3391   3393   3394   3395     1  180.0000771  0.8368000  1
   3391   3393   3394   3395     1  180.0000771  1.0460000  2
   3391   3393   3394   3395     1  0.0000000  0.7531200  3
   3391   3393   3394   3413     1  0.0000000  0.6508444  3
   3391   3390   3401   3406     1  0.0000000  0.6508444  3
   3391   3390   3408   3395     1  180.0000771  0.4184000  2
   3391   3390   3408   3395     1  0.0000000  1.6024720  3
   3393   3394   3395   3399     1  0.0000000  0.6508444  3
   3393   3394   3395   3408     1  0.0000000  0.6508444  3
   3393   3391   3390   3401     1  180.0000771  0.8368000  1
   3393   3391   3390   3401     1  180.0000771  1.0460000  2
   3393   3391   3390   3401     1  0.0000000  0.7531200  3
   3393   3391   3390   3408     1  0.0000000  0.6508444  3
   3394   3393   3391   3411     1  0.0000000  0.6508444  3
   3395   3408   3390   3401     1  180.0000771  0.4184000  2
   3395   3408   3390   3401     1  0.0000000  1.6024720  3
   3395   3394   3393   3400     1  0.0000000  0.6508444  3
   3399   3395   3394   3413     1  0.0000000  0.6508444  3
   3400   3393   3394   3413     1  0.0000000  0.6508444  3
   3400   3393   3391   3411     1  0.0000000  4.9162000  2
   3400   3393   3391   3411     1  0.0000000  0.6024960  3
   3401   3390   3391   3411     1  0.0000000  0.6508444  3
   3406   3401   3390   3408     1  0.0000000  4.9162000  2
   3406   3401   3390   3408     1  0.0000000  0.6024960  3
   3408   3395   3394   3413     1  0.0000000  0.6508444  3
   3408   3390   3391   3411     1  0.0000000  4.9162000  2
   3408   3390   3391   3411     1  0.0000000  0.6024960  3
   3415   3417   3419   3423     1  0.0000000  0.6508444  3
   3417   3419   3423   3424     1  0.0000000  0.6508444  3
   3417   3419   3423   3425     1  0.0000000  0.6508444  3
   3419   3423   3424   3435     1  0.0000000  0.6508444  3
   3419   3423   3425   3427     1  0.0000000  0.6508444  3
   3423   3424   3435   3438     1  0.0000000  0.6508444  3
   3423   3425   3427   3431     1  0.0000000  0.6508444  3
   3424   3423   3425   3427     1  0.0000000  0.6508444  3
   3424   3435   3438   3439     1  180.0000771  0.0000000  2
   3424   3435   3438   3487     1  180.0000771  0.0000000  2
   3425   3423   3424   3435     1  0.0000000  0.6508444  3
   3425   3427   3431   3432     1  180.0000771  0.0000000  2
   3425   3427   3431   3463     1  180.0000771  0.0000000  2
   3427   3431   3463   3444     1  180.0000771  6.0668000  2
   3427   3431   3463   3444     1  180.0000771  1.4644000  4
   3431   3463   3444   3443     1  0.0000000  1.2552000  3
   3431   3463   3444   3445     1  0.0000000  1.2552000  3
   3432   3431   3463   3444     1  180.0000771  6.0668000  2
   3432   3431   3463   3444     1  180.0000771  1.4644000  4
   3435   3438   3487   3468     1  180.0000771  6.0668000  2
   3435   3438   3487   3468     1  180.0000771  1.4644000  4
   3438   3487   3468   3467     1  0.0000000  1.2552000  3
   3438   3487   3468   3469     1  0.0000000  1.2552000  3
   3439   3438   3487   3468     1  180.0000771  6.0668000  2
   3439   3438   3487   3468     1  180.0000771  1.4644000  4
   3440   3441   3443   3444     1  180.0000771  0.8368000  1
   3440   3441   3443   3444     1  180.0000771  1.0460000  2
   3440   3441   3443   3444     1  0.0000000  0.7531200  3
   3440   3441   3443   3450     1  0.0000000  0.6508444  3
   3440   3458   3445   3444     1  180.0000771  0.4184000  2
   3440   3458   3445   3444     1  0.0000000  1.6024720  3
   3440   3458   3445   3449     1  0.0000000  1.6038667  3
   3441   3440   3451   3456     1  0.0000000  0.6508444  3
   3441   3440   3458   3445     1  180.0000771  0.4184000  2
   3441   3440   3458   3445     1  0.0000000  1.6024720  3
   3441   3443   3444   3445     1  180.0000771  0.8368000  1
   3441   3443   3444   3445     1  180.0000771  1.0460000  2
   3441   3443   3444   3445     1  0.0000000  0.7531200  3
   3441   3443   3444   3463     1  0.0000000  0.6508444  3
   3443   3441   3440   3451     1  180.0000771  0.8368000  1
   3443   3441   3440   3451     1  180.0000771  1.0460000  2
   3443   3441   3440   3451     1  0.0000000  0.7531200  3
   3443   3441   3440   3458     1  0.0000000  0.6508444  3
   3443   3444   3445   3449     1  0.0000000  0.6508444  3
   3443   3444   3445   3458     1  0.0000000  0.6508444  3
   3444   3443   3441   3461     1  0.0000000  0.6508444  3
   3445   3444   3443   3450     1  0.0000000  0.6508444  3
   3445   3458   3440   3451     1  180.0000771  0.4184000  2
   3445   3458   3440   3451     1  0.0000000  1.6024720  3
   3449   3445   3444   3463     1  0.0000000  0.6508444  3
   3450   3443   3441   3461     1  0.0000000  4.9162000  2
   3450   3443   3441   3461     1  0.0000000  0.6024960  3
   3450   3443   3444   3463     1  0.0000000  0.6508444  3
   3451   3440   3441   3461     1  0.0000000  0.6508444  3
   3456   3451   3440   3458     1  0.0000000  4.9162000  2
   3456   3451   3440   3458     1  0.0000000  0.6024960  3
   3458   3440   3441   3461     1  0.0000000  4.9162000  2
   3458   3440   3441   3461     1  0.0000000  0.6024960  3
   3458   3445   3444   3463     1  0.0000000  0.6508444  3
   3464   3465   3467   3468     1  180.0000771  0.8368000  1
   3464   3465   3467   3468     1  180.0000771  1.0460000  2
   3464   3465   3467   3468     1  0.0000000  0.7531200  3
   3464   3465   3467   3474     1  0.0000000  0.6508444  3
   3464   3482   3469   3468     1  180.0000771  0.4184000  2
   3464   3482   3469   3468     1  0.0000000  1.6024720  3
   3464   3482   3469   3473     1  0.0000000  1.6038667  3
   3465   3464   3475   3480     1  0.0000000  0.6508444  3
   3465   3464   3482   3469     1  180.0000771  0.4184000  2
   3465   3464   3482   3469     1  0.0000000  1.6024720  3
   3465   3467   3468   3469     1  180.0000771  0.8368000  1
   3465   3467   3468   3469     1  180.0000771  1.0460000  2
   3465   3467   3468   3469     1  0.0000000  0.7531200  3
   3465   3467   3468   3487     1  0.0000000  0.6508444  3
   3467   3465   3464   3475     1  180.0000771  0.8368000  1
   3467   3465   3464   3475     1  180.0000771  1.0460000  2
   3467   3465   3464   3475     1  0.0000000  0.7531200  3
   3467   3465   3464   3482     1  0.0000000  0.6508444  3
   3467   3468   3469   3473     1  0.0000000  0.6508444  3
   3467   3468   3469   3482     1  0.0000000  0.6508444  3
   3468   3467   3465   3485     1  0.0000000  0.6508444  3
   3469   3468   3467   3474     1  0.0000000  0.6508444  3
   3469   3482   3464   3475     1  180.0000771  0.4184000  2
   3469   3482   3464   3475     1  0.0000000  1.6024720  3
   3473   3469   3468   3487     1  0.0000000  0.6508444  3
   3474   3467   3465   3485     1  0.0000000  4.9162000  2
   3474   3467   3465   3485     1  0.0000000  0.6024960  3
   3474   3467   3468   3487     1  0.0000000  0.6508444  3
   3475   3464   3465   3485     1  0.0000000  0.6508444  3
   3480   3475   3464   3482     1  0.0000000  4.9162000  2
   3480   3475   3464   3482     1  0.0000000  0.6024960  3
   3482   3464   3465   3485     1  0.0000000  4.9162000  2
   3482   3464   3465   3485     1  0.0000000  0.6024960  3
   3482   3469   3468   3487     1  0.0000000  0.6508444  3
   3489   3491   3493   3497     1  0.0000000  0.6508444  3
   3491   3493   3497   3498     1  0.0000000  0.6508444  3
   3491   3493   3497   3499     1  0.0000000  0.6508444  3
   3493   3497   3498   3509     1  0.0000000  0.6508444  3
   3493   3497   3499   3501     1  0.0000000  0.6508444  3
   3497   3498   3509   3512     1  0.0000000  0.6508444  3
   3497   3499   3501   3505     1  0.0000000  0.6508444  3
   3498   3509   3512   3513     1  180.0000771  0.0000000  2
   3498   3509   3512   3561     1  180.0000771  0.0000000  2
   3498   3497   3499   3501     1  0.0000000  0.6508444  3
   3499   3501   3505   3506     1  180.0000771  0.0000000  2
   3499   3501   3505   3537     1  180.0000771  0.0000000  2
   3499   3497   3498   3509     1  0.0000000  0.6508444  3
   3501   3505   3537   3518     1  180.0000771  6.0668000  2
   3501   3505   3537   3518     1  180.0000771  1.4644000  4
   3505   3537   3518   3519     1  0.0000000  1.2552000  3
   3505   3537   3518   3517     1  0.0000000  1.2552000  3
   3506   3505   3537   3518     1  180.0000771  6.0668000  2
   3506   3505   3537   3518     1  180.0000771  1.4644000  4
   3509   3512   3561   3542     1  180.0000771  6.0668000  2
   3509   3512   3561   3542     1  180.0000771  1.4644000  4
   3512   3561   3542   3543     1  0.0000000  1.2552000  3
   3512   3561   3542   3541     1  0.0000000  1.2552000  3
   3513   3512   3561   3542     1  180.0000771  6.0668000  2
   3513   3512   3561   3542     1  180.0000771  1.4644000  4
   3514   3515   3517   3518     1  180.0000771  0.8368000  1
   3514   3515   3517   3518     1  180.0000771  1.0460000  2
   3514   3515   3517   3518     1  0.0000000  0.7531200  3
   3514   3515   3517   3524     1  0.0000000  0.6508444  3
   3514   3532   3519   3523     1  0.0000000  1.6038667  3
   3514   3532   3519   3518     1  180.0000771  0.4184000  2
   3514   3532   3519   3518     1  0.0000000  1.6024720  3
   3515   3517   3518   3519     1  180.0000771  0.8368000  1
   3515   3517   3518   3519     1  180.0000771  1.0460000  2
   3515   3517   3518   3519     1  0.0000000  0.7531200  3
   3515   3517   3518   3537     1  0.0000000  0.6508444  3
   3515   3514   3525   3530     1  0.0000000  0.6508444  3
   3515   3514   3532   3519     1  180.0000771  0.4184000  2
   3515   3514   3532   3519     1  0.0000000  1.6024720  3
   3517   3518   3519   3523     1  0.0000000  0.6508444  3
   3517   3518   3519   3532     1  0.0000000  0.6508444  3
   3517   3515   3514   3525     1  180.0000771  0.8368000  1
   3517   3515   3514   3525     1  180.0000771  1.0460000  2
   3517   3515   3514   3525     1  0.0000000  0.7531200  3
   3517   3515   3514   3532     1  0.0000000  0.6508444  3
   3518   3517   3515   3535     1  0.0000000  0.6508444  3
   3519   3532   3514   3525     1  180.0000771  0.4184000  2
   3519   3532   3514   3525     1  0.0000000  1.6024720  3
   3519   3518   3517   3524     1  0.0000000  0.6508444  3
   3523   3519   3518   3537     1  0.0000000  0.6508444  3
   3524   3517   3518   3537     1  0.0000000  0.6508444  3
   3524   3517   3515   3535     1  0.0000000  4.9162000  2
   3524   3517   3515   3535     1  0.0000000  0.6024960  3
   3525   3514   3515   3535     1  0.0000000  0.6508444  3
   3530   3525   3514   3532     1  0.0000000  4.9162000  2
   3530   3525   3514   3532     1  0.0000000  0.6024960  3
   3532   3519   3518   3537     1  0.0000000  0.6508444  3
   3532   3514   3515   3535     1  0.0000000  4.9162000  2
   3532   3514   3515   3535     1  0.0000000  0.6024960  3
   3538   3539   3541   3542     1  180.0000771  0.8368000  1
   3538   3539   3541   3542     1  180.0000771  1.0460000  2
   3538   3539   3541   3542     1  0.0000000  0.7531200  3
   3538   3539   3541   3548     1  0.0000000  0.6508444  3
   3538   3556   3543   3547     1  0.0000000  1.6038667  3
   3538   3556   3543   3542     1  180.0000771  0.4184000  2
   3538   3556   3543   3542     1  0.0000000  1.6024720  3
   3539   3541   3542   3543     1  180.0000771  0.8368000  1
   3539   3541   3542   3543     1  180.0000771  1.0460000  2
   3539   3541   3542   3543     1  0.0000000  0.7531200  3
   3539   3541   3542   3561     1  0.0000000  0.6508444  3
   3539   3538   3549   3554     1  0.0000000  0.6508444  3
   3539   3538   3556   3543     1  180.0000771  0.4184000  2
   3539   3538   3556   3543     1  0.0000000  1.6024720  3
   3541   3542   3543   3547     1  0.0000000  0.6508444  3
   3541   3542   3543   3556     1  0.0000000  0.6508444  3
   3541   3539   3538   3549     1  180.0000771  0.8368000  1
   3541   3539   3538   3549     1  180.0000771  1.0460000  2
   3541   3539   3538   3549     1  0.0000000  0.7531200  3
   3541   3539   3538   3556     1  0.0000000  0.6508444  3
   3542   3541   3539   3559     1  0.0000000  0.6508444  3
   3543   3556   3538   3549     1  180.0000771  0.4184000  2
   3543   3556   3538   3549     1  0.0000000  1.6024720  3
   3543   3542   3541   3548     1  0.0000000  0.6508444  3
   3547   3543   3542   3561     1  0.0000000  0.6508444  3
   3548   3541   3542   3561     1  0.0000000  0.6508444  3
   3548   3541   3539   3559     1  0.0000000  4.9162000  2
   3548   3541   3539   3559     1  0.0000000  0.6024960  3
   3549   3538   3539   3559     1  0.0000000  0.6508444  3
   3554   3549   3538   3556     1  0.0000000  4.9162000  2
   3554   3549   3538   3556     1  0.0000000  0.6024960  3
   3556   3543   3542   3561     1  0.0000000  0.6508444  3
   3556   3538   3539   3559     1  0.0000000  4.9162000  2
   3556   3538   3539   3559     1  0.0000000  0.6024960  3
   3563   3565   3567   3571     1  0.0000000  0.6508444  3
   3565   3567   3571   3572     1  0.0000000  0.6508444  3
   3565   3567   3571   3573     1  0.0000000  0.6508444  3
   3567   3571   3572   3583     1  0.0000000  0.6508444  3
   3567   3571   3573   3575     1  0.0000000  0.6508444  3
   3571   3572   3583   3586     1  0.0000000  0.6508444  3
   3571   3573   3575   3579     1  0.0000000  0.6508444  3
   3572   3571   3573   3575     1  0.0000000  0.6508444  3
   3572   3583   3586   3587     1  180.0000771  0.0000000  2
   3572   3583   3586   3635     1  180.0000771  0.0000000  2
   3573   3571   3572   3583     1  0.0000000  0.6508444  3
   3573   3575   3579   3580     1  180.0000771  0.0000000  2
   3573   3575   3579   3611     1  180.0000771  0.0000000  2
   3575   3579   3611   3592     1  180.0000771  6.0668000  2
   3575   3579   3611   3592     1  180.0000771  1.4644000  4
   3579   3611   3592   3591     1  0.0000000  1.2552000  3
   3579   3611   3592   3593     1  0.0000000  1.2552000  3
   3580   3579   3611   3592     1  180.0000771  6.0668000  2
   3580   3579   3611   3592     1  180.0000771  1.4644000  4
   3583   3586   3635   3616     1  180.0000771  6.0668000  2
   3583   3586   3635   3616     1  180.0000771  1.4644000  4
   3586   3635   3616   3615     1  0.0000000  1.2552000  3
   3586   3635   3616   3617     1  0.0000000  1.2552000  3
   3587   3586   3635   3616     1  180.0000771  6.0668000  2
   3587   3586   3635   3616     1  180.0000771  1.4644000  4
   3588   3589   3591   3592     1  180.0000771  0.8368000  1
   3588   3589   3591   3592     1  180.0000771  1.0460000  2
   3588   3589   3591   3592     1  0.0000000  0.7531200  3
   3588   3589   3591   3598     1  0.0000000  0.6508444  3
   3588   3606   3593   3592     1  180.0000771  0.4184000  2
   3588   3606   3593   3592     1  0.0000000  1.6024720  3
   3588   3606   3593   3597     1  0.0000000  1.6038667  3
   3589   3588   3599   3604     1  0.0000000  0.6508444  3
   3589   3588   3606   3593     1  180.0000771  0.4184000  2
   3589   3588   3606   3593     1  0.0000000  1.6024720  3
   3589   3591   3592   3593     1  180.0000771  0.8368000  1
   3589   3591   3592   3593     1  180.0000771  1.0460000  2
   3589   3591   3592   3593     1  0.0000000  0.7531200  3
   3589   3591   3592   3611     1  0.0000000  0.6508444  3
   3591   3589   3588   3599     1  180.0000771  0.8368000  1
   3591   3589   3588   3599     1  180.0000771  1.0460000  2
   3591   3589   3588   3599     1  0.0000000  0.7531200  3
   3591   3589   3588   3606     1  0.0000000  0.6508444  3
   3591   3592   3593   3597     1  0.0000000  0.6508444  3
   3591   3592   3593   3606     1  0.0000000  0.6508444  3
   3592   3591   3589   3609     1  0.0000000  0.6508444  3
   3593   3592   3591   3598     1  0.0000000  0.6508444  3
   3593   3606   3588   3599     1  180.0000771  0.4184000  2
   3593   3606   3588   3599     1  0.0000000  1.6024720  3
   3597   3593   3592   3611     1  0.0000000  0.6508444  3
   3598   3591   3589   3609     1  0.0000000  4.9162000  2
   3598   3591   3589   3609     1  0.0000000  0.6024960  3
   3598   3591   3592   3611     1  0.0000000  0.6508444  3
   3599   3588   3589   3609     1  0.0000000  0.6508444  3
   3604   3599   3588   3606     1  0.0000000  4.9162000  2
   3604   3599   3588   3606     1  0.0000000  0.6024960  3
   3606   3588   3589   3609     1  0.0000000  4.9162000  2
   3606   3588   3589   3609     1  0.0000000  0.6024960  3
   3606   3593   3592   3611     1  0.0000000  0.6508444  3
   3612   3613   3615   3616     1  180.0000771  0.8368000  1
   3612   3613   3615   3616     1  180.0000771  1.0460000  2
   3612   3613   3615   3616     1  0.0000000  0.7531200  3
   3612   3613   3615   3622     1  0.0000000  0.6508444  3
   3612   3630   3617   3616     1  180.0000771  0.4184000  2
   3612   3630   3617   3616     1  0.0000000  1.6024720  3
   3612   3630   3617   3621     1  0.0000000  1.6038667  3
   3613   3612   3623   3628     1  0.0000000  0.6508444  3
   3613   3612   3630   3617     1  180.0000771  0.4184000  2
   3613   3612   3630   3617     1  0.0000000  1.6024720  3
   3613   3615   3616   3617     1  180.0000771  0.8368000  1
   3613   3615   3616   3617     1  180.0000771  1.0460000  2
   3613   3615   3616   3617     1  0.0000000  0.7531200  3
   3613   3615   3616   3635     1  0.0000000  0.6508444  3
   3615   3613   3612   3623     1  180.0000771  0.8368000  1
   3615   3613   3612   3623     1  180.0000771  1.0460000  2
   3615   3613   3612   3623     1  0.0000000  0.7531200  3
   3615   3613   3612   3630     1  0.0000000  0.6508444  3
   3615   3616   3617   3621     1  0.0000000  0.6508444  3
   3615   3616   3617   3630     1  0.0000000  0.6508444  3
   3616   3615   3613   3633     1  0.0000000  0.6508444  3
   3617   3616   3615   3622     1  0.0000000  0.6508444  3
   3617   3630   3612   3623     1  180.0000771  0.4184000  2
   3617   3630   3612   3623     1  0.0000000  1.6024720  3
   3621   3617   3616   3635     1  0.0000000  0.6508444  3
   3622   3615   3613   3633     1  0.0000000  4.9162000  2
   3622   3615   3613   3633     1  0.0000000  0.6024960  3
   3622   3615   3616   3635     1  0.0000000  0.6508444  3
   3623   3612   3613   3633     1  0.0000000  0.6508444  3
   3628   3623   3612   3630     1  0.0000000  4.9162000  2
   3628   3623   3612   3630     1  0.0000000  0.6024960  3
   3630   3612   3613   3633     1  0.0000000  4.9162000  2
   3630   3612   3613   3633     1  0.0000000  0.6024960  3
   3630   3617   3616   3635     1  0.0000000  0.6508444  3
   3637   3639   3641   3645     1  0.0000000  0.6508444  3
   3639   3641   3645   3646     1  0.0000000  0.6508444  3
   3639   3641   3645   3647     1  0.0000000  0.6508444  3
   3641   3645   3646   3657     1  0.0000000  0.6508444  3
   3641   3645   3647   3649     1  0.0000000  0.6508444  3
   3645   3646   3657   3660     1  0.0000000  0.6508444  3
   3645   3647   3649   3653     1  0.0000000  0.6508444  3
   3646   3657   3660   3661     1  180.0000771  0.0000000  2
   3646   3657   3660   3709     1  180.0000771  0.0000000  2
   3646   3645   3647   3649     1  0.0000000  0.6508444  3
   3647   3649   3653   3654     1  180.0000771  0.0000000  2
   3647   3649   3653   3685     1  180.0000771  0.0000000  2
   3647   3645   3646   3657     1  0.0000000  0.6508444  3
   3649   3653   3685   3666     1  180.0000771  6.0668000  2
   3649   3653   3685   3666     1  180.0000771  1.4644000  4
   3653   3685   3666   3667     1  0.0000000  1.2552000  3
   3653   3685   3666   3665     1  0.0000000  1.2552000  3
   3654   3653   3685   3666     1  180.0000771  6.0668000  2
   3654   3653   3685   3666     1  180.0000771  1.4644000  4
   3657   3660   3709   3690     1  180.0000771  6.0668000  2
   3657   3660   3709   3690     1  180.0000771  1.4644000  4
   3660   3709   3690   3691     1  0.0000000  1.2552000  3
   3660   3709   3690   3689     1  0.0000000  1.2552000  3
   3661   3660   3709   3690     1  180.0000771  6.0668000  2
   3661   3660   3709   3690     1  180.0000771  1.4644000  4
   3662   3663   3665   3666     1  180.0000771  0.8368000  1
   3662   3663   3665   3666     1  180.0000771  1.0460000  2
   3662   3663   3665   3666     1  0.0000000  0.7531200  3
   3662   3663   3665   3672     1  0.0000000  0.6508444  3
   3662   3680   3667   3671     1  0.0000000  1.6038667  3
   3662   3680   3667   3666     1  180.0000771  0.4184000  2
   3662   3680   3667   3666     1  0.0000000  1.6024720  3
   3663   3665   3666   3667     1  180.0000771  0.8368000  1
   3663   3665   3666   3667     1  180.0000771  1.0460000  2
   3663   3665   3666   3667     1  0.0000000  0.7531200  3
   3663   3665   3666   3685     1  0.0000000  0.6508444  3
   3663   3662   3673   3678     1  0.0000000  0.6508444  3
   3663   3662   3680   3667     1  180.0000771  0.4184000  2
   3663   3662   3680   3667     1  0.0000000  1.6024720  3
   3665   3666   3667   3671     1  0.0000000  0.6508444  3
   3665   3666   3667   3680     1  0.0000000  0.6508444  3
   3665   3663   3662   3673     1  180.0000771  0.8368000  1
   3665   3663   3662   3673     1  180.0000771  1.0460000  2
   3665   3663   3662   3673     1  0.0000000  0.7531200  3
   3665   3663   3662   3680     1  0.0000000  0.6508444  3
   3666   3665   3663   3683     1  0.0000000  0.6508444  3
   3667   3680   3662   3673     1  180.0000771  0.4184000  2
   3667   3680   3662   3673     1  0.0000000  1.6024720  3
   3667   3666   3665   3672     1  0.0000000  0.6508444  3
   3671   3667   3666   3685     1  0.0000000  0.6508444  3
   3672   3665   3666   3685     1  0.0000000  0.6508444  3
   3672   3665   3663   3683     1  0.0000000  4.9162000  2
   3672   3665   3663   3683     1  0.0000000  0.6024960  3
   3673   3662   3663   3683     1  0.0000000  0.6508444  3
   3678   3673   3662   3680     1  0.0000000  4.9162000  2
   3678   3673   3662   3680     1  0.0000000  0.6024960  3
   3680   3667   3666   3685     1  0.0000000  0.6508444  3
   3680   3662   3663   3683     1  0.0000000  4.9162000  2
   3680   3662   3663   3683     1  0.0000000  0.6024960  3
   3686   3687   3689   3690     1  180.0000771  0.8368000  1
   3686   3687   3689   3690     1  180.0000771  1.0460000  2
   3686   3687   3689   3690     1  0.0000000  0.7531200  3
   3686   3687   3689   3696     1  0.0000000  0.6508444  3
   3686   3704   3691   3695     1  0.0000000  1.6038667  3
   3686   3704   3691   3690     1  180.0000771  0.4184000  2
   3686   3704   3691   3690     1  0.0000000  1.6024720  3
   3687   3689   3690   3691     1  180.0000771  0.8368000  1
   3687   3689   3690   3691     1  180.0000771  1.0460000  2
   3687   3689   3690   3691     1  0.0000000  0.7531200  3
   3687   3689   3690   3709     1  0.0000000  0.6508444  3
   3687   3686   3697   3702     1  0.0000000  0.6508444  3
   3687   3686   3704   3691     1  180.0000771  0.4184000  2
   3687   3686   3704   3691     1  0.0000000  1.6024720  3
   3689   3690   3691   3695     1  0.0000000  0.6508444  3
   3689   3690   3691   3704     1  0.0000000  0.6508444  3
   3689   3687   3686   3697     1  180.0000771  0.8368000  1
   3689   3687   3686   3697     1  180.0000771  1.0460000  2
   3689   3687   3686   3697     1  0.0000000  0.7531200  3
   3689   3687   3686   3704     1  0.0000000  0.6508444  3
   3690   3689   3687   3707     1  0.0000000  0.6508444  3
   3691   3704   3686   3697     1  180.0000771  0.4184000  2
   3691   3704   3686   3697     1  0.0000000  1.6024720  3
   3691   3690   3689   3696     1  0.0000000  0.6508444  3
   3695   3691   3690   3709     1  0.0000000  0.6508444  3
   3696   3689   3690   3709     1  0.0000000  0.6508444  3
   3696   3689   3687   3707     1  0.0000000  4.9162000  2
   3696   3689   3687   3707     1  0.0000000  0.6024960  3
   3697   3686   3687   3707     1  0.0000000  0.6508444  3
   3702   3697   3686   3704     1  0.0000000  4.9162000  2
   3702   3697   3686   3704     1  0.0000000  0.6024960  3
   3704   3691   3690   3709     1  0.0000000  0.6508444  3
   3704   3686   3687   3707     1  0.0000000  4.9162000  2
   3704   3686   3687   3707     1  0.0000000  0.6024960  3
   3711   3713   3715   3719     1  0.0000000  0.6508444  3
   3713   3715   3719   3720     1  0.0000000  0.6508444  3
   3713   3715   3719   3721     1  0.0000000  0.6508444  3
   3715   3719   3720   3731     1  0.0000000  0.6508444  3
   3715   3719   3721   3723     1  0.0000000  0.6508444  3
   3719   3720   3731   3734     1  0.0000000  0.6508444  3
   3719   3721   3723   3727     1  0.0000000  0.6508444  3
   3720   3719   3721   3723     1  0.0000000  0.6508444  3
   3720   3731   3734   3735     1  180.0000771  0.0000000  2
   3720   3731   3734   3783     1  180.0000771  0.0000000  2
   3721   3719   3720   3731     1  0.0000000  0.6508444  3
   3721   3723   3727   3728     1  180.0000771  0.0000000  2
   3721   3723   3727   3759     1  180.0000771  0.0000000  2
   3723   3727   3759   3740     1  180.0000771  6.0668000  2
   3723   3727   3759   3740     1  180.0000771  1.4644000  4
   3727   3759   3740   3739     1  0.0000000  1.2552000  3
   3727   3759   3740   3741     1  0.0000000  1.2552000  3
   3728   3727   3759   3740     1  180.0000771  6.0668000  2
   3728   3727   3759   3740     1  180.0000771  1.4644000  4
   3731   3734   3783   3764     1  180.0000771  6.0668000  2
   3731   3734   3783   3764     1  180.0000771  1.4644000  4
   3734   3783   3764   3763     1  0.0000000  1.2552000  3
   3734   3783   3764   3765     1  0.0000000  1.2552000  3
   3735   3734   3783   3764     1  180.0000771  6.0668000  2
   3735   3734   3783   3764     1  180.0000771  1.4644000  4
   3736   3737   3739   3740     1  180.0000771  0.8368000  1
   3736   3737   3739   3740     1  180.0000771  1.0460000  2
   3736   3737   3739   3740     1  0.0000000  0.7531200  3
   3736   3737   3739   3746     1  0.0000000  0.6508444  3
   3736   3754   3741   3740     1  180.0000771  0.4184000  2
   3736   3754   3741   3740     1  0.0000000  1.6024720  3
   3736   3754   3741   3745     1  0.0000000  1.6038667  3
   3737   3736   3747   3752     1  0.0000000  0.6508444  3
   3737   3736   3754   3741     1  180.0000771  0.4184000  2
   3737   3736   3754   3741     1  0.0000000  1.6024720  3
   3737   3739   3740   3741     1  180.0000771  0.8368000  1
   3737   3739   3740   3741     1  180.0000771  1.0460000  2
   3737   3739   3740   3741     1  0.0000000  0.7531200  3
   3737   3739   3740   3759     1  0.0000000  0.6508444  3
   3739   3737   3736   3747     1  180.0000771  0.8368000  1
   3739   3737   3736   3747     1  180.0000771  1.0460000  2
   3739   3737   3736   3747     1  0.0000000  0.7531200  3
   3739   3737   3736   3754     1  0.0000000  0.6508444  3
   3739   3740   3741   3745     1  0.0000000  0.6508444  3
   3739   3740   3741   3754     1  0.0000000  0.6508444  3
   3740   3739   3737   3757     1  0.0000000  0.6508444  3
   3741   3740   3739   3746     1  0.0000000  0.6508444  3
   3741   3754   3736   3747     1  180.0000771  0.4184000  2
   3741   3754   3736   3747     1  0.0000000  1.6024720  3
   3745   3741   3740   3759     1  0.0000000  0.6508444  3
   3746   3739   3737   3757     1  0.0000000  4.9162000  2
   3746   3739   3737   3757     1  0.0000000  0.6024960  3
   3746   3739   3740   3759     1  0.0000000  0.6508444  3
   3747   3736   3737   3757     1  0.0000000  0.6508444  3
   3752   3747   3736   3754     1  0.0000000  4.9162000  2
   3752   3747   3736   3754     1  0.0000000  0.6024960  3
   3754   3736   3737   3757     1  0.0000000  4.9162000  2
   3754   3736   3737   3757     1  0.0000000  0.6024960  3
   3754   3741   3740   3759     1  0.0000000  0.6508444  3
   3760   3761   3763   3764     1  180.0000771  0.8368000  1
   3760   3761   3763   3764     1  180.0000771  1.0460000  2
   3760   3761   3763   3764     1  0.0000000  0.7531200  3
   3760   3761   3763   3770     1  0.0000000  0.6508444  3
   3760   3778   3765   3764     1  180.0000771  0.4184000  2
   3760   3778   3765   3764     1  0.0000000  1.6024720  3
   3760   3778   3765   3769     1  0.0000000  1.6038667  3
   3761   3760   3771   3776     1  0.0000000  0.6508444  3
   3761   3760   3778   3765     1  180.0000771  0.4184000  2
   3761   3760   3778   3765     1  0.0000000  1.6024720  3
   3761   3763   3764   3765     1  180.0000771  0.8368000  1
   3761   3763   3764   3765     1  180.0000771  1.0460000  2
   3761   3763   3764   3765     1  0.0000000  0.7531200  3
   3761   3763   3764   3783     1  0.0000000  0.6508444  3
   3763   3761   3760   3771     1  180.0000771  0.8368000  1
   3763   3761   3760   3771     1  180.0000771  1.0460000  2
   3763   3761   3760   3771     1  0.0000000  0.7531200  3
   3763   3761   3760   3778     1  0.0000000  0.6508444  3
   3763   3764   3765   3769     1  0.0000000  0.6508444  3
   3763   3764   3765   3778     1  0.0000000  0.6508444  3
   3764   3763   3761   3781     1  0.0000000  0.6508444  3
   3765   3764   3763   3770     1  0.0000000  0.6508444  3
   3765   3778   3760   3771     1  180.0000771  0.4184000  2
   3765   3778   3760   3771     1  0.0000000  1.6024720  3
   3769   3765   3764   3783     1  0.0000000  0.6508444  3
   3770   3763   3761   3781     1  0.0000000  4.9162000  2
   3770   3763   3761   3781     1  0.0000000  0.6024960  3
   3770   3763   3764   3783     1  0.0000000  0.6508444  3
   3771   3760   3761   3781     1  0.0000000  0.6508444  3
   3776   3771   3760   3778     1  0.0000000  4.9162000  2
   3776   3771   3760   3778     1  0.0000000  0.6024960  3
   3778   3760   3761   3781     1  0.0000000  4.9162000  2
   3778   3760   3761   3781     1  0.0000000  0.6024960  3
   3778   3765   3764   3783     1  0.0000000  0.6508444  3
   3785   3787   3789   3793     1  0.0000000  0.6508444  3
   3787   3789   3793   3794     1  0.0000000  0.6508444  3
   3787   3789   3793   3795     1  0.0000000  0.6508444  3
   3789   3793   3794   3805     1  0.0000000  0.6508444  3
   3789   3793   3795   3797     1  0.0000000  0.6508444  3
   3793   3794   3805   3808     1  0.0000000  0.6508444  3
   3793   3795   3797   3801     1  0.0000000  0.6508444  3
   3794   3805   3808   3809     1  180.0000771  0.0000000  2
   3794   3805   3808   3857     1  180.0000771  0.0000000  2
   3794   3793   3795   3797     1  0.0000000  0.6508444  3
   3795   3797   3801   3802     1  180.0000771  0.0000000  2
   3795   3797   3801   3833     1  180.0000771  0.0000000  2
   3795   3793   3794   3805     1  0.0000000  0.6508444  3
   3797   3801   3833   3814     1  180.0000771  6.0668000  2
   3797   3801   3833   3814     1  180.0000771  1.4644000  4
   3801   3833   3814   3815     1  0.0000000  1.2552000  3
   3801   3833   3814   3813     1  0.0000000  1.2552000  3
   3802   3801   3833   3814     1  180.0000771  6.0668000  2
   3802   3801   3833   3814     1  180.0000771  1.4644000  4
   3805   3808   3857   3838     1  180.0000771  6.0668000  2
   3805   3808   3857   3838     1  180.0000771  1.4644000  4
   3808   3857   3838   3839     1  0.0000000  1.2552000  3
   3808   3857   3838   3837     1  0.0000000  1.2552000  3
   3809   3808   3857   3838     1  180.0000771  6.0668000  2
   3809   3808   3857   3838     1  180.0000771  1.4644000  4
   3810   3811   3813   3814     1  180.0000771  0.8368000  1
   3810   3811   3813   3814     1  180.0000771  1.0460000  2
   3810   3811   3813   3814     1  0.0000000  0.7531200  3
   3810   3811   3813   3820     1  0.0000000  0.6508444  3
   3810   3828   3815   3819     1  0.0000000  1.6038667  3
   3810   3828   3815   3814     1  180.0000771  0.4184000  2
   3810   3828   3815   3814     1  0.0000000  1.6024720  3
   3811   3813   3814   3815     1  180.0000771  0.8368000  1
   3811   3813   3814   3815     1  180.0000771  1.0460000  2
   3811   3813   3814   3815     1  0.0000000  0.7531200  3
   3811   3813   3814   3833     1  0.0000000  0.6508444  3
   3811   3810   3821   3826     1  0.0000000  0.6508444  3
   3811   3810   3828   3815     1  180.0000771  0.4184000  2
   3811   3810   3828   3815     1  0.0000000  1.6024720  3
   3813   3814   3815   3819     1  0.0000000  0.6508444  3
   3813   3814   3815   3828     1  0.0000000  0.6508444  3
   3813   3811   3810   3821     1  180.0000771  0.8368000  1
   3813   3811   3810   3821     1  180.0000771  1.0460000  2
   3813   3811   3810   3821     1  0.0000000  0.7531200  3
   3813   3811   3810   3828     1  0.0000000  0.6508444  3
   3814   3813   3811   3831     1  0.0000000  0.6508444  3
   3815   3828   3810   3821     1  180.0000771  0.4184000  2
   3815   3828   3810   3821     1  0.0000000  1.6024720  3
   3815   3814   3813   3820     1  0.0000000  0.6508444  3
   3819   3815   3814   3833     1  0.0000000  0.6508444  3
   3820   3813   3814   3833     1  0.0000000  0.6508444  3
   3820   3813   3811   3831     1  0.0000000  4.9162000  2
   3820   3813   3811   3831     1  0.0000000  0.6024960  3
   3821   3810   3811   3831     1  0.0000000  0.6508444  3
   3826   3821   3810   3828     1  0.0000000  4.9162000  2
   3826   3821   3810   3828     1  0.0000000  0.6024960  3
   3828   3815   3814   3833     1  0.0000000  0.6508444  3
   3828   3810   3811   3831     1  0.0000000  4.9162000  2
   3828   3810   3811   3831     1  0.0000000  0.6024960  3
   3834   3835   3837   3838     1  180.0000771  0.8368000  1
   3834   3835   3837   3838     1  180.0000771  1.0460000  2
   3834   3835   3837   3838     1  0.0000000  0.7531200  3
   3834   3835   3837   3844     1  0.0000000  0.6508444  3
   3834   3852   3839   3843     1  0.0000000  1.6038667  3
   3834   3852   3839   3838     1  180.0000771  0.4184000  2
   3834   3852   3839   3838     1  0.0000000  1.6024720  3
   3835   3837   3838   3839     1  180.0000771  0.8368000  1
   3835   3837   3838   3839     1  180.0000771  1.0460000  2
   3835   3837   3838   3839     1  0.0000000  0.7531200  3
   3835   3837   3838   3857     1  0.0000000  0.6508444  3
   3835   3834   3845   3850     1  0.0000000  0.6508444  3
   3835   3834   3852   3839     1  180.0000771  0.4184000  2
   3835   3834   3852   3839     1  0.0000000  1.6024720  3
   3837   3838   3839   3843     1  0.0000000  0.6508444  3
   3837   3838   3839   3852     1  0.0000000  0.6508444  3
   3837   3835   3834   3845     1  180.0000771  0.8368000  1
   3837   3835   3834   3845     1  180.0000771  1.0460000  2
   3837   3835   3834   3845     1  0.0000000  0.7531200  3
   3837   3835   3834   3852     1  0.0000000  0.6508444  3
   3838   3837   3835   3855     1  0.0000000  0.6508444  3
   3839   3852   3834   3845     1  180.0000771  0.4184000  2
   3839   3852   3834   3845     1  0.0000000  1.6024720  3
   3839   3838   3837   3844     1  0.0000000  0.6508444  3
   3843   3839   3838   3857     1  0.0000000  0.6508444  3
   3844   3837   3838   3857     1  0.0000000  0.6508444  3
   3844   3837   3835   3855     1  0.0000000  4.9162000  2
   3844   3837   3835   3855     1  0.0000000  0.6024960  3
   3845   3834   3835   3855     1  0.0000000  0.6508444  3
   3850   3845   3834   3852     1  0.0000000  4.9162000  2
   3850   3845   3834   3852     1  0.0000000  0.6024960  3
   3852   3839   3838   3857     1  0.0000000  0.6508444  3
   3852   3834   3835   3855     1  0.0000000  4.9162000  2
   3852   3834   3835   3855     1  0.0000000  0.6024960  3
   3859   3861   3863   3867     1  0.0000000  0.6508444  3
   3861   3863   3867   3868     1  0.0000000  0.6508444  3
   3861   3863   3867   3869     1  0.0000000  0.6508444  3
   3863   3867   3868   3879     1  0.0000000  0.6508444  3
   3863   3867   3869   3871     1  0.0000000  0.6508444  3
   3867   3868   3879   3882     1  0.0000000  0.6508444  3
   3867   3869   3871   3875     1  0.0000000  0.6508444  3
   3868   3867   3869   3871     1  0.0000000  0.6508444  3
   3868   3879   3882   3883     1  180.0000771  0.0000000  2
   3868   3879   3882   3931     1  180.0000771  0.0000000  2
   3869   3867   3868   3879     1  0.0000000  0.6508444  3
   3869   3871   3875   3876     1  180.0000771  0.0000000  2
   3869   3871   3875   3907     1  180.0000771  0.0000000  2
   3871   3875   3907   3888     1  180.0000771  6.0668000  2
   3871   3875   3907   3888     1  180.0000771  1.4644000  4
   3875   3907   3888   3887     1  0.0000000  1.2552000  3
   3875   3907   3888   3889     1  0.0000000  1.2552000  3
   3876   3875   3907   3888     1  180.0000771  6.0668000  2
   3876   3875   3907   3888     1  180.0000771  1.4644000  4
   3879   3882   3931   3912     1  180.0000771  6.0668000  2
   3879   3882   3931   3912     1  180.0000771  1.4644000  4
   3882   3931   3912   3911     1  0.0000000  1.2552000  3
   3882   3931   3912   3913     1  0.0000000  1.2552000  3
   3883   3882   3931   3912     1  180.0000771  6.0668000  2
   3883   3882   3931   3912     1  180.0000771  1.4644000  4
   3884   3885   3887   3888     1  180.0000771  0.8368000  1
   3884   3885   3887   3888     1  180.0000771  1.0460000  2
   3884   3885   3887   3888     1  0.0000000  0.7531200  3
   3884   3885   3887   3894     1  0.0000000  0.6508444  3
   3884   3902   3889   3888     1  180.0000771  0.4184000  2
   3884   3902   3889   3888     1  0.0000000  1.6024720  3
   3884   3902   3889   3893     1  0.0000000  1.6038667  3
   3885   3884   3895   3900     1  0.0000000  0.6508444  3
   3885   3884   3902   3889     1  180.0000771  0.4184000  2
   3885   3884   3902   3889     1  0.0000000  1.6024720  3
   3885   3887   3888   3889     1  180.0000771  0.8368000  1
   3885   3887   3888   3889     1  180.0000771  1.0460000  2
   3885   3887   3888   3889     1  0.0000000  0.7531200  3
   3885   3887   3888   3907     1  0.0000000  0.6508444  3
   3887   3885   3884   3895     1  180.0000771  0.8368000  1
   3887   3885   3884   3895     1  180.0000771  1.0460000  2
   3887   3885   3884   3895     1  0.0000000  0.7531200  3
   3887   3885   3884   3902     1  0.0000000  0.6508444  3
   3887   3888   3889   3893     1  0.0000000  0.6508444  3
   3887   3888   3889   3902     1  0.0000000  0.6508444  3
   3888   3887   3885   3905     1  0.0000000  0.6508444  3
   3889   3888   3887   3894     1  0.0000000  0.6508444  3
   3889   3902   3884   3895     1  180.0000771  0.4184000  2
   3889   3902   3884   3895     1  0.0000000  1.6024720  3
   3893   3889   3888   3907     1  0.0000000  0.6508444  3
   3894   3887   3885   3905     1  0.0000000  4.9162000  2
   3894   3887   3885   3905     1  0.0000000  0.6024960  3
   3894   3887   3888   3907     1  0.0000000  0.6508444  3
   3895   3884   3885   3905     1  0.0000000  0.6508444  3
   3900   3895   3884   3902     1  0.0000000  4.9162000  2
   3900   3895   3884   3902     1  0.0000000  0.6024960  3
   3902   3884   3885   3905     1  0.0000000  4.9162000  2
   3902   3884   3885   3905     1  0.0000000  0.6024960  3
   3902   3889   3888   3907     1  0.0000000  0.6508444  3
   3908   3909   3911   3912     1  180.0000771  0.8368000  1
   3908   3909   3911   3912     1  180.0000771  1.0460000  2
   3908   3909   3911   3912     1  0.0000000  0.7531200  3
   3908   3909   3911   3918     1  0.0000000  0.6508444  3
   3908   3926   3913   3912     1  180.0000771  0.4184000  2
   3908   3926   3913   3912     1  0.0000000  1.6024720  3
   3908   3926   3913   3917     1  0.0000000  1.6038667  3
   3909   3908   3919   3924     1  0.0000000  0.6508444  3
   3909   3908   3926   3913     1  180.0000771  0.4184000  2
   3909   3908   3926   3913     1  0.0000000  1.6024720  3
   3909   3911   3912   3913     1  180.0000771  0.8368000  1
   3909   3911   3912   3913     1  180.0000771  1.0460000  2
   3909   3911   3912   3913     1  0.0000000  0.7531200  3
   3909   3911   3912   3931     1  0.0000000  0.6508444  3
   3911   3909   3908   3919     1  180.0000771  0.8368000  1
   3911   3909   3908   3919     1  180.0000771  1.0460000  2
   3911   3909   3908   3919     1  0.0000000  0.7531200  3
   3911   3909   3908   3926     1  0.0000000  0.6508444  3
   3911   3912   3913   3917     1  0.0000000  0.6508444  3
   3911   3912   3913   3926     1  0.0000000  0.6508444  3
   3912   3911   3909   3929     1  0.0000000  0.6508444  3
   3913   3912   3911   3918     1  0.0000000  0.6508444  3
   3913   3926   3908   3919     1  180.0000771  0.4184000  2
   3913   3926   3908   3919     1  0.0000000  1.6024720  3
   3917   3913   3912   3931     1  0.0000000  0.6508444  3
   3918   3911   3909   3929     1  0.0000000  4.9162000  2
   3918   3911   3909   3929     1  0.0000000  0.6024960  3
   3918   3911   3912   3931     1  0.0000000  0.6508444  3
   3919   3908   3909   3929     1  0.0000000  0.6508444  3
   3924   3919   3908   3926     1  0.0000000  4.9162000  2
   3924   3919   3908   3926     1  0.0000000  0.6024960  3
   3926   3908   3909   3929     1  0.0000000  4.9162000  2
   3926   3908   3909   3929     1  0.0000000  0.6024960  3
   3926   3913   3912   3931     1  0.0000000  0.6508444  3
   3933   3935   3937   3941     1  0.0000000  0.6508444  3
   3935   3937   3941   3942     1  0.0000000  0.6508444  3
   3935   3937   3941   3943     1  0.0000000  0.6508444  3
   3937   3941   3942   3953     1  0.0000000  0.6508444  3
   3937   3941   3943   3945     1  0.0000000  0.6508444  3
   3941   3942   3953   3956     1  0.0000000  0.6508444  3
   3941   3943   3945   3949     1  0.0000000  0.6508444  3
   3942   3953   3956   3957     1  180.0000771  0.0000000  2
   3942   3953   3956   4005     1  180.0000771  0.0000000  2
   3942   3941   3943   3945     1  0.0000000  0.6508444  3
   3943   3945   3949   3950     1  180.0000771  0.0000000  2
   3943   3945   3949   3981     1  180.0000771  0.0000000  2
   3943   3941   3942   3953     1  0.0000000  0.6508444  3
   3945   3949   3981   3962     1  180.0000771  6.0668000  2
   3945   3949   3981   3962     1  180.0000771  1.4644000  4
   3949   3981   3962   3963     1  0.0000000  1.2552000  3
   3949   3981   3962   3961     1  0.0000000  1.2552000  3
   3950   3949   3981   3962     1  180.0000771  6.0668000  2
   3950   3949   3981   3962     1  180.0000771  1.4644000  4
   3953   3956   4005   3986     1  180.0000771  6.0668000  2
   3953   3956   4005   3986     1  180.0000771  1.4644000  4
   3956   4005   3986   3987     1  0.0000000  1.2552000  3
   3956   4005   3986   3985     1  0.0000000  1.2552000  3
   3957   3956   4005   3986     1  180.0000771  6.0668000  2
   3957   3956   4005   3986     1  180.0000771  1.4644000  4
   3958   3959   3961   3962     1  180.0000771  0.8368000  1
   3958   3959   3961   3962     1  180.0000771  1.0460000  2
   3958   3959   3961   3962     1  0.0000000  0.7531200  3
   3958   3959   3961   3968     1  0.0000000  0.6508444  3
   3958   3976   3963   3967     1  0.0000000  1.6038667  3
   3958   3976   3963   3962     1  180.0000771  0.4184000  2
   3958   3976   3963   3962     1  0.0000000  1.6024720  3
   3959   3961   3962   3963     1  180.0000771  0.8368000  1
   3959   3961   3962   3963     1  180.0000771  1.0460000  2
   3959   3961   3962   3963     1  0.0000000  0.7531200  3
   3959   3961   3962   3981     1  0.0000000  0.6508444  3
   3959   3958   3969   3974     1  0.0000000  0.6508444  3
   3959   3958   3976   3963     1  180.0000771  0.4184000  2
   3959   3958   3976   3963     1  0.0000000  1.6024720  3
   3961   3962   3963   3967     1  0.0000000  0.6508444  3
   3961   3962   3963   3976     1  0.0000000  0.6508444  3
   3961   3959   3958   3969     1  180.0000771  0.8368000  1
   3961   3959   3958   3969     1  180.0000771  1.0460000  2
   3961   3959   3958   3969     1  0.0000000  0.7531200  3
   3961   3959   3958   3976     1  0.0000000  0.6508444  3
   3962   3961   3959   3979     1  0.0000000  0.6508444  3
   3963   3976   3958   3969     1  180.0000771  0.4184000  2
   3963   3976   3958   3969     1  0.0000000  1.6024720  3
   3963   3962   3961   3968     1  0.0000000  0.6508444  3
   3967   3963   3962   3981     1  0.0000000  0.6508444  3
   3968   3961   3962   3981     1  0.0000000  0.6508444  3
   3968   3961   3959   3979     1  0.0000000  4.9162000  2
   3968   3961   3959   3979     1  0.0000000  0.6024960  3
   3969   3958   3959   3979     1  0.0000000  0.6508444  3
   3974   3969   3958   3976     1  0.0000000  4.9162000  2
   3974   3969   3958   3976     1  0.0000000  0.6024960  3
   3976   3963   3962   3981     1  0.0000000  0.6508444  3
   3976   3958   3959   3979     1  0.0000000  4.9162000  2
   3976   3958   3959   3979     1  0.0000000  0.6024960  3
   3982   3983   3985   3986     1  180.0000771  0.8368000  1
   3982   3983   3985   3986     1  180.0000771  1.0460000  2
   3982   3983   3985   3986     1  0.0000000  0.7531200  3
   3982   3983   3985   3992     1  0.0000000  0.6508444  3
   3982   4000   3987   3991     1  0.0000000  1.6038667  3
   3982   4000   3987   3986     1  180.0000771  0.4184000  2
   3982   4000   3987   3986     1  0.0000000  1.6024720  3
   3983   3985   3986   3987     1  180.0000771  0.8368000  1
   3983   3985   3986   3987     1  180.0000771  1.0460000  2
   3983   3985   3986   3987     1  0.0000000  0.7531200  3
   3983   3985   3986   4005     1  0.0000000  0.6508444  3
   3983   3982   3993   3998     1  0.0000000  0.6508444  3
   3983   3982   4000   3987     1  180.0000771  0.4184000  2
   3983   3982   4000   3987     1  0.0000000  1.6024720  3
   3985   3986   3987   3991     1  0.0000000  0.6508444  3
   3985   3986   3987   4000     1  0.0000000  0.6508444  3
   3985   3983   3982   3993     1  180.0000771  0.8368000  1
   3985   3983   3982   3993     1  180.0000771  1.0460000  2
   3985   3983   3982   3993     1  0.0000000  0.7531200  3
   3985   3983   3982   4000     1  0.0000000  0.6508444  3
   3986   3985   3983   4003     1  0.0000000  0.6508444  3
   3987   4000   3982   3993     1  180.0000771  0.4184000  2
   3987   4000   3982   3993     1  0.0000000  1.6024720  3
   3987   3986   3985   3992     1  0.0000000  0.6508444  3
   3991   3987   3986   4005     1  0.0000000  0.6508444  3
   3992   3985   3986   4005     1  0.0000000  0.6508444  3
   3992   3985   3983   4003     1  0.0000000  4.9162000  2
   3992   3985   3983   4003     1  0.0000000  0.6024960  3
   3993   3982   3983   4003     1  0.0000000  0.6508444  3
   3998   3993   3982   4000     1  0.0000000  4.9162000  2
   3998   3993   3982   4000     1  0.0000000  0.6024960  3
   4000   3987   3986   4005     1  0.0000000  0.6508444  3
   4000   3982   3983   4003     1  0.0000000  4.9162000  2
   4000   3982   3983   4003     1  0.0000000  0.6024960  3
   4007   4009   4011   4015     1  0.0000000  0.6508444  3
   4009   4011   4015   4016     1  0.0000000  0.6508444  3
   4009   4011   4015   4017     1  0.0000000  0.6508444  3
   4011   4015   4016   4027     1  0.0000000  0.6508444  3
   4011   4015   4017   4019     1  0.0000000  0.6508444  3
   4015   4016   4027   4030     1  0.0000000  0.6508444  3
   4015   4017   4019   4023     1  0.0000000  0.6508444  3
   4016   4015   4017   4019     1  0.0000000  0.6508444  3
   4016   4027   4030   4031     1  180.0000771  0.0000000  2
   4016   4027   4030   4079     1  180.0000771  0.0000000  2
   4017   4015   4016   4027     1  0.0000000  0.6508444  3
   4017   4019   4023   4024     1  180.0000771  0.0000000  2
   4017   4019   4023   4055     1  180.0000771  0.0000000  2
   4019   4023   4055   4036     1  180.0000771  6.0668000  2
   4019   4023   4055   4036     1  180.0000771  1.4644000  4
   4023   4055   4036   4035     1  0.0000000  1.2552000  3
   4023   4055   4036   4037     1  0.0000000  1.2552000  3
   4024   4023   4055   4036     1  180.0000771  6.0668000  2
   4024   4023   4055   4036     1  180.0000771  1.4644000  4
   4027   4030   4079   4060     1  180.0000771  6.0668000  2
   4027   4030   4079   4060     1  180.0000771  1.4644000  4
   4030   4079   4060   4059     1  0.0000000  1.2552000  3
   4030   4079   4060   4061     1  0.0000000  1.2552000  3
   4031   4030   4079   4060     1  180.0000771  6.0668000  2
   4031   4030   4079   4060     1  180.0000771  1.4644000  4
   4032   4033   4035   4036     1  180.0000771  0.8368000  1
   4032   4033   4035   4036     1  180.0000771  1.0460000  2
   4032   4033   4035   4036     1  0.0000000  0.7531200  3
   4032   4033   4035   4042     1  0.0000000  0.6508444  3
   4032   4050   4037   4036     1  180.0000771  0.4184000  2
   4032   4050   4037   4036     1  0.0000000  1.6024720  3
   4032   4050   4037   4041     1  0.0000000  1.6038667  3
   4033   4032   4043   4048     1  0.0000000  0.6508444  3
   4033   4032   4050   4037     1  180.0000771  0.4184000  2
   4033   4032   4050   4037     1  0.0000000  1.6024720  3
   4033   4035   4036   4037     1  180.0000771  0.8368000  1
   4033   4035   4036   4037     1  180.0000771  1.0460000  2
   4033   4035   4036   4037     1  0.0000000  0.7531200  3
   4033   4035   4036   4055     1  0.0000000  0.6508444  3
   4035   4033   4032   4043     1  180.0000771  0.8368000  1
   4035   4033   4032   4043     1  180.0000771  1.0460000  2
   4035   4033   4032   4043     1  0.0000000  0.7531200  3
   4035   4033   4032   4050     1  0.0000000  0.6508444  3
   4035   4036   4037   4041     1  0.0000000  0.6508444  3
   4035   4036   4037   4050     1  0.0000000  0.6508444  3
   4036   4035   4033   4053     1  0.0000000  0.6508444  3
   4037   4036   4035   4042     1  0.0000000  0.6508444  3
   4037   4050   4032   4043     1  180.0000771  0.4184000  2
   4037   4050   4032   4043     1  0.0000000  1.6024720  3
   4041   4037   4036   4055     1  0.0000000  0.6508444  3
   4042   4035   4033   4053     1  0.0000000  4.9162000  2
   4042   4035   4033   4053     1  0.0000000  0.6024960  3
   4042   4035   4036   4055     1  0.0000000  0.6508444  3
   4043   4032   4033   4053     1  0.0000000  0.6508444  3
   4048   4043   4032   4050     1  0.0000000  4.9162000  2
   4048   4043   4032   4050     1  0.0000000  0.6024960  3
   4050   4032   4033   4053     1  0.0000000  4.9162000  2
   4050   4032   4033   4053     1  0.0000000  0.6024960  3
   4050   4037   4036   4055     1  0.0000000  0.6508444  3
   4056   4057   4059   4060     1  180.0000771  0.8368000  1
   4056   4057   4059   4060     1  180.0000771  1.0460000  2
   4056   4057   4059   4060     1  0.0000000  0.7531200  3
   4056   4057   4059   4066     1  0.0000000  0.6508444  3
   4056   4074   4061   4060     1  180.0000771  0.4184000  2
   4056   4074   4061   4060     1  0.0000000  1.6024720  3
   4056   4074   4061   4065     1  0.0000000  1.6038667  3
   4057   4056   4067   4072     1  0.0000000  0.6508444  3
   4057   4056   4074   4061     1  180.0000771  0.4184000  2
   4057   4056   4074   4061     1  0.0000000  1.6024720  3
   4057   4059   4060   4061     1  180.0000771  0.8368000  1
   4057   4059   4060   4061     1  180.0000771  1.0460000  2
   4057   4059   4060   4061     1  0.0000000  0.7531200  3
   4057   4059   4060   4079     1  0.0000000  0.6508444  3
   4059   4057   4056   4067     1  180.0000771  0.8368000  1
   4059   4057   4056   4067     1  180.0000771  1.0460000  2
   4059   4057   4056   4067     1  0.0000000  0.7531200  3
   4059   4057   4056   4074     1  0.0000000  0.6508444  3
   4059   4060   4061   4065     1  0.0000000  0.6508444  3
   4059   4060   4061   4074     1  0.0000000  0.6508444  3
   4060   4059   4057   4077     1  0.0000000  0.6508444  3
   4061   4060   4059   4066     1  0.0000000  0.6508444  3
   4061   4074   4056   4067     1  180.0000771  0.4184000  2
   4061   4074   4056   4067     1  0.0000000  1.6024720  3
   4065   4061   4060   4079     1  0.0000000  0.6508444  3
   4066   4059   4057   4077     1  0.0000000  4.9162000  2
   4066   4059   4057   4077     1  0.0000000  0.6024960  3
   4066   4059   4060   4079     1  0.0000000  0.6508444  3
   4067   4056   4057   4077     1  0.0000000  0.6508444  3
   4072   4067   4056   4074     1  0.0000000  4.9162000  2
   4072   4067   4056   4074     1  0.0000000  0.6024960  3
   4074   4056   4057   4077     1  0.0000000  4.9162000  2
   4074   4056   4057   4077     1  0.0000000  0.6024960  3
   4074   4061   4060   4079     1  0.0000000  0.6508444  3
   4081   4083   4085   4089     1  0.0000000  0.6508444  3
   4083   4085   4089   4090     1  0.0000000  0.6508444  3
   4083   4085   4089   4091     1  0.0000000  0.6508444  3
   4085   4089   4090   4101     1  0.0000000  0.6508444  3
   4085   4089   4091   4093     1  0.0000000  0.6508444  3
   4089   4090   4101   4104     1  0.0000000  0.6508444  3
   4089   4091   4093   4097     1  0.0000000  0.6508444  3
   4090   4101   4104   4105     1  180.0000771  0.0000000  2
   4090   4101   4104   4153     1  180.0000771  0.0000000  2
   4090   4089   4091   4093     1  0.0000000  0.6508444  3
   4091   4093   4097   4098     1  180.0000771  0.0000000  2
   4091   4093   4097   4129     1  180.0000771  0.0000000  2
   4091   4089   4090   4101     1  0.0000000  0.6508444  3
   4093   4097   4129   4110     1  180.0000771  6.0668000  2
   4093   4097   4129   4110     1  180.0000771  1.4644000  4
   4097   4129   4110   4111     1  0.0000000  1.2552000  3
   4097   4129   4110   4109     1  0.0000000  1.2552000  3
   4098   4097   4129   4110     1  180.0000771  6.0668000  2
   4098   4097   4129   4110     1  180.0000771  1.4644000  4
   4101   4104   4153   4134     1  180.0000771  6.0668000  2
   4101   4104   4153   4134     1  180.0000771  1.4644000  4
   4104   4153   4134   4135     1  0.0000000  1.2552000  3
   4104   4153   4134   4133     1  0.0000000  1.2552000  3
   4105   4104   4153   4134     1  180.0000771  6.0668000  2
   4105   4104   4153   4134     1  180.0000771  1.4644000  4
   4106   4107   4109   4110     1  180.0000771  0.8368000  1
   4106   4107   4109   4110     1  180.0000771  1.0460000  2
   4106   4107   4109   4110     1  0.0000000  0.7531200  3
   4106   4107   4109   4116     1  0.0000000  0.6508444  3
   4106   4124   4111   4115     1  0.0000000  1.6038667  3
   4106   4124   4111   4110     1  180.0000771  0.4184000  2
   4106   4124   4111   4110     1  0.0000000  1.6024720  3
   4107   4109   4110   4111     1  180.0000771  0.8368000  1
   4107   4109   4110   4111     1  180.0000771  1.0460000  2
   4107   4109   4110   4111     1  0.0000000  0.7531200  3
   4107   4109   4110   4129     1  0.0000000  0.6508444  3
   4107   4106   4117   4122     1  0.0000000  0.6508444  3
   4107   4106   4124   4111     1  180.0000771  0.4184000  2
   4107   4106   4124   4111     1  0.0000000  1.6024720  3
   4109   4110   4111   4115     1  0.0000000  0.6508444  3
   4109   4110   4111   4124     1  0.0000000  0.6508444  3
   4109   4107   4106   4117     1  180.0000771  0.8368000  1
   4109   4107   4106   4117     1  180.0000771  1.0460000  2
   4109   4107   4106   4117     1  0.0000000  0.7531200  3
   4109   4107   4106   4124     1  0.0000000  0.6508444  3
   4110   4109   4107   4127     1  0.0000000  0.6508444  3
   4111   4124   4106   4117     1  180.0000771  0.4184000  2
   4111   4124   4106   4117     1  0.0000000  1.6024720  3
   4111   4110   4109   4116     1  0.0000000  0.6508444  3
   4115   4111   4110   4129     1  0.0000000  0.6508444  3
   4116   4109   4110   4129     1  0.0000000  0.6508444  3
   4116   4109   4107   4127     1  0.0000000  4.9162000  2
   4116   4109   4107   4127     1  0.0000000  0.6024960  3
   4117   4106   4107   4127     1  0.0000000  0.6508444  3
   4122   4117   4106   4124     1  0.0000000  4.9162000  2
   4122   4117   4106   4124     1  0.0000000  0.6024960  3
   4124   4111   4110   4129     1  0.0000000  0.6508444  3
   4124   4106   4107   4127     1  0.0000000  4.9162000  2
   4124   4106   4107   4127     1  0.0000000  0.6024960  3
   4130   4131   4133   4134     1  180.0000771  0.8368000  1
   4130   4131   4133   4134     1  180.0000771  1.0460000  2
   4130   4131   4133   4134     1  0.0000000  0.7531200  3
   4130   4131   4133   4140     1  0.0000000  0.6508444  3
   4130   4148   4135   4139     1  0.0000000  1.6038667  3
   4130   4148   4135   4134     1  180.0000771  0.4184000  2
   4130   4148   4135   4134     1  0.0000000  1.6024720  3
   4131   4133   4134   4135     1  180.0000771  0.8368000  1
   4131   4133   4134   4135     1  180.0000771  1.0460000  2
   4131   4133   4134   4135     1  0.0000000  0.7531200  3
   4131   4133   4134   4153     1  0.0000000  0.6508444  3
   4131   4130   4141   4146     1  0.0000000  0.6508444  3
   4131   4130   4148   4135     1  180.0000771  0.4184000  2
   4131   4130   4148   4135     1  0.0000000  1.6024720  3
   4133   4134   4135   4139     1  0.0000000  0.6508444  3
   4133   4134   4135   4148     1  0.0000000  0.6508444  3
   4133   4131   4130   4141     1  180.0000771  0.8368000  1
   4133   4131   4130   4141     1  180.0000771  1.0460000  2
   4133   4131   4130   4141     1  0.0000000  0.7531200  3
   4133   4131   4130   4148     1  0.0000000  0.6508444  3
   4134   4133   4131   4151     1  0.0000000  0.6508444  3
   4135   4148   4130   4141     1  180.0000771  0.4184000  2
   4135   4148   4130   4141     1  0.0000000  1.6024720  3
   4135   4134   4133   4140     1  0.0000000  0.6508444  3
   4139   4135   4134   4153     1  0.0000000  0.6508444  3
   4140   4133   4134   4153     1  0.0000000  0.6508444  3
   4140   4133   4131   4151     1  0.0000000  4.9162000  2
   4140   4133   4131   4151     1  0.0000000  0.6024960  3
   4141   4130   4131   4151     1  0.0000000  0.6508444  3
   4146   4141   4130   4148     1  0.0000000  4.9162000  2
   4146   4141   4130   4148     1  0.0000000  0.6024960  3
   4148   4135   4134   4153     1  0.0000000  0.6508444  3
   4148   4130   4131   4151     1  0.0000000  4.9162000  2
   4148   4130   4131   4151     1  0.0000000  0.6024960  3
   4155   4157   4159   4163     1  0.0000000  0.6508444  3
   4157   4159   4163   4164     1  0.0000000  0.6508444  3
   4157   4159   4163   4165     1  0.0000000  0.6508444  3
   4159   4163   4164   4175     1  0.0000000  0.6508444  3
   4159   4163   4165   4167     1  0.0000000  0.6508444  3
   4163   4164   4175   4178     1  0.0000000  0.6508444  3
   4163   4165   4167   4171     1  0.0000000  0.6508444  3
   4164   4163   4165   4167     1  0.0000000  0.6508444  3
   4164   4175   4178   4179     1  180.0000771  0.0000000  2
   4164   4175   4178   4227     1  180.0000771  0.0000000  2
   4165   4163   4164   4175     1  0.0000000  0.6508444  3
   4165   4167   4171   4172     1  180.0000771  0.0000000  2
   4165   4167   4171   4203     1  180.0000771  0.0000000  2
   4167   4171   4203   4184     1  180.0000771  6.0668000  2
   4167   4171   4203   4184     1  180.0000771  1.4644000  4
   4171   4203   4184   4183     1  0.0000000  1.2552000  3
   4171   4203   4184   4185     1  0.0000000  1.2552000  3
   4172   4171   4203   4184     1  180.0000771  6.0668000  2
   4172   4171   4203   4184     1  180.0000771  1.4644000  4
   4175   4178   4227   4208     1  180.0000771  6.0668000  2
   4175   4178   4227   4208     1  180.0000771  1.4644000  4
   4178   4227   4208   4207     1  0.0000000  1.2552000  3
   4178   4227   4208   4209     1  0.0000000  1.2552000  3
   4179   4178   4227   4208     1  180.0000771  6.0668000  2
   4179   4178   4227   4208     1  180.0000771  1.4644000  4
   4180   4181   4183   4184     1  180.0000771  0.8368000  1
   4180   4181   4183   4184     1  180.0000771  1.0460000  2
   4180   4181   4183   4184     1  0.0000000  0.7531200  3
   4180   4181   4183   4190     1  0.0000000  0.6508444  3
   4180   4198   4185   4184     1  180.0000771  0.4184000  2
   4180   4198   4185   4184     1  0.0000000  1.6024720  3
   4180   4198   4185   4189     1  0.0000000  1.6038667  3
   4181   4180   4191   4196     1  0.0000000  0.6508444  3
   4181   4180   4198   4185     1  180.0000771  0.4184000  2
   4181   4180   4198   4185     1  0.0000000  1.6024720  3
   4181   4183   4184   4185     1  180.0000771  0.8368000  1
   4181   4183   4184   4185     1  180.0000771  1.0460000  2
   4181   4183   4184   4185     1  0.0000000  0.7531200  3
   4181   4183   4184   4203     1  0.0000000  0.6508444  3
   4183   4181   4180   4191     1  180.0000771  0.8368000  1
   4183   4181   4180   4191     1  180.0000771  1.0460000  2
   4183   4181   4180   4191     1  0.0000000  0.7531200  3
   4183   4181   4180   4198     1  0.0000000  0.6508444  3
   4183   4184   4185   4189     1  0.0000000  0.6508444  3
   4183   4184   4185   4198     1  0.0000000  0.6508444  3
   4184   4183   4181   4201     1  0.0000000  0.6508444  3
   4185   4184   4183   4190     1  0.0000000  0.6508444  3
   4185   4198   4180   4191     1  180.0000771  0.4184000  2
   4185   4198   4180   4191     1  0.0000000  1.6024720  3
   4189   4185   4184   4203     1  0.0000000  0.6508444  3
   4190   4183   4181   4201     1  0.0000000  4.9162000  2
   4190   4183   4181   4201     1  0.0000000  0.6024960  3
   4190   4183   4184   4203     1  0.0000000  0.6508444  3
   4191   4180   4181   4201     1  0.0000000  0.6508444  3
   4196   4191   4180   4198     1  0.0000000  4.9162000  2
   4196   4191   4180   4198     1  0.0000000  0.6024960  3
   4198   4180   4181   4201     1  0.0000000  4.9162000  2
   4198   4180   4181   4201     1  0.0000000  0.6024960  3
   4198   4185   4184   4203     1  0.0000000  0.6508444  3
   4204   4205   4207   4208     1  180.0000771  0.8368000  1
   4204   4205   4207   4208     1  180.0000771  1.0460000  2
   4204   4205   4207   4208     1  0.0000000  0.7531200  3
   4204   4205   4207   4214     1  0.0000000  0.6508444  3
   4204   4222   4209   4208     1  180.0000771  0.4184000  2
   4204   4222   4209   4208     1  0.0000000  1.6024720  3
   4204   4222   4209   4213     1  0.0000000  1.6038667  3
   4205   4204   4215   4220     1  0.0000000  0.6508444  3
   4205   4204   4222   4209     1  180.0000771  0.4184000  2
   4205   4204   4222   4209     1  0.0000000  1.6024720  3
   4205   4207   4208   4209     1  180.0000771  0.8368000  1
   4205   4207   4208   4209     1  180.0000771  1.0460000  2
   4205   4207   4208   4209     1  0.0000000  0.7531200  3
   4205   4207   4208   4227     1  0.0000000  0.6508444  3
   4207   4205   4204   4215     1  180.0000771  0.8368000  1
   4207   4205   4204   4215     1  180.0000771  1.0460000  2
   4207   4205   4204   4215     1  0.0000000  0.7531200  3
   4207   4205   4204   4222     1  0.0000000  0.6508444  3
   4207   4208   4209   4213     1  0.0000000  0.6508444  3
   4207   4208   4209   4222     1  0.0000000  0.6508444  3
   4208   4207   4205   4225     1  0.0000000  0.6508444  3
   4209   4208   4207   4214     1  0.0000000  0.6508444  3
   4209   4222   4204   4215     1  180.0000771  0.4184000  2
   4209   4222   4204   4215     1  0.0000000  1.6024720  3
   4213   4209   4208   4227     1  0.0000000  0.6508444  3
   4214   4207   4205   4225     1  0.0000000  4.9162000  2
   4214   4207   4205   4225     1  0.0000000  0.6024960  3
   4214   4207   4208   4227     1  0.0000000  0.6508444  3
   4215   4204   4205   4225     1  0.0000000  0.6508444  3
   4220   4215   4204   4222     1  0.0000000  4.9162000  2
   4220   4215   4204   4222     1  0.0000000  0.6024960  3
   4222   4204   4205   4225     1  0.0000000  4.9162000  2
   4222   4204   4205   4225     1  0.0000000  0.6024960  3
   4222   4209   4208   4227     1  0.0000000  0.6508444  3
   4229   4231   4233   4237     1  0.0000000  0.6508444  3
   4231   4233   4237   4238     1  0.0000000  0.6508444  3
   4231   4233   4237   4239     1  0.0000000  0.6508444  3
   4233   4237   4238   4249     1  0.0000000  0.6508444  3
   4233   4237   4239   4241     1  0.0000000  0.6508444  3
   4237   4238   4249   4252     1  0.0000000  0.6508444  3
   4237   4239   4241   4245     1  0.0000000  0.6508444  3
   4238   4249   4252   4253     1  180.0000771  0.0000000  2
   4238   4249   4252   4301     1  180.0000771  0.0000000  2
   4238   4237   4239   4241     1  0.0000000  0.6508444  3
   4239   4241   4245   4246     1  180.0000771  0.0000000  2
   4239   4241   4245   4277     1  180.0000771  0.0000000  2
   4239   4237   4238   4249     1  0.0000000  0.6508444  3
   4241   4245   4277   4258     1  180.0000771  6.0668000  2
   4241   4245   4277   4258     1  180.0000771  1.4644000  4
   4245   4277   4258   4259     1  0.0000000  1.2552000  3
   4245   4277   4258   4257     1  0.0000000  1.2552000  3
   4246   4245   4277   4258     1  180.0000771  6.0668000  2
   4246   4245   4277   4258     1  180.0000771  1.4644000  4
   4249   4252   4301   4282     1  180.0000771  6.0668000  2
   4249   4252   4301   4282     1  180.0000771  1.4644000  4
   4252   4301   4282   4283     1  0.0000000  1.2552000  3
   4252   4301   4282   4281     1  0.0000000  1.2552000  3
   4253   4252   4301   4282     1  180.0000771  6.0668000  2
   4253   4252   4301   4282     1  180.0000771  1.4644000  4
   4254   4255   4257   4258     1  180.0000771  0.8368000  1
   4254   4255   4257   4258     1  180.0000771  1.0460000  2
   4254   4255   4257   4258     1  0.0000000  0.7531200  3
   4254   4255   4257   4264     1  0.0000000  0.6508444  3
   4254   4272   4259   4263     1  0.0000000  1.6038667  3
   4254   4272   4259   4258     1  180.0000771  0.4184000  2
   4254   4272   4259   4258     1  0.0000000  1.6024720  3
   4255   4257   4258   4259     1  180.0000771  0.8368000  1
   4255   4257   4258   4259     1  180.0000771  1.0460000  2
   4255   4257   4258   4259     1  0.0000000  0.7531200  3
   4255   4257   4258   4277     1  0.0000000  0.6508444  3
   4255   4254   4265   4270     1  0.0000000  0.6508444  3
   4255   4254   4272   4259     1  180.0000771  0.4184000  2
   4255   4254   4272   4259     1  0.0000000  1.6024720  3
   4257   4258   4259   4263     1  0.0000000  0.6508444  3
   4257   4258   4259   4272     1  0.0000000  0.6508444  3
   4257   4255   4254   4265     1  180.0000771  0.8368000  1
   4257   4255   4254   4265     1  180.0000771  1.0460000  2
   4257   4255   4254   4265     1  0.0000000  0.7531200  3
   4257   4255   4254   4272     1  0.0000000  0.6508444  3
   4258   4257   4255   4275     1  0.0000000  0.6508444  3
   4259   4272   4254   4265     1  180.0000771  0.4184000  2
   4259   4272   4254   4265     1  0.0000000  1.6024720  3
   4259   4258   4257   4264     1  0.0000000  0.6508444  3
   4263   4259   4258   4277     1  0.0000000  0.6508444  3
   4264   4257   4258   4277     1  0.0000000  0.6508444  3
   4264   4257   4255   4275     1  0.0000000  4.9162000  2
   4264   4257   4255   4275     1  0.0000000  0.6024960  3
   4265   4254   4255   4275     1  0.0000000  0.6508444  3
   4270   4265   4254   4272     1  0.0000000  4.9162000  2
   4270   4265   4254   4272     1  0.0000000  0.6024960  3
   4272   4259   4258   4277     1  0.0000000  0.6508444  3
   4272   4254   4255   4275     1  0.0000000  4.9162000  2
   4272   4254   4255   4275     1  0.0000000  0.6024960  3
   4278   4279   4281   4282     1  180.0000771  0.8368000  1
   4278   4279   4281   4282     1  180.0000771  1.0460000  2
   4278   4279   4281   4282     1  0.0000000  0.7531200  3
   4278   4279   4281   4288     1  0.0000000  0.6508444  3
   4278   4296   4283   4287     1  0.0000000  1.6038667  3
   4278   4296   4283   4282     1  180.0000771  0.4184000  2
   4278   4296   4283   4282     1  0.0000000  1.6024720  3
   4279   4281   4282   4283     1  180.0000771  0.8368000  1
   4279   4281   4282   4283     1  180.0000771  1.0460000  2
   4279   4281   4282   4283     1  0.0000000  0.7531200  3
   4279   4281   4282   4301     1  0.0000000  0.6508444  3
   4279   4278   4289   4294     1  0.0000000  0.6508444  3
   4279   4278   4296   4283     1  180.0000771  0.4184000  2
   4279   4278   4296   4283     1  0.0000000  1.6024720  3
   4281   4282   4283   4287     1  0.0000000  0.6508444  3
   4281   4282   4283   4296     1  0.0000000  0.6508444  3
   4281   4279   4278   4289     1  180.0000771  0.8368000  1
   4281   4279   4278   4289     1  180.0000771  1.0460000  2
   4281   4279   4278   4289     1  0.0000000  0.7531200  3
   4281   4279   4278   4296     1  0.0000000  0.6508444  3
   4282   4281   4279   4299     1  0.0000000  0.6508444  3
   4283   4296   4278   4289     1  180.0000771  0.4184000  2
   4283   4296   4278   4289     1  0.0000000  1.6024720  3
   4283   4282   4281   4288     1  0.0000000  0.6508444  3
   4287   4283   4282   4301     1  0.0000000  0.6508444  3
   4288   4281   4282   4301     1  0.0000000  0.6508444  3
   4288   4281   4279   4299     1  0.0000000  4.9162000  2
   4288   4281   4279   4299     1  0.0000000  0.6024960  3
   4289   4278   4279   4299     1  0.0000000  0.6508444  3
   4294   4289   4278   4296     1  0.0000000  4.9162000  2
   4294   4289   4278   4296     1  0.0000000  0.6024960  3
   4296   4283   4282   4301     1  0.0000000  0.6508444  3
   4296   4278   4279   4299     1  0.0000000  4.9162000  2
   4296   4278   4279   4299     1  0.0000000  0.6024960  3
   4303   4305   4307   4311     1  0.0000000  0.6508444  3
   4305   4307   4311   4312     1  0.0000000  0.6508444  3
   4305   4307   4311   4313     1  0.0000000  0.6508444  3
   4307   4311   4312   4323     1  0.0000000  0.6508444  3
   4307   4311   4313   4315     1  0.0000000  0.6508444  3
   4311   4312   4323   4326     1  0.0000000  0.6508444  3
   4311   4313   4315   4319     1  0.0000000  0.6508444  3
   4312   4311   4313   4315     1  0.0000000  0.6508444  3
   4312   4323   4326   4327     1  180.0000771  0.0000000  2
   4312   4323   4326   4375     1  180.0000771  0.0000000  2
   4313   4311   4312   4323     1  0.0000000  0.6508444  3
   4313   4315   4319   4320     1  180.0000771  0.0000000  2
   4313   4315   4319   4351     1  180.0000771  0.0000000  2
   4315   4319   4351   4332     1  180.0000771  6.0668000  2
   4315   4319   4351   4332     1  180.0000771  1.4644000  4
   4319   4351   4332   4331     1  0.0000000  1.2552000  3
   4319   4351   4332   4333     1  0.0000000  1.2552000  3
   4320   4319   4351   4332     1  180.0000771  6.0668000  2
   4320   4319   4351   4332     1  180.0000771  1.4644000  4
   4323   4326   4375   4356     1  180.0000771  6.0668000  2
   4323   4326   4375   4356     1  180.0000771  1.4644000  4
   4326   4375   4356   4355     1  0.0000000  1.2552000  3
   4326   4375   4356   4357     1  0.0000000  1.2552000  3
   4327   4326   4375   4356     1  180.0000771  6.0668000  2
   4327   4326   4375   4356     1  180.0000771  1.4644000  4
   4328   4329   4331   4332     1  180.0000771  0.8368000  1
   4328   4329   4331   4332     1  180.0000771  1.0460000  2
   4328   4329   4331   4332     1  0.0000000  0.7531200  3
   4328   4329   4331   4338     1  0.0000000  0.6508444  3
   4328   4346   4333   4332     1  180.0000771  0.4184000  2
   4328   4346   4333   4332     1  0.0000000  1.6024720  3
   4328   4346   4333   4337     1  0.0000000  1.6038667  3
   4329   4328   4339   4344     1  0.0000000  0.6508444  3
   4329   4328   4346   4333     1  180.0000771  0.4184000  2
   4329   4328   4346   4333     1  0.0000000  1.6024720  3
   4329   4331   4332   4333     1  180.0000771  0.8368000  1
   4329   4331   4332   4333     1  180.0000771  1.0460000  2
   4329   4331   4332   4333     1  0.0000000  0.7531200  3
   4329   4331   4332   4351     1  0.0000000  0.6508444  3
   4331   4329   4328   4339     1  180.0000771  0.8368000  1
   4331   4329   4328   4339     1  180.0000771  1.0460000  2
   4331   4329   4328   4339     1  0.0000000  0.7531200  3
   4331   4329   4328   4346     1  0.0000000  0.6508444  3
   4331   4332   4333   4337     1  0.0000000  0.6508444  3
   4331   4332   4333   4346     1  0.0000000  0.6508444  3
   4332   4331   4329   4349     1  0.0000000  0.6508444  3
   4333   4332   4331   4338     1  0.0000000  0.6508444  3
   4333   4346   4328   4339     1  180.0000771  0.4184000  2
   4333   4346   4328   4339     1  0.0000000  1.6024720  3
   4337   4333   4332   4351     1  0.0000000  0.6508444  3
   4338   4331   4329   4349     1  0.0000000  4.9162000  2
   4338   4331   4329   4349     1  0.0000000  0.6024960  3
   4338   4331   4332   4351     1  0.0000000  0.6508444  3
   4339   4328   4329   4349     1  0.0000000  0.6508444  3
   4344   4339   4328   4346     1  0.0000000  4.9162000  2
   4344   4339   4328   4346     1  0.0000000  0.6024960  3
   4346   4328   4329   4349     1  0.0000000  4.9162000  2
   4346   4328   4329   4349     1  0.0000000  0.6024960  3
   4346   4333   4332   4351     1  0.0000000  0.6508444  3
   4352   4353   4355   4356     1  180.0000771  0.8368000  1
   4352   4353   4355   4356     1  180.0000771  1.0460000  2
   4352   4353   4355   4356     1  0.0000000  0.7531200  3
   4352   4353   4355   4362     1  0.0000000  0.6508444  3
   4352   4370   4357   4356     1  180.0000771  0.4184000  2
   4352   4370   4357   4356     1  0.0000000  1.6024720  3
   4352   4370   4357   4361     1  0.0000000  1.6038667  3
   4353   4352   4363   4368     1  0.0000000  0.6508444  3
   4353   4352   4370   4357     1  180.0000771  0.4184000  2
   4353   4352   4370   4357     1  0.0000000  1.6024720  3
   4353   4355   4356   4357     1  180.0000771  0.8368000  1
   4353   4355   4356   4357     1  180.0000771  1.0460000  2
   4353   4355   4356   4357     1  0.0000000  0.7531200  3
   4353   4355   4356   4375     1  0.0000000  0.6508444  3
   4355   4353   4352   4363     1  180.0000771  0.8368000  1
   4355   4353   4352   4363     1  180.0000771  1.0460000  2
   4355   4353   4352   4363     1  0.0000000  0.7531200  3
   4355   4353   4352   4370     1  0.0000000  0.6508444  3
   4355   4356   4357   4361     1  0.0000000  0.6508444  3
   4355   4356   4357   4370     1  0.0000000  0.6508444  3
   4356   4355   4353   4373     1  0.0000000  0.6508444  3
   4357   4356   4355   4362     1  0.0000000  0.6508444  3
   4357   4370   4352   4363     1  180.0000771  0.4184000  2
   4357   4370   4352   4363     1  0.0000000  1.6024720  3
   4361   4357   4356   4375     1  0.0000000  0.6508444  3
   4362   4355   4353   4373     1  0.0000000  4.9162000  2
   4362   4355   4353   4373     1  0.0000000  0.6024960  3
   4362   4355   4356   4375     1  0.0000000  0.6508444  3
   4363   4352   4353   4373     1  0.0000000  0.6508444  3
   4368   4363   4352   4370     1  0.0000000  4.9162000  2
   4368   4363   4352   4370     1  0.0000000  0.6024960  3
   4370   4352   4353   4373     1  0.0000000  4.9162000  2
   4370   4352   4353   4373     1  0.0000000  0.6024960  3
   4370   4357   4356   4375     1  0.0000000  0.6508444  3
   4377   4379   4381   4385     1  0.0000000  0.6508444  3
   4379   4381   4385   4386     1  0.0000000  0.6508444  3
   4379   4381   4385   4387     1  0.0000000  0.6508444  3
   4381   4385   4386   4397     1  0.0000000  0.6508444  3
   4381   4385   4387   4389     1  0.0000000  0.6508444  3
   4385   4386   4397   4400     1  0.0000000  0.6508444  3
   4385   4387   4389   4393     1  0.0000000  0.6508444  3
   4386   4397   4400   4401     1  180.0000771  0.0000000  2
   4386   4397   4400   4449     1  180.0000771  0.0000000  2
   4386   4385   4387   4389     1  0.0000000  0.6508444  3
   4387   4389   4393   4394     1  180.0000771  0.0000000  2
   4387   4389   4393   4425     1  180.0000771  0.0000000  2
   4387   4385   4386   4397     1  0.0000000  0.6508444  3
   4389   4393   4425   4406     1  180.0000771  6.0668000  2
   4389   4393   4425   4406     1  180.0000771  1.4644000  4
   4393   4425   4406   4407     1  0.0000000  1.2552000  3
   4393   4425   4406   4405     1  0.0000000  1.2552000  3
   4394   4393   4425   4406     1  180.0000771  6.0668000  2
   4394   4393   4425   4406     1  180.0000771  1.4644000  4
   4397   4400   4449   4430     1  180.0000771  6.0668000  2
   4397   4400   4449   4430     1  180.0000771  1.4644000  4
   4400   4449   4430   4431     1  0.0000000  1.2552000  3
   4400   4449   4430   4429     1  0.0000000  1.2552000  3
   4401   4400   4449   4430     1  180.0000771  6.0668000  2
   4401   4400   4449   4430     1  180.0000771  1.4644000  4
   4402   4403   4405   4406     1  180.0000771  0.8368000  1
   4402   4403   4405   4406     1  180.0000771  1.0460000  2
   4402   4403   4405   4406     1  0.0000000  0.7531200  3
   4402   4403   4405   4412     1  0.0000000  0.6508444  3
   4402   4420   4407   4411     1  0.0000000  1.6038667  3
   4402   4420   4407   4406     1  180.0000771  0.4184000  2
   4402   4420   4407   4406     1  0.0000000  1.6024720  3
   4403   4405   4406   4407     1  180.0000771  0.8368000  1
   4403   4405   4406   4407     1  180.0000771  1.0460000  2
   4403   4405   4406   4407     1  0.0000000  0.7531200  3
   4403   4405   4406   4425     1  0.0000000  0.6508444  3
   4403   4402   4413   4418     1  0.0000000  0.6508444  3
   4403   4402   4420   4407     1  180.0000771  0.4184000  2
   4403   4402   4420   4407     1  0.0000000  1.6024720  3
   4405   4406   4407   4411     1  0.0000000  0.6508444  3
   4405   4406   4407   4420     1  0.0000000  0.6508444  3
   4405   4403   4402   4413     1  180.0000771  0.8368000  1
   4405   4403   4402   4413     1  180.0000771  1.0460000  2
   4405   4403   4402   4413     1  0.0000000  0.7531200  3
   4405   4403   4402   4420     1  0.0000000  0.6508444  3
   4406   4405   4403   4423     1  0.0000000  0.6508444  3
   4407   4420   4402   4413     1  180.0000771  0.4184000  2
   4407   4420   4402   4413     1  0.0000000  1.6024720  3
   4407   4406   4405   4412     1  0.0000000  0.6508444  3
   4411   4407   4406   4425     1  0.0000000  0.6508444  3
   4412   4405   4406   4425     1  0.0000000  0.6508444  3
   4412   4405   4403   4423     1  0.0000000  4.9162000  2
   4412   4405   4403   4423     1  0.0000000  0.6024960  3
   4413   4402   4403   4423     1  0.0000000  0.6508444  3
   4418   4413   4402   4420     1  0.0000000  4.9162000  2
   4418   4413   4402   4420     1  0.0000000  0.6024960  3
   4420   4407   4406   4425     1  0.0000000  0.6508444  3
   4420   4402   4403   4423     1  0.0000000  4.9162000  2
   4420   4402   4403   4423     1  0.0000000  0.6024960  3
   4426   4427   4429   4430     1  180.0000771  0.8368000  1
   4426   4427   4429   4430     1  180.0000771  1.0460000  2
   4426   4427   4429   4430     1  0.0000000  0.7531200  3
   4426   4427   4429   4436     1  0.0000000  0.6508444  3
   4426   4444   4431   4435     1  0.0000000  1.6038667  3
   4426   4444   4431   4430     1  180.0000771  0.4184000  2
   4426   4444   4431   4430     1  0.0000000  1.6024720  3
   4427   4429   4430   4431     1  180.0000771  0.8368000  1
   4427   4429   4430   4431     1  180.0000771  1.0460000  2
   4427   4429   4430   4431     1  0.0000000  0.7531200  3
   4427   4429   4430   4449     1  0.0000000  0.6508444  3
   4427   4426   4437   4442     1  0.0000000  0.6508444  3
   4427   4426   4444   4431     1  180.0000771  0.4184000  2
   4427   4426   4444   4431     1  0.0000000  1.6024720  3
   4429   4430   4431   4435     1  0.0000000  0.6508444  3
   4429   4430   4431   4444     1  0.0000000  0.6508444  3
   4429   4427   4426   4437     1  180.0000771  0.8368000  1
   4429   4427   4426   4437     1  180.0000771  1.0460000  2
   4429   4427   4426   4437     1  0.0000000  0.7531200  3
   4429   4427   4426   4444     1  0.0000000  0.6508444  3
   4430   4429   4427   4447     1  0.0000000  0.6508444  3
   4431   4444   4426   4437     1  180.0000771  0.4184000  2
   4431   4444   4426   4437     1  0.0000000  1.6024720  3
   4431   4430   4429   4436     1  0.0000000  0.6508444  3
   4435   4431   4430   4449     1  0.0000000  0.6508444  3
   4436   4429   4430   4449     1  0.0000000  0.6508444  3
   4436   4429   4427   4447     1  0.0000000  4.9162000  2
   4436   4429   4427   4447     1  0.0000000  0.6024960  3
   4437   4426   4427   4447     1  0.0000000  0.6508444  3
   4442   4437   4426   4444     1  0.0000000  4.9162000  2
   4442   4437   4426   4444     1  0.0000000  0.6024960  3
   4444   4431   4430   4449     1  0.0000000  0.6508444  3
   4444   4426   4427   4447     1  0.0000000  4.9162000  2
   4444   4426   4427   4447     1  0.0000000  0.6024960  3
   4451   4453   4455   4459     1  0.0000000  0.6508444  3
   4453   4455   4459   4460     1  0.0000000  0.6508444  3
   4453   4455   4459   4461     1  0.0000000  0.6508444  3
   4455   4459   4460   4471     1  0.0000000  0.6508444  3
   4455   4459   4461   4463     1  0.0000000  0.6508444  3
   4459   4460   4471   4474     1  0.0000000  0.6508444  3
   4459   4461   4463   4467     1  0.0000000  0.6508444  3
   4460   4459   4461   4463     1  0.0000000  0.6508444  3
   4460   4471   4474   4475     1  180.0000771  0.0000000  2
   4460   4471   4474   4523     1  180.0000771  0.0000000  2
   4461   4459   4460   4471     1  0.0000000  0.6508444  3
   4461   4463   4467   4468     1  180.0000771  0.0000000  2
   4461   4463   4467   4499     1  180.0000771  0.0000000  2
   4463   4467   4499   4480     1  180.0000771  6.0668000  2
   4463   4467   4499   4480     1  180.0000771  1.4644000  4
   4467   4499   4480   4479     1  0.0000000  1.2552000  3
   4467   4499   4480   4481     1  0.0000000  1.2552000  3
   4468   4467   4499   4480     1  180.0000771  6.0668000  2
   4468   4467   4499   4480     1  180.0000771  1.4644000  4
   4471   4474   4523   4504     1  180.0000771  6.0668000  2
   4471   4474   4523   4504     1  180.0000771  1.4644000  4
   4474   4523   4504   4503     1  0.0000000  1.2552000  3
   4474   4523   4504   4505     1  0.0000000  1.2552000  3
   4475   4474   4523   4504     1  180.0000771  6.0668000  2
   4475   4474   4523   4504     1  180.0000771  1.4644000  4
   4476   4477   4479   4480     1  180.0000771  0.8368000  1
   4476   4477   4479   4480     1  180.0000771  1.0460000  2
   4476   4477   4479   4480     1  0.0000000  0.7531200  3
   4476   4477   4479   4486     1  0.0000000  0.6508444  3
   4476   4494   4481   4480     1  180.0000771  0.4184000  2
   4476   4494   4481   4480     1  0.0000000  1.6024720  3
   4476   4494   4481   4485     1  0.0000000  1.6038667  3
   4477   4476   4487   4492     1  0.0000000  0.6508444  3
   4477   4476   4494   4481     1  180.0000771  0.4184000  2
   4477   4476   4494   4481     1  0.0000000  1.6024720  3
   4477   4479   4480   4481     1  180.0000771  0.8368000  1
   4477   4479   4480   4481     1  180.0000771  1.0460000  2
   4477   4479   4480   4481     1  0.0000000  0.7531200  3
   4477   4479   4480   4499     1  0.0000000  0.6508444  3
   4479   4477   4476   4487     1  180.0000771  0.8368000  1
   4479   4477   4476   4487     1  180.0000771  1.0460000  2
   4479   4477   4476   4487     1  0.0000000  0.7531200  3
   4479   4477   4476   4494     1  0.0000000  0.6508444  3
   4479   4480   4481   4485     1  0.0000000  0.6508444  3
   4479   4480   4481   4494     1  0.0000000  0.6508444  3
   4480   4479   4477   4497     1  0.0000000  0.6508444  3
   4481   4480   4479   4486     1  0.0000000  0.6508444  3
   4481   4494   4476   4487     1  180.0000771  0.4184000  2
   4481   4494   4476   4487     1  0.0000000  1.6024720  3
   4485   4481   4480   4499     1  0.0000000  0.6508444  3
   4486   4479   4477   4497     1  0.0000000  4.9162000  2
   4486   4479   4477   4497     1  0.0000000  0.6024960  3
   4486   4479   4480   4499     1  0.0000000  0.6508444  3
   4487   4476   4477   4497     1  0.0000000  0.6508444  3
   4492   4487   4476   4494     1  0.0000000  4.9162000  2
   4492   4487   4476   4494     1  0.0000000  0.6024960  3
   4494   4476   4477   4497     1  0.0000000  4.9162000  2
   4494   4476   4477   4497     1  0.0000000  0.6024960  3
   4494   4481   4480   4499     1  0.0000000  0.6508444  3
   4500   4501   4503   4504     1  180.0000771  0.8368000  1
   4500   4501   4503   4504     1  180.0000771  1.0460000  2
   4500   4501   4503   4504     1  0.0000000  0.7531200  3
   4500   4501   4503   4510     1  0.0000000  0.6508444  3
   4500   4518   4505   4504     1  180.0000771  0.4184000  2
   4500   4518   4505   4504     1  0.0000000  1.6024720  3
   4500   4518   4505   4509     1  0.0000000  1.6038667  3
   4501   4500   4511   4516     1  0.0000000  0.6508444  3
   4501   4500   4518   4505     1  180.0000771  0.4184000  2
   4501   4500   4518   4505     1  0.0000000  1.6024720  3
   4501   4503   4504   4505     1  180.0000771  0.8368000  1
   4501   4503   4504   4505     1  180.0000771  1.0460000  2
   4501   4503   4504   4505     1  0.0000000  0.7531200  3
   4501   4503   4504   4523     1  0.0000000  0.6508444  3
   4503   4501   4500   4511     1  180.0000771  0.8368000  1
   4503   4501   4500   4511     1  180.0000771  1.0460000  2
   4503   4501   4500   4511     1  0.0000000  0.7531200  3
   4503   4501   4500   4518     1  0.0000000  0.6508444  3
   4503   4504   4505   4509     1  0.0000000  0.6508444  3
   4503   4504   4505   4518     1  0.0000000  0.6508444  3
   4504   4503   4501   4521     1  0.0000000  0.6508444  3
   4505   4504   4503   4510     1  0.0000000  0.6508444  3
   4505   4518   4500   4511     1  180.0000771  0.4184000  2
   4505   4518   4500   4511     1  0.0000000  1.6024720  3
   4509   4505   4504   4523     1  0.0000000  0.6508444  3
   4510   4503   4501   4521     1  0.0000000  4.9162000  2
   4510   4503   4501   4521     1  0.0000000  0.6024960  3
   4510   4503   4504   4523     1  0.0000000  0.6508444  3
   4511   4500   4501   4521     1  0.0000000  0.6508444  3
   4516   4511   4500   4518     1  0.0000000  4.9162000  2
   4516   4511   4500   4518     1  0.0000000  0.6024960  3
   4518   4500   4501   4521     1  0.0000000  4.9162000  2
   4518   4500   4501   4521     1  0.0000000  0.6024960  3
   4518   4505   4504   4523     1  0.0000000  0.6508444  3
   4525   4527   4529   4533     1  0.0000000  0.6508444  3
   4527   4529   4533   4534     1  0.0000000  0.6508444  3
   4527   4529   4533   4535     1  0.0000000  0.6508444  3
   4529   4533   4534   4545     1  0.0000000  0.6508444  3
   4529   4533   4535   4537     1  0.0000000  0.6508444  3
   4533   4534   4545   4548     1  0.0000000  0.6508444  3
   4533   4535   4537   4541     1  0.0000000  0.6508444  3
   4534   4545   4548   4549     1  180.0000771  0.0000000  2
   4534   4545   4548   4597     1  180.0000771  0.0000000  2
   4534   4533   4535   4537     1  0.0000000  0.6508444  3
   4535   4537   4541   4542     1  180.0000771  0.0000000  2
   4535   4537   4541   4573     1  180.0000771  0.0000000  2
   4535   4533   4534   4545     1  0.0000000  0.6508444  3
   4537   4541   4573   4554     1  180.0000771  6.0668000  2
   4537   4541   4573   4554     1  180.0000771  1.4644000  4
   4541   4573   4554   4555     1  0.0000000  1.2552000  3
   4541   4573   4554   4553     1  0.0000000  1.2552000  3
   4542   4541   4573   4554     1  180.0000771  6.0668000  2
   4542   4541   4573   4554     1  180.0000771  1.4644000  4
   4545   4548   4597   4578     1  180.0000771  6.0668000  2
   4545   4548   4597   4578     1  180.0000771  1.4644000  4
   4548   4597   4578   4579     1  0.0000000  1.2552000  3
   4548   4597   4578   4577     1  0.0000000  1.2552000  3
   4549   4548   4597   4578     1  180.0000771  6.0668000  2
   4549   4548   4597   4578     1  180.0000771  1.4644000  4
   4550   4551   4553   4554     1  180.0000771  0.8368000  1
   4550   4551   4553   4554     1  180.0000771  1.0460000  2
   4550   4551   4553   4554     1  0.0000000  0.7531200  3
   4550   4551   4553   4560     1  0.0000000  0.6508444  3
   4550   4568   4555   4559     1  0.0000000  1.6038667  3
   4550   4568   4555   4554     1  180.0000771  0.4184000  2
   4550   4568   4555   4554     1  0.0000000  1.6024720  3
   4551   4553   4554   4555     1  180.0000771  0.8368000  1
   4551   4553   4554   4555     1  180.0000771  1.0460000  2
   4551   4553   4554   4555     1  0.0000000  0.7531200  3
   4551   4553   4554   4573     1  0.0000000  0.6508444  3
   4551   4550   4561   4566     1  0.0000000  0.6508444  3
   4551   4550   4568   4555     1  180.0000771  0.4184000  2
   4551   4550   4568   4555     1  0.0000000  1.6024720  3
   4553   4554   4555   4559     1  0.0000000  0.6508444  3
   4553   4554   4555   4568     1  0.0000000  0.6508444  3
   4553   4551   4550   4561     1  180.0000771  0.8368000  1
   4553   4551   4550   4561     1  180.0000771  1.0460000  2
   4553   4551   4550   4561     1  0.0000000  0.7531200  3
   4553   4551   4550   4568     1  0.0000000  0.6508444  3
   4554   4553   4551   4571     1  0.0000000  0.6508444  3
   4555   4568   4550   4561     1  180.0000771  0.4184000  2
   4555   4568   4550   4561     1  0.0000000  1.6024720  3
   4555   4554   4553   4560     1  0.0000000  0.6508444  3
   4559   4555   4554   4573     1  0.0000000  0.6508444  3
   4560   4553   4554   4573     1  0.0000000  0.6508444  3
   4560   4553   4551   4571     1  0.0000000  4.9162000  2
   4560   4553   4551   4571     1  0.0000000  0.6024960  3
   4561   4550   4551   4571     1  0.0000000  0.6508444  3
   4566   4561   4550   4568     1  0.0000000  4.9162000  2
   4566   4561   4550   4568     1  0.0000000  0.6024960  3
   4568   4555   4554   4573     1  0.0000000  0.6508444  3
   4568   4550   4551   4571     1  0.0000000  4.9162000  2
   4568   4550   4551   4571     1  0.0000000  0.6024960  3
   4574   4575   4577   4578     1  180.0000771  0.8368000  1
   4574   4575   4577   4578     1  180.0000771  1.0460000  2
   4574   4575   4577   4578     1  0.0000000  0.7531200  3
   4574   4575   4577   4584     1  0.0000000  0.6508444  3
   4574   4592   4579   4583     1  0.0000000  1.6038667  3
   4574   4592   4579   4578     1  180.0000771  0.4184000  2
   4574   4592   4579   4578     1  0.0000000  1.6024720  3
   4575   4577   4578   4579     1  180.0000771  0.8368000  1
   4575   4577   4578   4579     1  180.0000771  1.0460000  2
   4575   4577   4578   4579     1  0.0000000  0.7531200  3
   4575   4577   4578   4597     1  0.0000000  0.6508444  3
   4575   4574   4585   4590     1  0.0000000  0.6508444  3
   4575   4574   4592   4579     1  180.0000771  0.4184000  2
   4575   4574   4592   4579     1  0.0000000  1.6024720  3
   4577   4578   4579   4583     1  0.0000000  0.6508444  3
   4577   4578   4579   4592     1  0.0000000  0.6508444  3
   4577   4575   4574   4585     1  180.0000771  0.8368000  1
   4577   4575   4574   4585     1  180.0000771  1.0460000  2
   4577   4575   4574   4585     1  0.0000000  0.7531200  3
   4577   4575   4574   4592     1  0.0000000  0.6508444  3
   4578   4577   4575   4595     1  0.0000000  0.6508444  3
   4579   4592   4574   4585     1  180.0000771  0.4184000  2
   4579   4592   4574   4585     1  0.0000000  1.6024720  3
   4579   4578   4577   4584     1  0.0000000  0.6508444  3
   4583   4579   4578   4597     1  0.0000000  0.6508444  3
   4584   4577   4578   4597     1  0.0000000  0.6508444  3
   4584   4577   4575   4595     1  0.0000000  4.9162000  2
   4584   4577   4575   4595     1  0.0000000  0.6024960  3
   4585   4574   4575   4595     1  0.0000000  0.6508444  3
   4590   4585   4574   4592     1  0.0000000  4.9162000  2
   4590   4585   4574   4592     1  0.0000000  0.6024960  3
   4592   4579   4578   4597     1  0.0000000  0.6508444  3
   4592   4574   4575   4595     1  0.0000000  4.9162000  2
   4592   4574   4575   4595     1  0.0000000  0.6024960  3
   4599   4601   4603   4607     1  0.0000000  0.6508444  3
   4601   4603   4607   4608     1  0.0000000  0.6508444  3
   4601   4603   4607   4609     1  0.0000000  0.6508444  3
   4603   4607   4608   4619     1  0.0000000  0.6508444  3
   4603   4607   4609   4611     1  0.0000000  0.6508444  3
   4607   4608   4619   4622     1  0.0000000  0.6508444  3
   4607   4609   4611   4615     1  0.0000000  0.6508444  3
   4608   4607   4609   4611     1  0.0000000  0.6508444  3
   4608   4619   4622   4623     1  180.0000771  0.0000000  2
   4608   4619   4622   4671     1  180.0000771  0.0000000  2
   4609   4607   4608   4619     1  0.0000000  0.6508444  3
   4609   4611   4615   4616     1  180.0000771  0.0000000  2
   4609   4611   4615   4647     1  180.0000771  0.0000000  2
   4611   4615   4647   4628     1  180.0000771  6.0668000  2
   4611   4615   4647   4628     1  180.0000771  1.4644000  4
   4615   4647   4628   4627     1  0.0000000  1.2552000  3
   4615   4647   4628   4629     1  0.0000000  1.2552000  3
   4616   4615   4647   4628     1  180.0000771  6.0668000  2
   4616   4615   4647   4628     1  180.0000771  1.4644000  4
   4619   4622   4671   4652     1  180.0000771  6.0668000  2
   4619   4622   4671   4652     1  180.0000771  1.4644000  4
   4622   4671   4652   4651     1  0.0000000  1.2552000  3
   4622   4671   4652   4653     1  0.0000000  1.2552000  3
   4623   4622   4671   4652     1  180.0000771  6.0668000  2
   4623   4622   4671   4652     1  180.0000771  1.4644000  4
   4624   4625   4627   4628     1  180.0000771  0.8368000  1
   4624   4625   4627   4628     1  180.0000771  1.0460000  2
   4624   4625   4627   4628     1  0.0000000  0.7531200  3
   4624   4625   4627   4634     1  0.0000000  0.6508444  3
   4624   4642   4629   4628     1  180.0000771  0.4184000  2
   4624   4642   4629   4628     1  0.0000000  1.6024720  3
   4624   4642   4629   4633     1  0.0000000  1.6038667  3
   4625   4624   4635   4640     1  0.0000000  0.6508444  3
   4625   4624   4642   4629     1  180.0000771  0.4184000  2
   4625   4624   4642   4629     1  0.0000000  1.6024720  3
   4625   4627   4628   4629     1  180.0000771  0.8368000  1
   4625   4627   4628   4629     1  180.0000771  1.0460000  2
   4625   4627   4628   4629     1  0.0000000  0.7531200  3
   4625   4627   4628   4647     1  0.0000000  0.6508444  3
   4627   4625   4624   4635     1  180.0000771  0.8368000  1
   4627   4625   4624   4635     1  180.0000771  1.0460000  2
   4627   4625   4624   4635     1  0.0000000  0.7531200  3
   4627   4625   4624   4642     1  0.0000000  0.6508444  3
   4627   4628   4629   4633     1  0.0000000  0.6508444  3
   4627   4628   4629   4642     1  0.0000000  0.6508444  3
   4628   4627   4625   4645     1  0.0000000  0.6508444  3
   4629   4628   4627   4634     1  0.0000000  0.6508444  3
   4629   4642   4624   4635     1  180.0000771  0.4184000  2
   4629   4642   4624   4635     1  0.0000000  1.6024720  3
   4633   4629   4628   4647     1  0.0000000  0.6508444  3
   4634   4627   4625   4645     1  0.0000000  4.9162000  2
   4634   4627   4625   4645     1  0.0000000  0.6024960  3
   4634   4627   4628   4647     1  0.0000000  0.6508444  3
   4635   4624   4625   4645     1  0.0000000  0.6508444  3
   4640   4635   4624   4642     1  0.0000000  4.9162000  2
   4640   4635   4624   4642     1  0.0000000  0.6024960  3
   4642   4624   4625   4645     1  0.0000000  4.9162000  2
   4642   4624   4625   4645     1  0.0000000  0.6024960  3
   4642   4629   4628   4647     1  0.0000000  0.6508444  3
   4648   4649   4651   4652     1  180.0000771  0.8368000  1
   4648   4649   4651   4652     1  180.0000771  1.0460000  2
   4648   4649   4651   4652     1  0.0000000  0.7531200  3
   4648   4649   4651   4658     1  0.0000000  0.6508444  3
   4648   4666   4653   4652     1  180.0000771  0.4184000  2
   4648   4666   4653   4652     1  0.0000000  1.6024720  3
   4648   4666   4653   4657     1  0.0000000  1.6038667  3
   4649   4648   4659   4664     1  0.0000000  0.6508444  3
   4649   4648   4666   4653     1  180.0000771  0.4184000  2
   4649   4648   4666   4653     1  0.0000000  1.6024720  3
   4649   4651   4652   4653     1  180.0000771  0.8368000  1
   4649   4651   4652   4653     1  180.0000771  1.0460000  2
   4649   4651   4652   4653     1  0.0000000  0.7531200  3
   4649   4651   4652   4671     1  0.0000000  0.6508444  3
   4651   4649   4648   4659     1  180.0000771  0.8368000  1
   4651   4649   4648   4659     1  180.0000771  1.0460000  2
   4651   4649   4648   4659     1  0.0000000  0.7531200  3
   4651   4649   4648   4666     1  0.0000000  0.6508444  3
   4651   4652   4653   4657     1  0.0000000  0.6508444  3
   4651   4652   4653   4666     1  0.0000000  0.6508444  3
   4652   4651   4649   4669     1  0.0000000  0.6508444  3
   4653   4652   4651   4658     1  0.0000000  0.6508444  3
   4653   4666   4648   4659     1  180.0000771  0.4184000  2
   4653   4666   4648   4659     1  0.0000000  1.6024720  3
   4657   4653   4652   4671     1  0.0000000  0.6508444  3
   4658   4651   4649   4669     1  0.0000000  4.9162000  2
   4658   4651   4649   4669     1  0.0000000  0.6024960  3
   4658   4651   4652   4671     1  0.0000000  0.6508444  3
   4659   4648   4649   4669     1  0.0000000  0.6508444  3
   4664   4659   4648   4666     1  0.0000000  4.9162000  2
   4664   4659   4648   4666     1  0.0000000  0.6024960  3
   4666   4648   4649   4669     1  0.0000000  4.9162000  2
   4666   4648   4649   4669     1  0.0000000  0.6024960  3
   4666   4653   4652   4671     1  0.0000000  0.6508444  3
   4673   4675   4677   4681     1  0.0000000  0.6508444  3
   4675   4677   4681   4682     1  0.0000000  0.6508444  3
   4675   4677   4681   4683     1  0.0000000  0.6508444  3
   4677   4681   4682   4693     1  0.0000000  0.6508444  3
   4677   4681   4683   4685     1  0.0000000  0.6508444  3
   4681   4682   4693   4696     1  0.0000000  0.6508444  3
   4681   4683   4685   4689     1  0.0000000  0.6508444  3
   4682   4693   4696   4697     1  180.0000771  0.0000000  2
   4682   4693   4696   4745     1  180.0000771  0.0000000  2
   4682   4681   4683   4685     1  0.0000000  0.6508444  3
   4683   4685   4689   4690     1  180.0000771  0.0000000  2
   4683   4685   4689   4721     1  180.0000771  0.0000000  2
   4683   4681   4682   4693     1  0.0000000  0.6508444  3
   4685   4689   4721   4702     1  180.0000771  6.0668000  2
   4685   4689   4721   4702     1  180.0000771  1.4644000  4
   4689   4721   4702   4703     1  0.0000000  1.2552000  3
   4689   4721   4702   4701     1  0.0000000  1.2552000  3
   4690   4689   4721   4702     1  180.0000771  6.0668000  2
   4690   4689   4721   4702     1  180.0000771  1.4644000  4
   4693   4696   4745   4726     1  180.0000771  6.0668000  2
   4693   4696   4745   4726     1  180.0000771  1.4644000  4
   4696   4745   4726   4727     1  0.0000000  1.2552000  3
   4696   4745   4726   4725     1  0.0000000  1.2552000  3
   4697   4696   4745   4726     1  180.0000771  6.0668000  2
   4697   4696   4745   4726     1  180.0000771  1.4644000  4
   4698   4699   4701   4702     1  180.0000771  0.8368000  1
   4698   4699   4701   4702     1  180.0000771  1.0460000  2
   4698   4699   4701   4702     1  0.0000000  0.7531200  3
   4698   4699   4701   4708     1  0.0000000  0.6508444  3
   4698   4716   4703   4707     1  0.0000000  1.6038667  3
   4698   4716   4703   4702     1  180.0000771  0.4184000  2
   4698   4716   4703   4702     1  0.0000000  1.6024720  3
   4699   4701   4702   4703     1  180.0000771  0.8368000  1
   4699   4701   4702   4703     1  180.0000771  1.0460000  2
   4699   4701   4702   4703     1  0.0000000  0.7531200  3
   4699   4701   4702   4721     1  0.0000000  0.6508444  3
   4699   4698   4709   4714     1  0.0000000  0.6508444  3
   4699   4698   4716   4703     1  180.0000771  0.4184000  2
   4699   4698   4716   4703     1  0.0000000  1.6024720  3
   4701   4702   4703   4707     1  0.0000000  0.6508444  3
   4701   4702   4703   4716     1  0.0000000  0.6508444  3
   4701   4699   4698   4709     1  180.0000771  0.8368000  1
   4701   4699   4698   4709     1  180.0000771  1.0460000  2
   4701   4699   4698   4709     1  0.0000000  0.7531200  3
   4701   4699   4698   4716     1  0.0000000  0.6508444  3
   4702   4701   4699   4719     1  0.0000000  0.6508444  3
   4703   4716   4698   4709     1  180.0000771  0.4184000  2
   4703   4716   4698   4709     1  0.0000000  1.6024720  3
   4703   4702   4701   4708     1  0.0000000  0.6508444  3
   4707   4703   4702   4721     1  0.0000000  0.6508444  3
   4708   4701   4702   4721     1  0.0000000  0.6508444  3
   4708   4701   4699   4719     1  0.0000000  4.9162000  2
   4708   4701   4699   4719     1  0.0000000  0.6024960  3
   4709   4698   4699   4719     1  0.0000000  0.6508444  3
   4714   4709   4698   4716     1  0.0000000  4.9162000  2
   4714   4709   4698   4716     1  0.0000000  0.6024960  3
   4716   4703   4702   4721     1  0.0000000  0.6508444  3
   4716   4698   4699   4719     1  0.0000000  4.9162000  2
   4716   4698   4699   4719     1  0.0000000  0.6024960  3
   4722   4723   4725   4726     1  180.0000771  0.8368000  1
   4722   4723   4725   4726     1  180.0000771  1.0460000  2
   4722   4723   4725   4726     1  0.0000000  0.7531200  3
   4722   4723   4725   4732     1  0.0000000  0.6508444  3
   4722   4740   4727   4731     1  0.0000000  1.6038667  3
   4722   4740   4727   4726     1  180.0000771  0.4184000  2
   4722   4740   4727   4726     1  0.0000000  1.6024720  3
   4723   4725   4726   4727     1  180.0000771  0.8368000  1
   4723   4725   4726   4727     1  180.0000771  1.0460000  2
   4723   4725   4726   4727     1  0.0000000  0.7531200  3
   4723   4725   4726   4745     1  0.0000000  0.6508444  3
   4723   4722   4733   4738     1  0.0000000  0.6508444  3
   4723   4722   4740   4727     1  180.0000771  0.4184000  2
   4723   4722   4740   4727     1  0.0000000  1.6024720  3
   4725   4726   4727   4731     1  0.0000000  0.6508444  3
   4725   4726   4727   4740     1  0.0000000  0.6508444  3
   4725   4723   4722   4733     1  180.0000771  0.8368000  1
   4725   4723   4722   4733     1  180.0000771  1.0460000  2
   4725   4723   4722   4733     1  0.0000000  0.7531200  3
   4725   4723   4722   4740     1  0.0000000  0.6508444  3
   4726   4725   4723   4743     1  0.0000000  0.6508444  3
   4727   4740   4722   4733     1  180.0000771  0.4184000  2
   4727   4740   4722   4733     1  0.0000000  1.6024720  3
   4727   4726   4725   4732     1  0.0000000  0.6508444  3
   4731   4727   4726   4745     1  0.0000000  0.6508444  3
   4732   4725   4726   4745     1  0.0000000  0.6508444  3
   4732   4725   4723   4743     1  0.0000000  4.9162000  2
   4732   4725   4723   4743     1  0.0000000  0.6024960  3
   4733   4722   4723   4743     1  0.0000000  0.6508444  3
   4738   4733   4722   4740     1  0.0000000  4.9162000  2
   4738   4733   4722   4740     1  0.0000000  0.6024960  3
   4740   4727   4726   4745     1  0.0000000  0.6508444  3
   4740   4722   4723   4743     1  0.0000000  4.9162000  2
   4740   4722   4723   4743     1  0.0000000  0.6024960  3
   4747   4749   4751   4755     1  0.0000000  0.6508444  3
   4749   4751   4755   4756     1  0.0000000  0.6508444  3
   4749   4751   4755   4757     1  0.0000000  0.6508444  3
   4751   4755   4756   4767     1  0.0000000  0.6508444  3
   4751   4755   4757   4759     1  0.0000000  0.6508444  3
   4755   4756   4767   4770     1  0.0000000  0.6508444  3
   4755   4757   4759   4763     1  0.0000000  0.6508444  3
   4756   4755   4757   4759     1  0.0000000  0.6508444  3
   4756   4767   4770   4771     1  180.0000771  0.0000000  2
   4756   4767   4770   4819     1  180.0000771  0.0000000  2
   4757   4755   4756   4767     1  0.0000000  0.6508444  3
   4757   4759   4763   4764     1  180.0000771  0.0000000  2
   4757   4759   4763   4795     1  180.0000771  0.0000000  2
   4759   4763   4795   4776     1  180.0000771  6.0668000  2
   4759   4763   4795   4776     1  180.0000771  1.4644000  4
   4763   4795   4776   4775     1  0.0000000  1.2552000  3
   4763   4795   4776   4777     1  0.0000000  1.2552000  3
   4764   4763   4795   4776     1  180.0000771  6.0668000  2
   4764   4763   4795   4776     1  180.0000771  1.4644000  4
   4767   4770   4819   4800     1  180.0000771  6.0668000  2
   4767   4770   4819   4800     1  180.0000771  1.4644000  4
   4770   4819   4800   4799     1  0.0000000  1.2552000  3
   4770   4819   4800   4801     1  0.0000000  1.2552000  3
   4771   4770   4819   4800     1  180.0000771  6.0668000  2
   4771   4770   4819   4800     1  180.0000771  1.4644000  4
   4772   4773   4775   4776     1  180.0000771  0.8368000  1
   4772   4773   4775   4776     1  180.0000771  1.0460000  2
   4772   4773   4775   4776     1  0.0000000  0.7531200  3
   4772   4773   4775   4782     1  0.0000000  0.6508444  3
   4772   4790   4777   4776     1  180.0000771  0.4184000  2
   4772   4790   4777   4776     1  0.0000000  1.6024720  3
   4772   4790   4777   4781     1  0.0000000  1.6038667  3
   4773   4772   4783   4788     1  0.0000000  0.6508444  3
   4773   4772   4790   4777     1  180.0000771  0.4184000  2
   4773   4772   4790   4777     1  0.0000000  1.6024720  3
   4773   4775   4776   4777     1  180.0000771  0.8368000  1
   4773   4775   4776   4777     1  180.0000771  1.0460000  2
   4773   4775   4776   4777     1  0.0000000  0.7531200  3
   4773   4775   4776   4795     1  0.0000000  0.6508444  3
   4775   4773   4772   4783     1  180.0000771  0.8368000  1
   4775   4773   4772   4783     1  180.0000771  1.0460000  2
   4775   4773   4772   4783     1  0.0000000  0.7531200  3
   4775   4773   4772   4790     1  0.0000000  0.6508444  3
   4775   4776   4777   4781     1  0.0000000  0.6508444  3
   4775   4776   4777   4790     1  0.0000000  0.6508444  3
   4776   4775   4773   4793     1  0.0000000  0.6508444  3
   4777   4776   4775   4782     1  0.0000000  0.6508444  3
   4777   4790   4772   4783     1  180.0000771  0.4184000  2
   4777   4790   4772   4783     1  0.0000000  1.6024720  3
   4781   4777   4776   4795     1  0.0000000  0.6508444  3
   4782   4775   4773   4793     1  0.0000000  4.9162000  2
   4782   4775   4773   4793     1  0.0000000  0.6024960  3
   4782   4775   4776   4795     1  0.0000000  0.6508444  3
   4783   4772   4773   4793     1  0.0000000  0.6508444  3
   4788   4783   4772   4790     1  0.0000000  4.9162000  2
   4788   4783   4772   4790     1  0.0000000  0.6024960  3
   4790   4772   4773   4793     1  0.0000000  4.9162000  2
   4790   4772   4773   4793     1  0.0000000  0.6024960  3
   4790   4777   4776   4795     1  0.0000000  0.6508444  3
   4796   4797   4799   4800     1  180.0000771  0.8368000  1
   4796   4797   4799   4800     1  180.0000771  1.0460000  2
   4796   4797   4799   4800     1  0.0000000  0.7531200  3
   4796   4797   4799   4806     1  0.0000000  0.6508444  3
   4796   4814   4801   4800     1  180.0000771  0.4184000  2
   4796   4814   4801   4800     1  0.0000000  1.6024720  3
   4796   4814   4801   4805     1  0.0000000  1.6038667  3
   4797   4796   4807   4812     1  0.0000000  0.6508444  3
   4797   4796   4814   4801     1  180.0000771  0.4184000  2
   4797   4796   4814   4801     1  0.0000000  1.6024720  3
   4797   4799   4800   4801     1  180.0000771  0.8368000  1
   4797   4799   4800   4801     1  180.0000771  1.0460000  2
   4797   4799   4800   4801     1  0.0000000  0.7531200  3
   4797   4799   4800   4819     1  0.0000000  0.6508444  3
   4799   4797   4796   4807     1  180.0000771  0.8368000  1
   4799   4797   4796   4807     1  180.0000771  1.0460000  2
   4799   4797   4796   4807     1  0.0000000  0.7531200  3
   4799   4797   4796   4814     1  0.0000000  0.6508444  3
   4799   4800   4801   4805     1  0.0000000  0.6508444  3
   4799   4800   4801   4814     1  0.0000000  0.6508444  3
   4800   4799   4797   4817     1  0.0000000  0.6508444  3
   4801   4800   4799   4806     1  0.0000000  0.6508444  3
   4801   4814   4796   4807     1  180.0000771  0.4184000  2
   4801   4814   4796   4807     1  0.0000000  1.6024720  3
   4805   4801   4800   4819     1  0.0000000  0.6508444  3
   4806   4799   4797   4817     1  0.0000000  4.9162000  2
   4806   4799   4797   4817     1  0.0000000  0.6024960  3
   4806   4799   4800   4819     1  0.0000000  0.6508444  3
   4807   4796   4797   4817     1  0.0000000  0.6508444  3
   4812   4807   4796   4814     1  0.0000000  4.9162000  2
   4812   4807   4796   4814     1  0.0000000  0.6024960  3
   4814   4796   4797   4817     1  0.0000000  4.9162000  2
   4814   4796   4797   4817     1  0.0000000  0.6024960  3
   4814   4801   4800   4819     1  0.0000000  0.6508444  3
   4821   4823   4825   4829     1  0.0000000  0.6508444  3
   4823   4825   4829   4830     1  0.0000000  0.6508444  3
   4823   4825   4829   4831     1  0.0000000  0.6508444  3
   4825   4829   4830   4841     1  0.0000000  0.6508444  3
   4825   4829   4831   4833     1  0.0000000  0.6508444  3
   4829   4830   4841   4844     1  0.0000000  0.6508444  3
   4829   4831   4833   4837     1  0.0000000  0.6508444  3
   4830   4841   4844   4845     1  180.0000771  0.0000000  2
   4830   4841   4844   4893     1  180.0000771  0.0000000  2
   4830   4829   4831   4833     1  0.0000000  0.6508444  3
   4831   4833   4837   4838     1  180.0000771  0.0000000  2
   4831   4833   4837   4869     1  180.0000771  0.0000000  2
   4831   4829   4830   4841     1  0.0000000  0.6508444  3
   4833   4837   4869   4850     1  180.0000771  6.0668000  2
   4833   4837   4869   4850     1  180.0000771  1.4644000  4
   4837   4869   4850   4851     1  0.0000000  1.2552000  3
   4837   4869   4850   4849     1  0.0000000  1.2552000  3
   4838   4837   4869   4850     1  180.0000771  6.0668000  2
   4838   4837   4869   4850     1  180.0000771  1.4644000  4
   4841   4844   4893   4874     1  180.0000771  6.0668000  2
   4841   4844   4893   4874     1  180.0000771  1.4644000  4
   4844   4893   4874   4875     1  0.0000000  1.2552000  3
   4844   4893   4874   4873     1  0.0000000  1.2552000  3
   4845   4844   4893   4874     1  180.0000771  6.0668000  2
   4845   4844   4893   4874     1  180.0000771  1.4644000  4
   4846   4847   4849   4850     1  180.0000771  0.8368000  1
   4846   4847   4849   4850     1  180.0000771  1.0460000  2
   4846   4847   4849   4850     1  0.0000000  0.7531200  3
   4846   4847   4849   4856     1  0.0000000  0.6508444  3
   4846   4864   4851   4855     1  0.0000000  1.6038667  3
   4846   4864   4851   4850     1  180.0000771  0.4184000  2
   4846   4864   4851   4850     1  0.0000000  1.6024720  3
   4847   4849   4850   4851     1  180.0000771  0.8368000  1
   4847   4849   4850   4851     1  180.0000771  1.0460000  2
   4847   4849   4850   4851     1  0.0000000  0.7531200  3
   4847   4849   4850   4869     1  0.0000000  0.6508444  3
   4847   4846   4857   4862     1  0.0000000  0.6508444  3
   4847   4846   4864   4851     1  180.0000771  0.4184000  2
   4847   4846   4864   4851     1  0.0000000  1.6024720  3
   4849   4850   4851   4855     1  0.0000000  0.6508444  3
   4849   4850   4851   4864     1  0.0000000  0.6508444  3
   4849   4847   4846   4857     1  180.0000771  0.8368000  1
   4849   4847   4846   4857     1  180.0000771  1.0460000  2
   4849   4847   4846   4857     1  0.0000000  0.7531200  3
   4849   4847   4846   4864     1  0.0000000  0.6508444  3
   4850   4849   4847   4867     1  0.0000000  0.6508444  3
   4851   4864   4846   4857     1  180.0000771  0.4184000  2
   4851   4864   4846   4857     1  0.0000000  1.6024720  3
   4851   4850   4849   4856     1  0.0000000  0.6508444  3
   4855   4851   4850   4869     1  0.0000000  0.6508444  3
   4856   4849   4850   4869     1  0.0000000  0.6508444  3
   4856   4849   4847   4867     1  0.0000000  4.9162000  2
   4856   4849   4847   4867     1  0.0000000  0.6024960  3
   4857   4846   4847   4867     1  0.0000000  0.6508444  3
   4862   4857   4846   4864     1  0.0000000  4.9162000  2
   4862   4857   4846   4864     1  0.0000000  0.6024960  3
   4864   4851   4850   4869     1  0.0000000  0.6508444  3
   4864   4846   4847   4867     1  0.0000000  4.9162000  2
   4864   4846   4847   4867     1  0.0000000  0.6024960  3
   4870   4871   4873   4874     1  180.0000771  0.8368000  1
   4870   4871   4873   4874     1  180.0000771  1.0460000  2
   4870   4871   4873   4874     1  0.0000000  0.7531200  3
   4870   4871   4873   4880     1  0.0000000  0.6508444  3
   4870   4888   4875   4879     1  0.0000000  1.6038667  3
   4870   4888   4875   4874     1  180.0000771  0.4184000  2
   4870   4888   4875   4874     1  0.0000000  1.6024720  3
   4871   4873   4874   4875     1  180.0000771  0.8368000  1
   4871   4873   4874   4875     1  180.0000771  1.0460000  2
   4871   4873   4874   4875     1  0.0000000  0.7531200  3
   4871   4873   4874   4893     1  0.0000000  0.6508444  3
   4871   4870   4881   4886     1  0.0000000  0.6508444  3
   4871   4870   4888   4875     1  180.0000771  0.4184000  2
   4871   4870   4888   4875     1  0.0000000  1.6024720  3
   4873   4874   4875   4879     1  0.0000000  0.6508444  3
   4873   4874   4875   4888     1  0.0000000  0.6508444  3
   4873   4871   4870   4881     1  180.0000771  0.8368000  1
   4873   4871   4870   4881     1  180.0000771  1.0460000  2
   4873   4871   4870   4881     1  0.0000000  0.7531200  3
   4873   4871   4870   4888     1  0.0000000  0.6508444  3
   4874   4873   4871   4891     1  0.0000000  0.6508444  3
   4875   4888   4870   4881     1  180.0000771  0.4184000  2
   4875   4888   4870   4881     1  0.0000000  1.6024720  3
   4875   4874   4873   4880     1  0.0000000  0.6508444  3
   4879   4875   4874   4893     1  0.0000000  0.6508444  3
   4880   4873   4874   4893     1  0.0000000  0.6508444  3
   4880   4873   4871   4891     1  0.0000000  4.9162000  2
   4880   4873   4871   4891     1  0.0000000  0.6024960  3
   4881   4870   4871   4891     1  0.0000000  0.6508444  3
   4886   4881   4870   4888     1  0.0000000  4.9162000  2
   4886   4881   4870   4888     1  0.0000000  0.6024960  3
   4888   4875   4874   4893     1  0.0000000  0.6508444  3
   4888   4870   4871   4891     1  0.0000000  4.9162000  2
   4888   4870   4871   4891     1  0.0000000  0.6024960  3
   4895   4897   4899   4903     1  0.0000000  0.6508444  3
   4897   4899   4903   4904     1  0.0000000  0.6508444  3
   4897   4899   4903   4905     1  0.0000000  0.6508444  3
   4899   4903   4904   4915     1  0.0000000  0.6508444  3
   4899   4903   4905   4907     1  0.0000000  0.6508444  3
   4903   4904   4915   4918     1  0.0000000  0.6508444  3
   4903   4905   4907   4911     1  0.0000000  0.6508444  3
   4904   4903   4905   4907     1  0.0000000  0.6508444  3
   4904   4915   4918   4919     1  180.0000771  0.0000000  2
   4904   4915   4918   4967     1  180.0000771  0.0000000  2
   4905   4903   4904   4915     1  0.0000000  0.6508444  3
   4905   4907   4911   4912     1  180.0000771  0.0000000  2
   4905   4907   4911   4943     1  180.0000771  0.0000000  2
   4907   4911   4943   4924     1  180.0000771  6.0668000  2
   4907   4911   4943   4924     1  180.0000771  1.4644000  4
   4911   4943   4924   4923     1  0.0000000  1.2552000  3
   4911   4943   4924   4925     1  0.0000000  1.2552000  3
   4912   4911   4943   4924     1  180.0000771  6.0668000  2
   4912   4911   4943   4924     1  180.0000771  1.4644000  4
   4915   4918   4967   4948     1  180.0000771  6.0668000  2
   4915   4918   4967   4948     1  180.0000771  1.4644000  4
   4918   4967   4948   4947     1  0.0000000  1.2552000  3
   4918   4967   4948   4949     1  0.0000000  1.2552000  3
   4919   4918   4967   4948     1  180.0000771  6.0668000  2
   4919   4918   4967   4948     1  180.0000771  1.4644000  4
   4920   4921   4923   4924     1  180.0000771  0.8368000  1
   4920   4921   4923   4924     1  180.0000771  1.0460000  2
   4920   4921   4923   4924     1  0.0000000  0.7531200  3
   4920   4921   4923   4930     1  0.0000000  0.6508444  3
   4920   4938   4925   4924     1  180.0000771  0.4184000  2
   4920   4938   4925   4924     1  0.0000000  1.6024720  3
   4920   4938   4925   4929     1  0.0000000  1.6038667  3
   4921   4920   4931   4936     1  0.0000000  0.6508444  3
   4921   4920   4938   4925     1  180.0000771  0.4184000  2
   4921   4920   4938   4925     1  0.0000000  1.6024720  3
   4921   4923   4924   4925     1  180.0000771  0.8368000  1
   4921   4923   4924   4925     1  180.0000771  1.0460000  2
   4921   4923   4924   4925     1  0.0000000  0.7531200  3
   4921   4923   4924   4943     1  0.0000000  0.6508444  3
   4923   4921   4920   4931     1  180.0000771  0.8368000  1
   4923   4921   4920   4931     1  180.0000771  1.0460000  2
   4923   4921   4920   4931     1  0.0000000  0.7531200  3
   4923   4921   4920   4938     1  0.0000000  0.6508444  3
   4923   4924   4925   4929     1  0.0000000  0.6508444  3
   4923   4924   4925   4938     1  0.0000000  0.6508444  3
   4924   4923   4921   4941     1  0.0000000  0.6508444  3
   4925   4924   4923   4930     1  0.0000000  0.6508444  3
   4925   4938   4920   4931     1  180.0000771  0.4184000  2
   4925   4938   4920   4931     1  0.0000000  1.6024720  3
   4929   4925   4924   4943     1  0.0000000  0.6508444  3
   4930   4923   4921   4941     1  0.0000000  4.9162000  2
   4930   4923   4921   4941     1  0.0000000  0.6024960  3
   4930   4923   4924   4943     1  0.0000000  0.6508444  3
   4931   4920   4921   4941     1  0.0000000  0.6508444  3
   4936   4931   4920   4938     1  0.0000000  4.9162000  2
   4936   4931   4920   4938     1  0.0000000  0.6024960  3
   4938   4920   4921   4941     1  0.0000000  4.9162000  2
   4938   4920   4921   4941     1  0.0000000  0.6024960  3
   4938   4925   4924   4943     1  0.0000000  0.6508444  3
   4944   4945   4947   4948     1  180.0000771  0.8368000  1
   4944   4945   4947   4948     1  180.0000771  1.0460000  2
   4944   4945   4947   4948     1  0.0000000  0.7531200  3
   4944   4945   4947   4954     1  0.0000000  0.6508444  3
   4944   4962   4949   4948     1  180.0000771  0.4184000  2
   4944   4962   4949   4948     1  0.0000000  1.6024720  3
   4944   4962   4949   4953     1  0.0000000  1.6038667  3
   4945   4944   4955   4960     1  0.0000000  0.6508444  3
   4945   4944   4962   4949     1  180.0000771  0.4184000  2
   4945   4944   4962   4949     1  0.0000000  1.6024720  3
   4945   4947   4948   4949     1  180.0000771  0.8368000  1
   4945   4947   4948   4949     1  180.0000771  1.0460000  2
   4945   4947   4948   4949     1  0.0000000  0.7531200  3
   4945   4947   4948   4967     1  0.0000000  0.6508444  3
   4947   4945   4944   4955     1  180.0000771  0.8368000  1
   4947   4945   4944   4955     1  180.0000771  1.0460000  2
   4947   4945   4944   4955     1  0.0000000  0.7531200  3
   4947   4945   4944   4962     1  0.0000000  0.6508444  3
   4947   4948   4949   4953     1  0.0000000  0.6508444  3
   4947   4948   4949   4962     1  0.0000000  0.6508444  3
   4948   4947   4945   4965     1  0.0000000  0.6508444  3
   4949   4948   4947   4954     1  0.0000000  0.6508444  3
   4949   4962   4944   4955     1  180.0000771  0.4184000  2
   4949   4962   4944   4955     1  0.0000000  1.6024720  3
   4953   4949   4948   4967     1  0.0000000  0.6508444  3
   4954   4947   4945   4965     1  0.0000000  4.9162000  2
   4954   4947   4945   4965     1  0.0000000  0.6024960  3
   4954   4947   4948   4967     1  0.0000000  0.6508444  3
   4955   4944   4945   4965     1  0.0000000  0.6508444  3
   4960   4955   4944   4962     1  0.0000000  4.9162000  2
   4960   4955   4944   4962     1  0.0000000  0.6024960  3
   4962   4944   4945   4965     1  0.0000000  4.9162000  2
   4962   4944   4945   4965     1  0.0000000  0.6024960  3
   4962   4949   4948   4967     1  0.0000000  0.6508444  3
   4969   4971   4973   4977     1  0.0000000  0.6508444  3
   4971   4973   4977   4978     1  0.0000000  0.6508444  3
   4971   4973   4977   4979     1  0.0000000  0.6508444  3
   4973   4977   4978   4989     1  0.0000000  0.6508444  3
   4973   4977   4979   4981     1  0.0000000  0.6508444  3
   4977   4978   4989   4992     1  0.0000000  0.6508444  3
   4977   4979   4981   4985     1  0.0000000  0.6508444  3
   4978   4989   4992   4993     1  180.0000771  0.0000000  2
   4978   4989   4992   5041     1  180.0000771  0.0000000  2
   4978   4977   4979   4981     1  0.0000000  0.6508444  3
   4979   4981   4985   4986     1  180.0000771  0.0000000  2
   4979   4981   4985   5017     1  180.0000771  0.0000000  2
   4979   4977   4978   4989     1  0.0000000  0.6508444  3
   4981   4985   5017   4998     1  180.0000771  6.0668000  2
   4981   4985   5017   4998     1  180.0000771  1.4644000  4
   4985   5017   4998   4999     1  0.0000000  1.2552000  3
   4985   5017   4998   4997     1  0.0000000  1.2552000  3
   4986   4985   5017   4998     1  180.0000771  6.0668000  2
   4986   4985   5017   4998     1  180.0000771  1.4644000  4
   4989   4992   5041   5022     1  180.0000771  6.0668000  2
   4989   4992   5041   5022     1  180.0000771  1.4644000  4
   4992   5041   5022   5023     1  0.0000000  1.2552000  3
   4992   5041   5022   5021     1  0.0000000  1.2552000  3
   4993   4992   5041   5022     1  180.0000771  6.0668000  2
   4993   4992   5041   5022     1  180.0000771  1.4644000  4
   4994   4995   4997   4998     1  180.0000771  0.8368000  1
   4994   4995   4997   4998     1  180.0000771  1.0460000  2
   4994   4995   4997   4998     1  0.0000000  0.7531200  3
   4994   4995   4997   5004     1  0.0000000  0.6508444  3
   4994   5012   4999   5003     1  0.0000000  1.6038667  3
   4994   5012   4999   4998     1  180.0000771  0.4184000  2
   4994   5012   4999   4998     1  0.0000000  1.6024720  3
   4995   4997   4998   4999     1  180.0000771  0.8368000  1
   4995   4997   4998   4999     1  180.0000771  1.0460000  2
   4995   4997   4998   4999     1  0.0000000  0.7531200  3
   4995   4997   4998   5017     1  0.0000000  0.6508444  3
   4995   4994   5005   5010     1  0.0000000  0.6508444  3
   4995   4994   5012   4999     1  180.0000771  0.4184000  2
   4995   4994   5012   4999     1  0.0000000  1.6024720  3
   4997   4998   4999   5003     1  0.0000000  0.6508444  3
   4997   4998   4999   5012     1  0.0000000  0.6508444  3
   4997   4995   4994   5005     1  180.0000771  0.8368000  1
   4997   4995   4994   5005     1  180.0000771  1.0460000  2
   4997   4995   4994   5005     1  0.0000000  0.7531200  3
   4997   4995   4994   5012     1  0.0000000  0.6508444  3
   4998   4997   4995   5015     1  0.0000000  0.6508444  3
   4999   5012   4994   5005     1  180.0000771  0.4184000  2
   4999   5012   4994   5005     1  0.0000000  1.6024720  3
   4999   4998   4997   5004     1  0.0000000  0.6508444  3
   5003   4999   4998   5017     1  0.0000000  0.6508444  3
   5004   4997   4998   5017     1  0.0000000  0.6508444  3
   5004   4997   4995   5015     1  0.0000000  4.9162000  2
   5004   4997   4995   5015     1  0.0000000  0.6024960  3
   5005   4994   4995   5015     1  0.0000000  0.6508444  3
   5010   5005   4994   5012     1  0.0000000  4.9162000  2
   5010   5005   4994   5012     1  0.0000000  0.6024960  3
   5012   4999   4998   5017     1  0.0000000  0.6508444  3
   5012   4994   4995   5015     1  0.0000000  4.9162000  2
   5012   4994   4995   5015     1  0.0000000  0.6024960  3
   5018   5019   5021   5022     1  180.0000771  0.8368000  1
   5018   5019   5021   5022     1  180.0000771  1.0460000  2
   5018   5019   5021   5022     1  0.0000000  0.7531200  3
   5018   5019   5021   5028     1  0.0000000  0.6508444  3
   5018   5036   5023   5027     1  0.0000000  1.6038667  3
   5018   5036   5023   5022     1  180.0000771  0.4184000  2
   5018   5036   5023   5022     1  0.0000000  1.6024720  3
   5019   5021   5022   5023     1  180.0000771  0.8368000  1
   5019   5021   5022   5023     1  180.0000771  1.0460000  2
   5019   5021   5022   5023     1  0.0000000  0.7531200  3
   5019   5021   5022   5041     1  0.0000000  0.6508444  3
   5019   5018   5029   5034     1  0.0000000  0.6508444  3
   5019   5018   5036   5023     1  180.0000771  0.4184000  2
   5019   5018   5036   5023     1  0.0000000  1.6024720  3
   5021   5022   5023   5027     1  0.0000000  0.6508444  3
   5021   5022   5023   5036     1  0.0000000  0.6508444  3
   5021   5019   5018   5029     1  180.0000771  0.8368000  1
   5021   5019   5018   5029     1  180.0000771  1.0460000  2
   5021   5019   5018   5029     1  0.0000000  0.7531200  3
   5021   5019   5018   5036     1  0.0000000  0.6508444  3
   5022   5021   5019   5039     1  0.0000000  0.6508444  3
   5023   5036   5018   5029     1  180.0000771  0.4184000  2
   5023   5036   5018   5029     1  0.0000000  1.6024720  3
   5023   5022   5021   5028     1  0.0000000  0.6508444  3
   5027   5023   5022   5041     1  0.0000000  0.6508444  3
   5028   5021   5022   5041     1  0.0000000  0.6508444  3
   5028   5021   5019   5039     1  0.0000000  4.9162000  2
   5028   5021   5019   5039     1  0.0000000  0.6024960  3
   5029   5018   5019   5039     1  0.0000000  0.6508444  3
   5034   5029   5018   5036     1  0.0000000  4.9162000  2
   5034   5029   5018   5036     1  0.0000000  0.6024960  3
   5036   5023   5022   5041     1  0.0000000  0.6508444  3
   5036   5018   5019   5039     1  0.0000000  4.9162000  2
   5036   5018   5019   5039     1  0.0000000  0.6024960  3
   5043   5045   5047   5051     1  0.0000000  0.6508444  3
   5045   5047   5051   5052     1  0.0000000  0.6508444  3
   5045   5047   5051   5053     1  0.0000000  0.6508444  3
   5047   5051   5052   5063     1  0.0000000  0.6508444  3
   5047   5051   5053   5055     1  0.0000000  0.6508444  3
   5051   5052   5063   5066     1  0.0000000  0.6508444  3
   5051   5053   5055   5059     1  0.0000000  0.6508444  3
   5052   5051   5053   5055     1  0.0000000  0.6508444  3
   5052   5063   5066   5067     1  180.0000771  0.0000000  2
   5052   5063   5066   5115     1  180.0000771  0.0000000  2
   5053   5051   5052   5063     1  0.0000000  0.6508444  3
   5053   5055   5059   5060     1  180.0000771  0.0000000  2
   5053   5055   5059   5091     1  180.0000771  0.0000000  2
   5055   5059   5091   5072     1  180.0000771  6.0668000  2
   5055   5059   5091   5072     1  180.0000771  1.4644000  4
   5059   5091   5072   5071     1  0.0000000  1.2552000  3
   5059   5091   5072   5073     1  0.0000000  1.2552000  3
   5060   5059   5091   5072     1  180.0000771  6.0668000  2
   5060   5059   5091   5072     1  180.0000771  1.4644000  4
   5063   5066   5115   5096     1  180.0000771  6.0668000  2
   5063   5066   5115   5096     1  180.0000771  1.4644000  4
   5066   5115   5096   5095     1  0.0000000  1.2552000  3
   5066   5115   5096   5097     1  0.0000000  1.2552000  3
   5067   5066   5115   5096     1  180.0000771  6.0668000  2
   5067   5066   5115   5096     1  180.0000771  1.4644000  4
   5068   5069   5071   5072     1  180.0000771  0.8368000  1
   5068   5069   5071   5072     1  180.0000771  1.0460000  2
   5068   5069   5071   5072     1  0.0000000  0.7531200  3
   5068   5069   5071   5078     1  0.0000000  0.6508444  3
   5068   5086   5073   5072     1  180.0000771  0.4184000  2
   5068   5086   5073   5072     1  0.0000000  1.6024720  3
   5068   5086   5073   5077     1  0.0000000  1.6038667  3
   5069   5068   5079   5084     1  0.0000000  0.6508444  3
   5069   5068   5086   5073     1  180.0000771  0.4184000  2
   5069   5068   5086   5073     1  0.0000000  1.6024720  3
   5069   5071   5072   5073     1  180.0000771  0.8368000  1
   5069   5071   5072   5073     1  180.0000771  1.0460000  2
   5069   5071   5072   5073     1  0.0000000  0.7531200  3
   5069   5071   5072   5091     1  0.0000000  0.6508444  3
   5071   5069   5068   5079     1  180.0000771  0.8368000  1
   5071   5069   5068   5079     1  180.0000771  1.0460000  2
   5071   5069   5068   5079     1  0.0000000  0.7531200  3
   5071   5069   5068   5086     1  0.0000000  0.6508444  3
   5071   5072   5073   5077     1  0.0000000  0.6508444  3
   5071   5072   5073   5086     1  0.0000000  0.6508444  3
   5072   5071   5069   5089     1  0.0000000  0.6508444  3
   5073   5072   5071   5078     1  0.0000000  0.6508444  3
   5073   5086   5068   5079     1  180.0000771  0.4184000  2
   5073   5086   5068   5079     1  0.0000000  1.6024720  3
   5077   5073   5072   5091     1  0.0000000  0.6508444  3
   5078   5071   5069   5089     1  0.0000000  4.9162000  2
   5078   5071   5069   5089     1  0.0000000  0.6024960  3
   5078   5071   5072   5091     1  0.0000000  0.6508444  3
   5079   5068   5069   5089     1  0.0000000  0.6508444  3
   5084   5079   5068   5086     1  0.0000000  4.9162000  2
   5084   5079   5068   5086     1  0.0000000  0.6024960  3
   5086   5068   5069   5089     1  0.0000000  4.9162000  2
   5086   5068   5069   5089     1  0.0000000  0.6024960  3
   5086   5073   5072   5091     1  0.0000000  0.6508444  3
   5092   5093   5095   5096     1  180.0000771  0.8368000  1
   5092   5093   5095   5096     1  180.0000771  1.0460000  2
   5092   5093   5095   5096     1  0.0000000  0.7531200  3
   5092   5093   5095   5102     1  0.0000000  0.6508444  3
   5092   5110   5097   5096     1  180.0000771  0.4184000  2
   5092   5110   5097   5096     1  0.0000000  1.6024720  3
   5092   5110   5097   5101     1  0.0000000  1.6038667  3
   5093   5092   5103   5108     1  0.0000000  0.6508444  3
   5093   5092   5110   5097     1  180.0000771  0.4184000  2
   5093   5092   5110   5097     1  0.0000000  1.6024720  3
   5093   5095   5096   5097     1  180.0000771  0.8368000  1
   5093   5095   5096   5097     1  180.0000771  1.0460000  2
   5093   5095   5096   5097     1  0.0000000  0.7531200  3
   5093   5095   5096   5115     1  0.0000000  0.6508444  3
   5095   5093   5092   5103     1  180.0000771  0.8368000  1
   5095   5093   5092   5103     1  180.0000771  1.0460000  2
   5095   5093   5092   5103     1  0.0000000  0.7531200  3
   5095   5093   5092   5110     1  0.0000000  0.6508444  3
   5095   5096   5097   5101     1  0.0000000  0.6508444  3
   5095   5096   5097   5110     1  0.0000000  0.6508444  3
   5096   5095   5093   5113     1  0.0000000  0.6508444  3
   5097   5096   5095   5102     1  0.0000000  0.6508444  3
   5097   5110   5092   5103     1  180.0000771  0.4184000  2
   5097   5110   5092   5103     1  0.0000000  1.6024720  3
   5101   5097   5096   5115     1  0.0000000  0.6508444  3
   5102   5095   5093   5113     1  0.0000000  4.9162000  2
   5102   5095   5093   5113     1  0.0000000  0.6024960  3
   5102   5095   5096   5115     1  0.0000000  0.6508444  3
   5103   5092   5093   5113     1  0.0000000  0.6508444  3
   5108   5103   5092   5110     1  0.0000000  4.9162000  2
   5108   5103   5092   5110     1  0.0000000  0.6024960  3
   5110   5092   5093   5113     1  0.0000000  4.9162000  2
   5110   5092   5093   5113     1  0.0000000  0.6024960  3
   5110   5097   5096   5115     1  0.0000000  0.6508444  3
   5117   5119   5121   5125     1  0.0000000  0.6508444  3
   5119   5121   5125   5126     1  0.0000000  0.6508444  3
   5119   5121   5125   5127     1  0.0000000  0.6508444  3
   5121   5125   5126   5137     1  0.0000000  0.6508444  3
   5121   5125   5127   5129     1  0.0000000  0.6508444  3
   5125   5126   5137   5140     1  0.0000000  0.6508444  3
   5125   5127   5129   5133     1  0.0000000  0.6508444  3
   5126   5137   5140   5141     1  180.0000771  0.0000000  2
   5126   5137   5140   5189     1  180.0000771  0.0000000  2
   5126   5125   5127   5129     1  0.0000000  0.6508444  3
   5127   5129   5133   5134     1  180.0000771  0.0000000  2
   5127   5129   5133   5165     1  180.0000771  0.0000000  2
   5127   5125   5126   5137     1  0.0000000  0.6508444  3
   5129   5133   5165   5146     1  180.0000771  6.0668000  2
   5129   5133   5165   5146     1  180.0000771  1.4644000  4
   5133   5165   5146   5147     1  0.0000000  1.2552000  3
   5133   5165   5146   5145     1  0.0000000  1.2552000  3
   5134   5133   5165   5146     1  180.0000771  6.0668000  2
   5134   5133   5165   5146     1  180.0000771  1.4644000  4
   5137   5140   5189   5170     1  180.0000771  6.0668000  2
   5137   5140   5189   5170     1  180.0000771  1.4644000  4
   5140   5189   5170   5171     1  0.0000000  1.2552000  3
   5140   5189   5170   5169     1  0.0000000  1.2552000  3
   5141   5140   5189   5170     1  180.0000771  6.0668000  2
   5141   5140   5189   5170     1  180.0000771  1.4644000  4
   5142   5143   5145   5146     1  180.0000771  0.8368000  1
   5142   5143   5145   5146     1  180.0000771  1.0460000  2
   5142   5143   5145   5146     1  0.0000000  0.7531200  3
   5142   5143   5145   5152     1  0.0000000  0.6508444  3
   5142   5160   5147   5151     1  0.0000000  1.6038667  3
   5142   5160   5147   5146     1  180.0000771  0.4184000  2
   5142   5160   5147   5146     1  0.0000000  1.6024720  3
   5143   5145   5146   5147     1  180.0000771  0.8368000  1
   5143   5145   5146   5147     1  180.0000771  1.0460000  2
   5143   5145   5146   5147     1  0.0000000  0.7531200  3
   5143   5145   5146   5165     1  0.0000000  0.6508444  3
   5143   5142   5153   5158     1  0.0000000  0.6508444  3
   5143   5142   5160   5147     1  180.0000771  0.4184000  2
   5143   5142   5160   5147     1  0.0000000  1.6024720  3
   5145   5146   5147   5151     1  0.0000000  0.6508444  3
   5145   5146   5147   5160     1  0.0000000  0.6508444  3
   5145   5143   5142   5153     1  180.0000771  0.8368000  1
   5145   5143   5142   5153     1  180.0000771  1.0460000  2
   5145   5143   5142   5153     1  0.0000000  0.7531200  3
   5145   5143   5142   5160     1  0.0000000  0.6508444  3
   5146   5145   5143   5163     1  0.0000000  0.6508444  3
   5147   5160   5142   5153     1  180.0000771  0.4184000  2
   5147   5160   5142   5153     1  0.0000000  1.6024720  3
   5147   5146   5145   5152     1  0.0000000  0.6508444  3
   5151   5147   5146   5165     1  0.0000000  0.6508444  3
   5152   5145   5146   5165     1  0.0000000  0.6508444  3
   5152   5145   5143   5163     1  0.0000000  4.9162000  2
   5152   5145   5143   5163     1  0.0000000  0.6024960  3
   5153   5142   5143   5163     1  0.0000000  0.6508444  3
   5158   5153   5142   5160     1  0.0000000  4.9162000  2
   5158   5153   5142   5160     1  0.0000000  0.6024960  3
   5160   5147   5146   5165     1  0.0000000  0.6508444  3
   5160   5142   5143   5163     1  0.0000000  4.9162000  2
   5160   5142   5143   5163     1  0.0000000  0.6024960  3
   5166   5167   5169   5170     1  180.0000771  0.8368000  1
   5166   5167   5169   5170     1  180.0000771  1.0460000  2
   5166   5167   5169   5170     1  0.0000000  0.7531200  3
   5166   5167   5169   5176     1  0.0000000  0.6508444  3
   5166   5184   5171   5175     1  0.0000000  1.6038667  3
   5166   5184   5171   5170     1  180.0000771  0.4184000  2
   5166   5184   5171   5170     1  0.0000000  1.6024720  3
   5167   5169   5170   5171     1  180.0000771  0.8368000  1
   5167   5169   5170   5171     1  180.0000771  1.0460000  2
   5167   5169   5170   5171     1  0.0000000  0.7531200  3
   5167   5169   5170   5189     1  0.0000000  0.6508444  3
   5167   5166   5177   5182     1  0.0000000  0.6508444  3
   5167   5166   5184   5171     1  180.0000771  0.4184000  2
   5167   5166   5184   5171     1  0.0000000  1.6024720  3
   5169   5170   5171   5175     1  0.0000000  0.6508444  3
   5169   5170   5171   5184     1  0.0000000  0.6508444  3
   5169   5167   5166   5177     1  180.0000771  0.8368000  1
   5169   5167   5166   5177     1  180.0000771  1.0460000  2
   5169   5167   5166   5177     1  0.0000000  0.7531200  3
   5169   5167   5166   5184     1  0.0000000  0.6508444  3
   5170   5169   5167   5187     1  0.0000000  0.6508444  3
   5171   5184   5166   5177     1  180.0000771  0.4184000  2
   5171   5184   5166   5177     1  0.0000000  1.6024720  3
   5171   5170   5169   5176     1  0.0000000  0.6508444  3
   5175   5171   5170   5189     1  0.0000000  0.6508444  3
   5176   5169   5170   5189     1  0.0000000  0.6508444  3
   5176   5169   5167   5187     1  0.0000000  4.9162000  2
   5176   5169   5167   5187     1  0.0000000  0.6024960  3
   5177   5166   5167   5187     1  0.0000000  0.6508444  3
   5182   5177   5166   5184     1  0.0000000  4.9162000  2
   5182   5177   5166   5184     1  0.0000000  0.6024960  3
   5184   5171   5170   5189     1  0.0000000  0.6508444  3
   5184   5166   5167   5187     1  0.0000000  4.9162000  2
   5184   5166   5167   5187     1  0.0000000  0.6024960  3
   5191   5193   5195   5199     1  0.0000000  0.6508444  3
   5193   5195   5199   5200     1  0.0000000  0.6508444  3
   5193   5195   5199   5201     1  0.0000000  0.6508444  3
   5195   5199   5200   5211     1  0.0000000  0.6508444  3
   5195   5199   5201   5203     1  0.0000000  0.6508444  3
   5199   5200   5211   5214     1  0.0000000  0.6508444  3
   5199   5201   5203   5207     1  0.0000000  0.6508444  3
   5200   5199   5201   5203     1  0.0000000  0.6508444  3
   5200   5211   5214   5215     1  180.0000771  0.0000000  2
   5200   5211   5214   5263     1  180.0000771  0.0000000  2
   5201   5199   5200   5211     1  0.0000000  0.6508444  3
   5201   5203   5207   5208     1  180.0000771  0.0000000  2
   5201   5203   5207   5239     1  180.0000771  0.0000000  2
   5203   5207   5239   5220     1  180.0000771  6.0668000  2
   5203   5207   5239   5220     1  180.0000771  1.4644000  4
   5207   5239   5220   5219     1  0.0000000  1.2552000  3
   5207   5239   5220   5221     1  0.0000000  1.2552000  3
   5208   5207   5239   5220     1  180.0000771  6.0668000  2
   5208   5207   5239   5220     1  180.0000771  1.4644000  4
   5211   5214   5263   5244     1  180.0000771  6.0668000  2
   5211   5214   5263   5244     1  180.0000771  1.4644000  4
   5214   5263   5244   5243     1  0.0000000  1.2552000  3
   5214   5263   5244   5245     1  0.0000000  1.2552000  3
   5215   5214   5263   5244     1  180.0000771  6.0668000  2
   5215   5214   5263   5244     1  180.0000771  1.4644000  4
   5216   5217   5219   5220     1  180.0000771  0.8368000  1
   5216   5217   5219   5220     1  180.0000771  1.0460000  2
   5216   5217   5219   5220     1  0.0000000  0.7531200  3
   5216   5217   5219   5226     1  0.0000000  0.6508444  3
   5216   5234   5221   5220     1  180.0000771  0.4184000  2
   5216   5234   5221   5220     1  0.0000000  1.6024720  3
   5216   5234   5221   5225     1  0.0000000  1.6038667  3
   5217   5216   5227   5232     1  0.0000000  0.6508444  3
   5217   5216   5234   5221     1  180.0000771  0.4184000  2
   5217   5216   5234   5221     1  0.0000000  1.6024720  3
   5217   5219   5220   5221     1  180.0000771  0.8368000  1
   5217   5219   5220   5221     1  180.0000771  1.0460000  2
   5217   5219   5220   5221     1  0.0000000  0.7531200  3
   5217   5219   5220   5239     1  0.0000000  0.6508444  3
   5219   5217   5216   5227     1  180.0000771  0.8368000  1
   5219   5217   5216   5227     1  180.0000771  1.0460000  2
   5219   5217   5216   5227     1  0.0000000  0.7531200  3
   5219   5217   5216   5234     1  0.0000000  0.6508444  3
   5219   5220   5221   5225     1  0.0000000  0.6508444  3
   5219   5220   5221   5234     1  0.0000000  0.6508444  3
   5220   5219   5217   5237     1  0.0000000  0.6508444  3
   5221   5220   5219   5226     1  0.0000000  0.6508444  3
   5221   5234   5216   5227     1  180.0000771  0.4184000  2
   5221   5234   5216   5227     1  0.0000000  1.6024720  3
   5225   5221   5220   5239     1  0.0000000  0.6508444  3
   5226   5219   5217   5237     1  0.0000000  4.9162000  2
   5226   5219   5217   5237     1  0.0000000  0.6024960  3
   5226   5219   5220   5239     1  0.0000000  0.6508444  3
   5227   5216   5217   5237     1  0.0000000  0.6508444  3
   5232   5227   5216   5234     1  0.0000000  4.9162000  2
   5232   5227   5216   5234     1  0.0000000  0.6024960  3
   5234   5216   5217   5237     1  0.0000000  4.9162000  2
   5234   5216   5217   5237     1  0.0000000  0.6024960  3
   5234   5221   5220   5239     1  0.0000000  0.6508444  3
   5240   5241   5243   5244     1  180.0000771  0.8368000  1
   5240   5241   5243   5244     1  180.0000771  1.0460000  2
   5240   5241   5243   5244     1  0.0000000  0.7531200  3
   5240   5241   5243   5250     1  0.0000000  0.6508444  3
   5240   5258   5245   5244     1  180.0000771  0.4184000  2
   5240   5258   5245   5244     1  0.0000000  1.6024720  3
   5240   5258   5245   5249     1  0.0000000  1.6038667  3
   5241   5240   5251   5256     1  0.0000000  0.6508444  3
   5241   5240   5258   5245     1  180.0000771  0.4184000  2
   5241   5240   5258   5245     1  0.0000000  1.6024720  3
   5241   5243   5244   5245     1  180.0000771  0.8368000  1
   5241   5243   5244   5245     1  180.0000771  1.0460000  2
   5241   5243   5244   5245     1  0.0000000  0.7531200  3
   5241   5243   5244   5263     1  0.0000000  0.6508444  3
   5243   5241   5240   5251     1  180.0000771  0.8368000  1
   5243   5241   5240   5251     1  180.0000771  1.0460000  2
   5243   5241   5240   5251     1  0.0000000  0.7531200  3
   5243   5241   5240   5258     1  0.0000000  0.6508444  3
   5243   5244   5245   5249     1  0.0000000  0.6508444  3
   5243   5244   5245   5258     1  0.0000000  0.6508444  3
   5244   5243   5241   5261     1  0.0000000  0.6508444  3
   5245   5244   5243   5250     1  0.0000000  0.6508444  3
   5245   5258   5240   5251     1  180.0000771  0.4184000  2
   5245   5258   5240   5251     1  0.0000000  1.6024720  3
   5249   5245   5244   5263     1  0.0000000  0.6508444  3
   5250   5243   5241   5261     1  0.0000000  4.9162000  2
   5250   5243   5241   5261     1  0.0000000  0.6024960  3
   5250   5243   5244   5263     1  0.0000000  0.6508444  3
   5251   5240   5241   5261     1  0.0000000  0.6508444  3
   5256   5251   5240   5258     1  0.0000000  4.9162000  2
   5256   5251   5240   5258     1  0.0000000  0.6024960  3
   5258   5240   5241   5261     1  0.0000000  4.9162000  2
   5258   5240   5241   5261     1  0.0000000  0.6024960  3
   5258   5245   5244   5263     1  0.0000000  0.6508444  3
   5265   5267   5269   5273     1  0.0000000  0.6508444  3
   5267   5269   5273   5274     1  0.0000000  0.6508444  3
   5267   5269   5273   5275     1  0.0000000  0.6508444  3
   5269   5273   5274   5285     1  0.0000000  0.6508444  3
   5269   5273   5275   5277     1  0.0000000  0.6508444  3
   5273   5274   5285   5288     1  0.0000000  0.6508444  3
   5273   5275   5277   5281     1  0.0000000  0.6508444  3
   5274   5285   5288   5289     1  180.0000771  0.0000000  2
   5274   5285   5288   5337     1  180.0000771  0.0000000  2
   5274   5273   5275   5277     1  0.0000000  0.6508444  3
   5275   5277   5281   5282     1  180.0000771  0.0000000  2
   5275   5277   5281   5313     1  180.0000771  0.0000000  2
   5275   5273   5274   5285     1  0.0000000  0.6508444  3
   5277   5281   5313   5294     1  180.0000771  6.0668000  2
   5277   5281   5313   5294     1  180.0000771  1.4644000  4
   5281   5313   5294   5295     1  0.0000000  1.2552000  3
   5281   5313   5294   5293     1  0.0000000  1.2552000  3
   5282   5281   5313   5294     1  180.0000771  6.0668000  2
   5282   5281   5313   5294     1  180.0000771  1.4644000  4
   5285   5288   5337   5318     1  180.0000771  6.0668000  2
   5285   5288   5337   5318     1  180.0000771  1.4644000  4
   5288   5337   5318   5319     1  0.0000000  1.2552000  3
   5288   5337   5318   5317     1  0.0000000  1.2552000  3
   5289   5288   5337   5318     1  180.0000771  6.0668000  2
   5289   5288   5337   5318     1  180.0000771  1.4644000  4
   5290   5291   5293   5294     1  180.0000771  0.8368000  1
   5290   5291   5293   5294     1  180.0000771  1.0460000  2
   5290   5291   5293   5294     1  0.0000000  0.7531200  3
   5290   5291   5293   5300     1  0.0000000  0.6508444  3
   5290   5308   5295   5299     1  0.0000000  1.6038667  3
   5290   5308   5295   5294     1  180.0000771  0.4184000  2
   5290   5308   5295   5294     1  0.0000000  1.6024720  3
   5291   5293   5294   5295     1  180.0000771  0.8368000  1
   5291   5293   5294   5295     1  180.0000771  1.0460000  2
   5291   5293   5294   5295     1  0.0000000  0.7531200  3
   5291   5293   5294   5313     1  0.0000000  0.6508444  3
   5291   5290   5301   5306     1  0.0000000  0.6508444  3
   5291   5290   5308   5295     1  180.0000771  0.4184000  2
   5291   5290   5308   5295     1  0.0000000  1.6024720  3
   5293   5294   5295   5299     1  0.0000000  0.6508444  3
   5293   5294   5295   5308     1  0.0000000  0.6508444  3
   5293   5291   5290   5301     1  180.0000771  0.8368000  1
   5293   5291   5290   5301     1  180.0000771  1.0460000  2
   5293   5291   5290   5301     1  0.0000000  0.7531200  3
   5293   5291   5290   5308     1  0.0000000  0.6508444  3
   5294   5293   5291   5311     1  0.0000000  0.6508444  3
   5295   5308   5290   5301     1  180.0000771  0.4184000  2
   5295   5308   5290   5301     1  0.0000000  1.6024720  3
   5295   5294   5293   5300     1  0.0000000  0.6508444  3
   5299   5295   5294   5313     1  0.0000000  0.6508444  3
   5300   5293   5294   5313     1  0.0000000  0.6508444  3
   5300   5293   5291   5311     1  0.0000000  4.9162000  2
   5300   5293   5291   5311     1  0.0000000  0.6024960  3
   5301   5290   5291   5311     1  0.0000000  0.6508444  3
   5306   5301   5290   5308     1  0.0000000  4.9162000  2
   5306   5301   5290   5308     1  0.0000000  0.6024960  3
   5308   5295   5294   5313     1  0.0000000  0.6508444  3
   5308   5290   5291   5311     1  0.0000000  4.9162000  2
   5308   5290   5291   5311     1  0.0000000  0.6024960  3
   5314   5315   5317   5318     1  180.0000771  0.8368000  1
   5314   5315   5317   5318     1  180.0000771  1.0460000  2
   5314   5315   5317   5318     1  0.0000000  0.7531200  3
   5314   5315   5317   5324     1  0.0000000  0.6508444  3
   5314   5332   5319   5323     1  0.0000000  1.6038667  3
   5314   5332   5319   5318     1  180.0000771  0.4184000  2
   5314   5332   5319   5318     1  0.0000000  1.6024720  3
   5315   5317   5318   5319     1  180.0000771  0.8368000  1
   5315   5317   5318   5319     1  180.0000771  1.0460000  2
   5315   5317   5318   5319     1  0.0000000  0.7531200  3
   5315   5317   5318   5337     1  0.0000000  0.6508444  3
   5315   5314   5325   5330     1  0.0000000  0.6508444  3
   5315   5314   5332   5319     1  180.0000771  0.4184000  2
   5315   5314   5332   5319     1  0.0000000  1.6024720  3
   5317   5318   5319   5323     1  0.0000000  0.6508444  3
   5317   5318   5319   5332     1  0.0000000  0.6508444  3
   5317   5315   5314   5325     1  180.0000771  0.8368000  1
   5317   5315   5314   5325     1  180.0000771  1.0460000  2
   5317   5315   5314   5325     1  0.0000000  0.7531200  3
   5317   5315   5314   5332     1  0.0000000  0.6508444  3
   5318   5317   5315   5335     1  0.0000000  0.6508444  3
   5319   5332   5314   5325     1  180.0000771  0.4184000  2
   5319   5332   5314   5325     1  0.0000000  1.6024720  3
   5319   5318   5317   5324     1  0.0000000  0.6508444  3
   5323   5319   5318   5337     1  0.0000000  0.6508444  3
   5324   5317   5318   5337     1  0.0000000  0.6508444  3
   5324   5317   5315   5335     1  0.0000000  4.9162000  2
   5324   5317   5315   5335     1  0.0000000  0.6024960  3
   5325   5314   5315   5335     1  0.0000000  0.6508444  3
   5330   5325   5314   5332     1  0.0000000  4.9162000  2
   5330   5325   5314   5332     1  0.0000000  0.6024960  3
   5332   5319   5318   5337     1  0.0000000  0.6508444  3
   5332   5314   5315   5335     1  0.0000000  4.9162000  2
   5332   5314   5315   5335     1  0.0000000  0.6024960  3
   5339   5341   5343   5347     1  0.0000000  0.6508444  3
   5341   5343   5347   5348     1  0.0000000  0.6508444  3
   5341   5343   5347   5349     1  0.0000000  0.6508444  3
   5343   5347   5348   5359     1  0.0000000  0.6508444  3
   5343   5347   5349   5351     1  0.0000000  0.6508444  3
   5347   5348   5359   5362     1  0.0000000  0.6508444  3
   5347   5349   5351   5355     1  0.0000000  0.6508444  3
   5348   5347   5349   5351     1  0.0000000  0.6508444  3
   5348   5359   5362   5363     1  180.0000771  0.0000000  2
   5348   5359   5362   5411     1  180.0000771  0.0000000  2
   5349   5347   5348   5359     1  0.0000000  0.6508444  3
   5349   5351   5355   5356     1  180.0000771  0.0000000  2
   5349   5351   5355   5387     1  180.0000771  0.0000000  2
   5351   5355   5387   5368     1  180.0000771  6.0668000  2
   5351   5355   5387   5368     1  180.0000771  1.4644000  4
   5355   5387   5368   5367     1  0.0000000  1.2552000  3
   5355   5387   5368   5369     1  0.0000000  1.2552000  3
   5356   5355   5387   5368     1  180.0000771  6.0668000  2
   5356   5355   5387   5368     1  180.0000771  1.4644000  4
   5359   5362   5411   5392     1  180.0000771  6.0668000  2
   5359   5362   5411   5392     1  180.0000771  1.4644000  4
   5362   5411   5392   5391     1  0.0000000  1.2552000  3
   5362   5411   5392   5393     1  0.0000000  1.2552000  3
   5363   5362   5411   5392     1  180.0000771  6.0668000  2
   5363   5362   5411   5392     1  180.0000771  1.4644000  4
   5364   5365   5367   5368     1  180.0000771  0.8368000  1
   5364   5365   5367   5368     1  180.0000771  1.0460000  2
   5364   5365   5367   5368     1  0.0000000  0.7531200  3
   5364   5365   5367   5374     1  0.0000000  0.6508444  3
   5364   5382   5369   5368     1  180.0000771  0.4184000  2
   5364   5382   5369   5368     1  0.0000000  1.6024720  3
   5364   5382   5369   5373     1  0.0000000  1.6038667  3
   5365   5364   5375   5380     1  0.0000000  0.6508444  3
   5365   5364   5382   5369     1  180.0000771  0.4184000  2
   5365   5364   5382   5369     1  0.0000000  1.6024720  3
   5365   5367   5368   5369     1  180.0000771  0.8368000  1
   5365   5367   5368   5369     1  180.0000771  1.0460000  2
   5365   5367   5368   5369     1  0.0000000  0.7531200  3
   5365   5367   5368   5387     1  0.0000000  0.6508444  3
   5367   5365   5364   5375     1  180.0000771  0.8368000  1
   5367   5365   5364   5375     1  180.0000771  1.0460000  2
   5367   5365   5364   5375     1  0.0000000  0.7531200  3
   5367   5365   5364   5382     1  0.0000000  0.6508444  3
   5367   5368   5369   5373     1  0.0000000  0.6508444  3
   5367   5368   5369   5382     1  0.0000000  0.6508444  3
   5368   5367   5365   5385     1  0.0000000  0.6508444  3
   5369   5368   5367   5374     1  0.0000000  0.6508444  3
   5369   5382   5364   5375     1  180.0000771  0.4184000  2
   5369   5382   5364   5375     1  0.0000000  1.6024720  3
   5373   5369   5368   5387     1  0.0000000  0.6508444  3
   5374   5367   5365   5385     1  0.0000000  4.9162000  2
   5374   5367   5365   5385     1  0.0000000  0.6024960  3
   5374   5367   5368   5387     1  0.0000000  0.6508444  3
   5375   5364   5365   5385     1  0.0000000  0.6508444  3
   5380   5375   5364   5382     1  0.0000000  4.9162000  2
   5380   5375   5364   5382     1  0.0000000  0.6024960  3
   5382   5364   5365   5385     1  0.0000000  4.9162000  2
   5382   5364   5365   5385     1  0.0000000  0.6024960  3
   5382   5369   5368   5387     1  0.0000000  0.6508444  3
   5388   5389   5391   5392     1  180.0000771  0.8368000  1
   5388   5389   5391   5392     1  180.0000771  1.0460000  2
   5388   5389   5391   5392     1  0.0000000  0.7531200  3
   5388   5389   5391   5398     1  0.0000000  0.6508444  3
   5388   5406   5393   5392     1  180.0000771  0.4184000  2
   5388   5406   5393   5392     1  0.0000000  1.6024720  3
   5388   5406   5393   5397     1  0.0000000  1.6038667  3
   5389   5388   5399   5404     1  0.0000000  0.6508444  3
   5389   5388   5406   5393     1  180.0000771  0.4184000  2
   5389   5388   5406   5393     1  0.0000000  1.6024720  3
   5389   5391   5392   5393     1  180.0000771  0.8368000  1
   5389   5391   5392   5393     1  180.0000771  1.0460000  2
   5389   5391   5392   5393     1  0.0000000  0.7531200  3
   5389   5391   5392   5411     1  0.0000000  0.6508444  3
   5391   5389   5388   5399     1  180.0000771  0.8368000  1
   5391   5389   5388   5399     1  180.0000771  1.0460000  2
   5391   5389   5388   5399     1  0.0000000  0.7531200  3
   5391   5389   5388   5406     1  0.0000000  0.6508444  3
   5391   5392   5393   5397     1  0.0000000  0.6508444  3
   5391   5392   5393   5406     1  0.0000000  0.6508444  3
   5392   5391   5389   5409     1  0.0000000  0.6508444  3
   5393   5392   5391   5398     1  0.0000000  0.6508444  3
   5393   5406   5388   5399     1  180.0000771  0.4184000  2
   5393   5406   5388   5399     1  0.0000000  1.6024720  3
   5397   5393   5392   5411     1  0.0000000  0.6508444  3
   5398   5391   5389   5409     1  0.0000000  4.9162000  2
   5398   5391   5389   5409     1  0.0000000  0.6024960  3
   5398   5391   5392   5411     1  0.0000000  0.6508444  3
   5399   5388   5389   5409     1  0.0000000  0.6508444  3
   5404   5399   5388   5406     1  0.0000000  4.9162000  2
   5404   5399   5388   5406     1  0.0000000  0.6024960  3
   5406   5388   5389   5409     1  0.0000000  4.9162000  2
   5406   5388   5389   5409     1  0.0000000  0.6024960  3
   5406   5393   5392   5411     1  0.0000000  0.6508444  3
   5413   5415   5417   5421     1  0.0000000  0.6508444  3
   5415   5417   5421   5422     1  0.0000000  0.6508444  3
   5415   5417   5421   5423     1  0.0000000  0.6508444  3
   5417   5421   5422   5433     1  0.0000000  0.6508444  3
   5417   5421   5423   5425     1  0.0000000  0.6508444  3
   5421   5422   5433   5436     1  0.0000000  0.6508444  3
   5421   5423   5425   5429     1  0.0000000  0.6508444  3
   5422   5433   5436   5437     1  180.0000771  0.0000000  2
   5422   5433   5436   5485     1  180.0000771  0.0000000  2
   5422   5421   5423   5425     1  0.0000000  0.6508444  3
   5423   5425   5429   5430     1  180.0000771  0.0000000  2
   5423   5425   5429   5461     1  180.0000771  0.0000000  2
   5423   5421   5422   5433     1  0.0000000  0.6508444  3
   5425   5429   5461   5442     1  180.0000771  6.0668000  2
   5425   5429   5461   5442     1  180.0000771  1.4644000  4
   5429   5461   5442   5443     1  0.0000000  1.2552000  3
   5429   5461   5442   5441     1  0.0000000  1.2552000  3
   5430   5429   5461   5442     1  180.0000771  6.0668000  2
   5430   5429   5461   5442     1  180.0000771  1.4644000  4
   5433   5436   5485   5466     1  180.0000771  6.0668000  2
   5433   5436   5485   5466     1  180.0000771  1.4644000  4
   5436   5485   5466   5467     1  0.0000000  1.2552000  3
   5436   5485   5466   5465     1  0.0000000  1.2552000  3
   5437   5436   5485   5466     1  180.0000771  6.0668000  2
   5437   5436   5485   5466     1  180.0000771  1.4644000  4
   5438   5439   5441   5442     1  180.0000771  0.8368000  1
   5438   5439   5441   5442     1  180.0000771  1.0460000  2
   5438   5439   5441   5442     1  0.0000000  0.7531200  3
   5438   5439   5441   5448     1  0.0000000  0.6508444  3
   5438   5456   5443   5447     1  0.0000000  1.6038667  3
   5438   5456   5443   5442     1  180.0000771  0.4184000  2
   5438   5456   5443   5442     1  0.0000000  1.6024720  3
   5439   5441   5442   5443     1  180.0000771  0.8368000  1
   5439   5441   5442   5443     1  180.0000771  1.0460000  2
   5439   5441   5442   5443     1  0.0000000  0.7531200  3
   5439   5441   5442   5461     1  0.0000000  0.6508444  3
   5439   5438   5449   5454     1  0.0000000  0.6508444  3
   5439   5438   5456   5443     1  180.0000771  0.4184000  2
   5439   5438   5456   5443     1  0.0000000  1.6024720  3
   5441   5442   5443   5447     1  0.0000000  0.6508444  3
   5441   5442   5443   5456     1  0.0000000  0.6508444  3
   5441   5439   5438   5449     1  180.0000771  0.8368000  1
   5441   5439   5438   5449     1  180.0000771  1.0460000  2
   5441   5439   5438   5449     1  0.0000000  0.7531200  3
   5441   5439   5438   5456     1  0.0000000  0.6508444  3
   5442   5441   5439   5459     1  0.0000000  0.6508444  3
   5443   5456   5438   5449     1  180.0000771  0.4184000  2
   5443   5456   5438   5449     1  0.0000000  1.6024720  3
   5443   5442   5441   5448     1  0.0000000  0.6508444  3
   5447   5443   5442   5461     1  0.0000000  0.6508444  3
   5448   5441   5442   5461     1  0.0000000  0.6508444  3
   5448   5441   5439   5459     1  0.0000000  4.9162000  2
   5448   5441   5439   5459     1  0.0000000  0.6024960  3
   5449   5438   5439   5459     1  0.0000000  0.6508444  3
   5454   5449   5438   5456     1  0.0000000  4.9162000  2
   5454   5449   5438   5456     1  0.0000000  0.6024960  3
   5456   5443   5442   5461     1  0.0000000  0.6508444  3
   5456   5438   5439   5459     1  0.0000000  4.9162000  2
   5456   5438   5439   5459     1  0.0000000  0.6024960  3
   5462   5463   5465   5466     1  180.0000771  0.8368000  1
   5462   5463   5465   5466     1  180.0000771  1.0460000  2
   5462   5463   5465   5466     1  0.0000000  0.7531200  3
   5462   5463   5465   5472     1  0.0000000  0.6508444  3
   5462   5480   5467   5471     1  0.0000000  1.6038667  3
   5462   5480   5467   5466     1  180.0000771  0.4184000  2
   5462   5480   5467   5466     1  0.0000000  1.6024720  3
   5463   5465   5466   5467     1  180.0000771  0.8368000  1
   5463   5465   5466   5467     1  180.0000771  1.0460000  2
   5463   5465   5466   5467     1  0.0000000  0.7531200  3
   5463   5465   5466   5485     1  0.0000000  0.6508444  3
   5463   5462   5473   5478     1  0.0000000  0.6508444  3
   5463   5462   5480   5467     1  180.0000771  0.4184000  2
   5463   5462   5480   5467     1  0.0000000  1.6024720  3
   5465   5466   5467   5471     1  0.0000000  0.6508444  3
   5465   5466   5467   5480     1  0.0000000  0.6508444  3
   5465   5463   5462   5473     1  180.0000771  0.8368000  1
   5465   5463   5462   5473     1  180.0000771  1.0460000  2
   5465   5463   5462   5473     1  0.0000000  0.7531200  3
   5465   5463   5462   5480     1  0.0000000  0.6508444  3
   5466   5465   5463   5483     1  0.0000000  0.6508444  3
   5467   5480   5462   5473     1  180.0000771  0.4184000  2
   5467   5480   5462   5473     1  0.0000000  1.6024720  3
   5467   5466   5465   5472     1  0.0000000  0.6508444  3
   5471   5467   5466   5485     1  0.0000000  0.6508444  3
   5472   5465   5466   5485     1  0.0000000  0.6508444  3
   5472   5465   5463   5483     1  0.0000000  4.9162000  2
   5472   5465   5463   5483     1  0.0000000  0.6024960  3
   5473   5462   5463   5483     1  0.0000000  0.6508444  3
   5478   5473   5462   5480     1  0.0000000  4.9162000  2
   5478   5473   5462   5480     1  0.0000000  0.6024960  3
   5480   5467   5466   5485     1  0.0000000  0.6508444  3
   5480   5462   5463   5483     1  0.0000000  4.9162000  2
   5480   5462   5463   5483     1  0.0000000  0.6024960  3
   5487   5489   5491   5495     1  0.0000000  0.6508444  3
   5489   5491   5495   5496     1  0.0000000  0.6508444  3
   5489   5491   5495   5497     1  0.0000000  0.6508444  3
   5491   5495   5496   5507     1  0.0000000  0.6508444  3
   5491   5495   5497   5499     1  0.0000000  0.6508444  3
   5495   5496   5507   5510     1  0.0000000  0.6508444  3
   5495   5497   5499   5503     1  0.0000000  0.6508444  3
   5496   5495   5497   5499     1  0.0000000  0.6508444  3
   5496   5507   5510   5511     1  180.0000771  0.0000000  2
   5496   5507   5510   5559     1  180.0000771  0.0000000  2
   5497   5495   5496   5507     1  0.0000000  0.6508444  3
   5497   5499   5503   5504     1  180.0000771  0.0000000  2
   5497   5499   5503   5535     1  180.0000771  0.0000000  2
   5499   5503   5535   5516     1  180.0000771  6.0668000  2
   5499   5503   5535   5516     1  180.0000771  1.4644000  4
   5503   5535   5516   5515     1  0.0000000  1.2552000  3
   5503   5535   5516   5517     1  0.0000000  1.2552000  3
   5504   5503   5535   5516     1  180.0000771  6.0668000  2
   5504   5503   5535   5516     1  180.0000771  1.4644000  4
   5507   5510   5559   5540     1  180.0000771  6.0668000  2
   5507   5510   5559   5540     1  180.0000771  1.4644000  4
   5510   5559   5540   5539     1  0.0000000  1.2552000  3
   5510   5559   5540   5541     1  0.0000000  1.2552000  3
   5511   5510   5559   5540     1  180.0000771  6.0668000  2
   5511   5510   5559   5540     1  180.0000771  1.4644000  4
   5512   5513   5515   5516     1  180.0000771  0.8368000  1
   5512   5513   5515   5516     1  180.0000771  1.0460000  2
   5512   5513   5515   5516     1  0.0000000  0.7531200  3
   5512   5513   5515   5522     1  0.0000000  0.6508444  3
   5512   5530   5517   5516     1  180.0000771  0.4184000  2
   5512   5530   5517   5516     1  0.0000000  1.6024720  3
   5512   5530   5517   5521     1  0.0000000  1.6038667  3
   5513   5512   5523   5528     1  0.0000000  0.6508444  3
   5513   5512   5530   5517     1  180.0000771  0.4184000  2
   5513   5512   5530   5517     1  0.0000000  1.6024720  3
   5513   5515   5516   5517     1  180.0000771  0.8368000  1
   5513   5515   5516   5517     1  180.0000771  1.0460000  2
   5513   5515   5516   5517     1  0.0000000  0.7531200  3
   5513   5515   5516   5535     1  0.0000000  0.6508444  3
   5515   5513   5512   5523     1  180.0000771  0.8368000  1
   5515   5513   5512   5523     1  180.0000771  1.0460000  2
   5515   5513   5512   5523     1  0.0000000  0.7531200  3
   5515   5513   5512   5530     1  0.0000000  0.6508444  3
   5515   5516   5517   5521     1  0.0000000  0.6508444  3
   5515   5516   5517   5530     1  0.0000000  0.6508444  3
   5516   5515   5513   5533     1  0.0000000  0.6508444  3
   5517   5516   5515   5522     1  0.0000000  0.6508444  3
   5517   5530   5512   5523     1  180.0000771  0.4184000  2
   5517   5530   5512   5523     1  0.0000000  1.6024720  3
   5521   5517   5516   5535     1  0.0000000  0.6508444  3
   5522   5515   5513   5533     1  0.0000000  4.9162000  2
   5522   5515   5513   5533     1  0.0000000  0.6024960  3
   5522   5515   5516   5535     1  0.0000000  0.6508444  3
   5523   5512   5513   5533     1  0.0000000  0.6508444  3
   5528   5523   5512   5530     1  0.0000000  4.9162000  2
   5528   5523   5512   5530     1  0.0000000  0.6024960  3
   5530   5512   5513   5533     1  0.0000000  4.9162000  2
   5530   5512   5513   5533     1  0.0000000  0.6024960  3
   5530   5517   5516   5535     1  0.0000000  0.6508444  3
   5536   5537   5539   5540     1  180.0000771  0.8368000  1
   5536   5537   5539   5540     1  180.0000771  1.0460000  2
   5536   5537   5539   5540     1  0.0000000  0.7531200  3
   5536   5537   5539   5546     1  0.0000000  0.6508444  3
   5536   5554   5541   5540     1  180.0000771  0.4184000  2
   5536   5554   5541   5540     1  0.0000000  1.6024720  3
   5536   5554   5541   5545     1  0.0000000  1.6038667  3
   5537   5536   5547   5552     1  0.0000000  0.6508444  3
   5537   5536   5554   5541     1  180.0000771  0.4184000  2
   5537   5536   5554   5541     1  0.0000000  1.6024720  3
   5537   5539   5540   5541     1  180.0000771  0.8368000  1
   5537   5539   5540   5541     1  180.0000771  1.0460000  2
   5537   5539   5540   5541     1  0.0000000  0.7531200  3
   5537   5539   5540   5559     1  0.0000000  0.6508444  3
   5539   5537   5536   5547     1  180.0000771  0.8368000  1
   5539   5537   5536   5547     1  180.0000771  1.0460000  2
   5539   5537   5536   5547     1  0.0000000  0.7531200  3
   5539   5537   5536   5554     1  0.0000000  0.6508444  3
   5539   5540   5541   5545     1  0.0000000  0.6508444  3
   5539   5540   5541   5554     1  0.0000000  0.6508444  3
   5540   5539   5537   5557     1  0.0000000  0.6508444  3
   5541   5540   5539   5546     1  0.0000000  0.6508444  3
   5541   5554   5536   5547     1  180.0000771  0.4184000  2
   5541   5554   5536   5547     1  0.0000000  1.6024720  3
   5545   5541   5540   5559     1  0.0000000  0.6508444  3
   5546   5539   5537   5557     1  0.0000000  4.9162000  2
   5546   5539   5537   5557     1  0.0000000  0.6024960  3
   5546   5539   5540   5559     1  0.0000000  0.6508444  3
   5547   5536   5537   5557     1  0.0000000  0.6508444  3
   5552   5547   5536   5554     1  0.0000000  4.9162000  2
   5552   5547   5536   5554     1  0.0000000  0.6024960  3
   5554   5536   5537   5557     1  0.0000000  4.9162000  2
   5554   5536   5537   5557     1  0.0000000  0.6024960  3
   5554   5541   5540   5559     1  0.0000000  0.6508444  3
   5561   5563   5565   5569     1  0.0000000  0.6508444  3
   5563   5565   5569   5570     1  0.0000000  0.6508444  3
   5563   5565   5569   5571     1  0.0000000  0.6508444  3
   5565   5569   5570   5581     1  0.0000000  0.6508444  3
   5565   5569   5571   5573     1  0.0000000  0.6508444  3
   5569   5570   5581   5584     1  0.0000000  0.6508444  3
   5569   5571   5573   5577     1  0.0000000  0.6508444  3
   5570   5581   5584   5585     1  180.0000771  0.0000000  2
   5570   5581   5584   5633     1  180.0000771  0.0000000  2
   5570   5569   5571   5573     1  0.0000000  0.6508444  3
   5571   5573   5577   5578     1  180.0000771  0.0000000  2
   5571   5573   5577   5609     1  180.0000771  0.0000000  2
   5571   5569   5570   5581     1  0.0000000  0.6508444  3
   5573   5577   5609   5590     1  180.0000771  6.0668000  2
   5573   5577   5609   5590     1  180.0000771  1.4644000  4
   5577   5609   5590   5591     1  0.0000000  1.2552000  3
   5577   5609   5590   5589     1  0.0000000  1.2552000  3
   5578   5577   5609   5590     1  180.0000771  6.0668000  2
   5578   5577   5609   5590     1  180.0000771  1.4644000  4
   5581   5584   5633   5614     1  180.0000771  6.0668000  2
   5581   5584   5633   5614     1  180.0000771  1.4644000  4
   5584   5633   5614   5615     1  0.0000000  1.2552000  3
   5584   5633   5614   5613     1  0.0000000  1.2552000  3
   5585   5584   5633   5614     1  180.0000771  6.0668000  2
   5585   5584   5633   5614     1  180.0000771  1.4644000  4
   5586   5587   5589   5590     1  180.0000771  0.8368000  1
   5586   5587   5589   5590     1  180.0000771  1.0460000  2
   5586   5587   5589   5590     1  0.0000000  0.7531200  3
   5586   5587   5589   5596     1  0.0000000  0.6508444  3
   5586   5604   5591   5595     1  0.0000000  1.6038667  3
   5586   5604   5591   5590     1  180.0000771  0.4184000  2
   5586   5604   5591   5590     1  0.0000000  1.6024720  3
   5587   5589   5590   5591     1  180.0000771  0.8368000  1
   5587   5589   5590   5591     1  180.0000771  1.0460000  2
   5587   5589   5590   5591     1  0.0000000  0.7531200  3
   5587   5589   5590   5609     1  0.0000000  0.6508444  3
   5587   5586   5597   5602     1  0.0000000  0.6508444  3
   5587   5586   5604   5591     1  180.0000771  0.4184000  2
   5587   5586   5604   5591     1  0.0000000  1.6024720  3
   5589   5590   5591   5595     1  0.0000000  0.6508444  3
   5589   5590   5591   5604     1  0.0000000  0.6508444  3
   5589   5587   5586   5597     1  180.0000771  0.8368000  1
   5589   5587   5586   5597     1  180.0000771  1.0460000  2
   5589   5587   5586   5597     1  0.0000000  0.7531200  3
   5589   5587   5586   5604     1  0.0000000  0.6508444  3
   5590   5589   5587   5607     1  0.0000000  0.6508444  3
   5591   5604   5586   5597     1  180.0000771  0.4184000  2
   5591   5604   5586   5597     1  0.0000000  1.6024720  3
   5591   5590   5589   5596     1  0.0000000  0.6508444  3
   5595   5591   5590   5609     1  0.0000000  0.6508444  3
   5596   5589   5590   5609     1  0.0000000  0.6508444  3
   5596   5589   5587   5607     1  0.0000000  4.9162000  2
   5596   5589   5587   5607     1  0.0000000  0.6024960  3
   5597   5586   5587   5607     1  0.0000000  0.6508444  3
   5602   5597   5586   5604     1  0.0000000  4.9162000  2
   5602   5597   5586   5604     1  0.0000000  0.6024960  3
   5604   5591   5590   5609     1  0.0000000  0.6508444  3
   5604   5586   5587   5607     1  0.0000000  4.9162000  2
   5604   5586   5587   5607     1  0.0000000  0.6024960  3
   5610   5611   5613   5614     1  180.0000771  0.8368000  1
   5610   5611   5613   5614     1  180.0000771  1.0460000  2
   5610   5611   5613   5614     1  0.0000000  0.7531200  3
   5610   5611   5613   5620     1  0.0000000  0.6508444  3
   5610   5628   5615   5619     1  0.0000000  1.6038667  3
   5610   5628   5615   5614     1  180.0000771  0.4184000  2
   5610   5628   5615   5614     1  0.0000000  1.6024720  3
   5611   5613   5614   5615     1  180.0000771  0.8368000  1
   5611   5613   5614   5615     1  180.0000771  1.0460000  2
   5611   5613   5614   5615     1  0.0000000  0.7531200  3
   5611   5613   5614   5633     1  0.0000000  0.6508444  3
   5611   5610   5621   5626     1  0.0000000  0.6508444  3
   5611   5610   5628   5615     1  180.0000771  0.4184000  2
   5611   5610   5628   5615     1  0.0000000  1.6024720  3
   5613   5614   5615   5619     1  0.0000000  0.6508444  3
   5613   5614   5615   5628     1  0.0000000  0.6508444  3
   5613   5611   5610   5621     1  180.0000771  0.8368000  1
   5613   5611   5610   5621     1  180.0000771  1.0460000  2
   5613   5611   5610   5621     1  0.0000000  0.7531200  3
   5613   5611   5610   5628     1  0.0000000  0.6508444  3
   5614   5613   5611   5631     1  0.0000000  0.6508444  3
   5615   5628   5610   5621     1  180.0000771  0.4184000  2
   5615   5628   5610   5621     1  0.0000000  1.6024720  3
   5615   5614   5613   5620     1  0.0000000  0.6508444  3
   5619   5615   5614   5633     1  0.0000000  0.6508444  3
   5620   5613   5614   5633     1  0.0000000  0.6508444  3
   5620   5613   5611   5631     1  0.0000000  4.9162000  2
   5620   5613   5611   5631     1  0.0000000  0.6024960  3
   5621   5610   5611   5631     1  0.0000000  0.6508444  3
   5626   5621   5610   5628     1  0.0000000  4.9162000  2
   5626   5621   5610   5628     1  0.0000000  0.6024960  3
   5628   5615   5614   5633     1  0.0000000  0.6508444  3
   5628   5610   5611   5631     1  0.0000000  4.9162000  2
   5628   5610   5611   5631     1  0.0000000  0.6024960  3
   5635   5637   5639   5643     1  0.0000000  0.6508444  3
   5637   5639   5643   5644     1  0.0000000  0.6508444  3
   5637   5639   5643   5645     1  0.0000000  0.6508444  3
   5639   5643   5644   5655     1  0.0000000  0.6508444  3
   5639   5643   5645   5647     1  0.0000000  0.6508444  3
   5643   5644   5655   5658     1  0.0000000  0.6508444  3
   5643   5645   5647   5651     1  0.0000000  0.6508444  3
   5644   5643   5645   5647     1  0.0000000  0.6508444  3
   5644   5655   5658   5659     1  180.0000771  0.0000000  2
   5644   5655   5658   5707     1  180.0000771  0.0000000  2
   5645   5643   5644   5655     1  0.0000000  0.6508444  3
   5645   5647   5651   5652     1  180.0000771  0.0000000  2
   5645   5647   5651   5683     1  180.0000771  0.0000000  2
   5647   5651   5683   5664     1  180.0000771  6.0668000  2
   5647   5651   5683   5664     1  180.0000771  1.4644000  4
   5651   5683   5664   5663     1  0.0000000  1.2552000  3
   5651   5683   5664   5665     1  0.0000000  1.2552000  3
   5652   5651   5683   5664     1  180.0000771  6.0668000  2
   5652   5651   5683   5664     1  180.0000771  1.4644000  4
   5655   5658   5707   5688     1  180.0000771  6.0668000  2
   5655   5658   5707   5688     1  180.0000771  1.4644000  4
   5658   5707   5688   5687     1  0.0000000  1.2552000  3
   5658   5707   5688   5689     1  0.0000000  1.2552000  3
   5659   5658   5707   5688     1  180.0000771  6.0668000  2
   5659   5658   5707   5688     1  180.0000771  1.4644000  4
   5660   5661   5663   5664     1  180.0000771  0.8368000  1
   5660   5661   5663   5664     1  180.0000771  1.0460000  2
   5660   5661   5663   5664     1  0.0000000  0.7531200  3
   5660   5661   5663   5670     1  0.0000000  0.6508444  3
   5660   5678   5665   5664     1  180.0000771  0.4184000  2
   5660   5678   5665   5664     1  0.0000000  1.6024720  3
   5660   5678   5665   5669     1  0.0000000  1.6038667  3
   5661   5660   5671   5676     1  0.0000000  0.6508444  3
   5661   5660   5678   5665     1  180.0000771  0.4184000  2
   5661   5660   5678   5665     1  0.0000000  1.6024720  3
   5661   5663   5664   5665     1  180.0000771  0.8368000  1
   5661   5663   5664   5665     1  180.0000771  1.0460000  2
   5661   5663   5664   5665     1  0.0000000  0.7531200  3
   5661   5663   5664   5683     1  0.0000000  0.6508444  3
   5663   5661   5660   5671     1  180.0000771  0.8368000  1
   5663   5661   5660   5671     1  180.0000771  1.0460000  2
   5663   5661   5660   5671     1  0.0000000  0.7531200  3
   5663   5661   5660   5678     1  0.0000000  0.6508444  3
   5663   5664   5665   5669     1  0.0000000  0.6508444  3
   5663   5664   5665   5678     1  0.0000000  0.6508444  3
   5664   5663   5661   5681     1  0.0000000  0.6508444  3
   5665   5664   5663   5670     1  0.0000000  0.6508444  3
   5665   5678   5660   5671     1  180.0000771  0.4184000  2
   5665   5678   5660   5671     1  0.0000000  1.6024720  3
   5669   5665   5664   5683     1  0.0000000  0.6508444  3
   5670   5663   5661   5681     1  0.0000000  4.9162000  2
   5670   5663   5661   5681     1  0.0000000  0.6024960  3
   5670   5663   5664   5683     1  0.0000000  0.6508444  3
   5671   5660   5661   5681     1  0.0000000  0.6508444  3
   5676   5671   5660   5678     1  0.0000000  4.9162000  2
   5676   5671   5660   5678     1  0.0000000  0.6024960  3
   5678   5660   5661   5681     1  0.0000000  4.9162000  2
   5678   5660   5661   5681     1  0.0000000  0.6024960  3
   5678   5665   5664   5683     1  0.0000000  0.6508444  3
   5684   5685   5687   5688     1  180.0000771  0.8368000  1
   5684   5685   5687   5688     1  180.0000771  1.0460000  2
   5684   5685   5687   5688     1  0.0000000  0.7531200  3
   5684   5685   5687   5694     1  0.0000000  0.6508444  3
   5684   5702   5689   5688     1  180.0000771  0.4184000  2
   5684   5702   5689   5688     1  0.0000000  1.6024720  3
   5684   5702   5689   5693     1  0.0000000  1.6038667  3
   5685   5684   5695   5700     1  0.0000000  0.6508444  3
   5685   5684   5702   5689     1  180.0000771  0.4184000  2
   5685   5684   5702   5689     1  0.0000000  1.6024720  3
   5685   5687   5688   5689     1  180.0000771  0.8368000  1
   5685   5687   5688   5689     1  180.0000771  1.0460000  2
   5685   5687   5688   5689     1  0.0000000  0.7531200  3
   5685   5687   5688   5707     1  0.0000000  0.6508444  3
   5687   5685   5684   5695     1  180.0000771  0.8368000  1
   5687   5685   5684   5695     1  180.0000771  1.0460000  2
   5687   5685   5684   5695     1  0.0000000  0.7531200  3
   5687   5685   5684   5702     1  0.0000000  0.6508444  3
   5687   5688   5689   5693     1  0.0000000  0.6508444  3
   5687   5688   5689   5702     1  0.0000000  0.6508444  3
   5688   5687   5685   5705     1  0.0000000  0.6508444  3
   5689   5688   5687   5694     1  0.0000000  0.6508444  3
   5689   5702   5684   5695     1  180.0000771  0.4184000  2
   5689   5702   5684   5695     1  0.0000000  1.6024720  3
   5693   5689   5688   5707     1  0.0000000  0.6508444  3
   5694   5687   5685   5705     1  0.0000000  4.9162000  2
   5694   5687   5685   5705     1  0.0000000  0.6024960  3
   5694   5687   5688   5707     1  0.0000000  0.6508444  3
   5695   5684   5685   5705     1  0.0000000  0.6508444  3
   5700   5695   5684   5702     1  0.0000000  4.9162000  2
   5700   5695   5684   5702     1  0.0000000  0.6024960  3
   5702   5684   5685   5705     1  0.0000000  4.9162000  2
   5702   5684   5685   5705     1  0.0000000  0.6024960  3
   5702   5689   5688   5707     1  0.0000000  0.6508444  3
   5709   5711   5713   5717     1  0.0000000  0.6508444  3
   5711   5713   5717   5718     1  0.0000000  0.6508444  3
   5711   5713   5717   5719     1  0.0000000  0.6508444  3
   5713   5717   5718   5729     1  0.0000000  0.6508444  3
   5713   5717   5719   5721     1  0.0000000  0.6508444  3
   5717   5718   5729   5732     1  0.0000000  0.6508444  3
   5717   5719   5721   5725     1  0.0000000  0.6508444  3
   5718   5729   5732   5733     1  180.0000771  0.0000000  2
   5718   5729   5732   5781     1  180.0000771  0.0000000  2
   5718   5717   5719   5721     1  0.0000000  0.6508444  3
   5719   5721   5725   5726     1  180.0000771  0.0000000  2
   5719   5721   5725   5757     1  180.0000771  0.0000000  2
   5719   5717   5718   5729     1  0.0000000  0.6508444  3
   5721   5725   5757   5738     1  180.0000771  6.0668000  2
   5721   5725   5757   5738     1  180.0000771  1.4644000  4
   5725   5757   5738   5739     1  0.0000000  1.2552000  3
   5725   5757   5738   5737     1  0.0000000  1.2552000  3
   5726   5725   5757   5738     1  180.0000771  6.0668000  2
   5726   5725   5757   5738     1  180.0000771  1.4644000  4
   5729   5732   5781   5762     1  180.0000771  6.0668000  2
   5729   5732   5781   5762     1  180.0000771  1.4644000  4
   5732   5781   5762   5763     1  0.0000000  1.2552000  3
   5732   5781   5762   5761     1  0.0000000  1.2552000  3
   5733   5732   5781   5762     1  180.0000771  6.0668000  2
   5733   5732   5781   5762     1  180.0000771  1.4644000  4
   5734   5735   5737   5738     1  180.0000771  0.8368000  1
   5734   5735   5737   5738     1  180.0000771  1.0460000  2
   5734   5735   5737   5738     1  0.0000000  0.7531200  3
   5734   5735   5737   5744     1  0.0000000  0.6508444  3
   5734   5752   5739   5743     1  0.0000000  1.6038667  3
   5734   5752   5739   5738     1  180.0000771  0.4184000  2
   5734   5752   5739   5738     1  0.0000000  1.6024720  3
   5735   5737   5738   5739     1  180.0000771  0.8368000  1
   5735   5737   5738   5739     1  180.0000771  1.0460000  2
   5735   5737   5738   5739     1  0.0000000  0.7531200  3
   5735   5737   5738   5757     1  0.0000000  0.6508444  3
   5735   5734   5745   5750     1  0.0000000  0.6508444  3
   5735   5734   5752   5739     1  180.0000771  0.4184000  2
   5735   5734   5752   5739     1  0.0000000  1.6024720  3
   5737   5738   5739   5743     1  0.0000000  0.6508444  3
   5737   5738   5739   5752     1  0.0000000  0.6508444  3
   5737   5735   5734   5745     1  180.0000771  0.8368000  1
   5737   5735   5734   5745     1  180.0000771  1.0460000  2
   5737   5735   5734   5745     1  0.0000000  0.7531200  3
   5737   5735   5734   5752     1  0.0000000  0.6508444  3
   5738   5737   5735   5755     1  0.0000000  0.6508444  3
   5739   5752   5734   5745     1  180.0000771  0.4184000  2
   5739   5752   5734   5745     1  0.0000000  1.6024720  3
   5739   5738   5737   5744     1  0.0000000  0.6508444  3
   5743   5739   5738   5757     1  0.0000000  0.6508444  3
   5744   5737   5738   5757     1  0.0000000  0.6508444  3
   5744   5737   5735   5755     1  0.0000000  4.9162000  2
   5744   5737   5735   5755     1  0.0000000  0.6024960  3
   5745   5734   5735   5755     1  0.0000000  0.6508444  3
   5750   5745   5734   5752     1  0.0000000  4.9162000  2
   5750   5745   5734   5752     1  0.0000000  0.6024960  3
   5752   5739   5738   5757     1  0.0000000  0.6508444  3
   5752   5734   5735   5755     1  0.0000000  4.9162000  2
   5752   5734   5735   5755     1  0.0000000  0.6024960  3
   5758   5759   5761   5762     1  180.0000771  0.8368000  1
   5758   5759   5761   5762     1  180.0000771  1.0460000  2
   5758   5759   5761   5762     1  0.0000000  0.7531200  3
   5758   5759   5761   5768     1  0.0000000  0.6508444  3
   5758   5776   5763   5767     1  0.0000000  1.6038667  3
   5758   5776   5763   5762     1  180.0000771  0.4184000  2
   5758   5776   5763   5762     1  0.0000000  1.6024720  3
   5759   5761   5762   5763     1  180.0000771  0.8368000  1
   5759   5761   5762   5763     1  180.0000771  1.0460000  2
   5759   5761   5762   5763     1  0.0000000  0.7531200  3
   5759   5761   5762   5781     1  0.0000000  0.6508444  3
   5759   5758   5769   5774     1  0.0000000  0.6508444  3
   5759   5758   5776   5763     1  180.0000771  0.4184000  2
   5759   5758   5776   5763     1  0.0000000  1.6024720  3
   5761   5762   5763   5767     1  0.0000000  0.6508444  3
   5761   5762   5763   5776     1  0.0000000  0.6508444  3
   5761   5759   5758   5769     1  180.0000771  0.8368000  1
   5761   5759   5758   5769     1  180.0000771  1.0460000  2
   5761   5759   5758   5769     1  0.0000000  0.7531200  3
   5761   5759   5758   5776     1  0.0000000  0.6508444  3
   5762   5761   5759   5779     1  0.0000000  0.6508444  3
   5763   5776   5758   5769     1  180.0000771  0.4184000  2
   5763   5776   5758   5769     1  0.0000000  1.6024720  3
   5763   5762   5761   5768     1  0.0000000  0.6508444  3
   5767   5763   5762   5781     1  0.0000000  0.6508444  3
   5768   5761   5762   5781     1  0.0000000  0.6508444  3
   5768   5761   5759   5779     1  0.0000000  4.9162000  2
   5768   5761   5759   5779     1  0.0000000  0.6024960  3
   5769   5758   5759   5779     1  0.0000000  0.6508444  3
   5774   5769   5758   5776     1  0.0000000  4.9162000  2
   5774   5769   5758   5776     1  0.0000000  0.6024960  3
   5776   5763   5762   5781     1  0.0000000  0.6508444  3
   5776   5758   5759   5779     1  0.0000000  4.9162000  2
   5776   5758   5759   5779     1  0.0000000  0.6024960  3
   5783   5785   5787   5791     1  0.0000000  0.6508444  3
   5785   5787   5791   5792     1  0.0000000  0.6508444  3
   5785   5787   5791   5793     1  0.0000000  0.6508444  3
   5787   5791   5792   5803     1  0.0000000  0.6508444  3
   5787   5791   5793   5795     1  0.0000000  0.6508444  3
   5791   5792   5803   5806     1  0.0000000  0.6508444  3
   5791   5793   5795   5799     1  0.0000000  0.6508444  3
   5792   5791   5793   5795     1  0.0000000  0.6508444  3
   5792   5803   5806   5807     1  180.0000771  0.0000000  2
   5792   5803   5806   5855     1  180.0000771  0.0000000  2
   5793   5791   5792   5803     1  0.0000000  0.6508444  3
   5793   5795   5799   5800     1  180.0000771  0.0000000  2
   5793   5795   5799   5831     1  180.0000771  0.0000000  2
   5795   5799   5831   5812     1  180.0000771  6.0668000  2
   5795   5799   5831   5812     1  180.0000771  1.4644000  4
   5799   5831   5812   5811     1  0.0000000  1.2552000  3
   5799   5831   5812   5813     1  0.0000000  1.2552000  3
   5800   5799   5831   5812     1  180.0000771  6.0668000  2
   5800   5799   5831   5812     1  180.0000771  1.4644000  4
   5803   5806   5855   5836     1  180.0000771  6.0668000  2
   5803   5806   5855   5836     1  180.0000771  1.4644000  4
   5806   5855   5836   5835     1  0.0000000  1.2552000  3
   5806   5855   5836   5837     1  0.0000000  1.2552000  3
   5807   5806   5855   5836     1  180.0000771  6.0668000  2
   5807   5806   5855   5836     1  180.0000771  1.4644000  4
   5808   5809   5811   5812     1  180.0000771  0.8368000  1
   5808   5809   5811   5812     1  180.0000771  1.0460000  2
   5808   5809   5811   5812     1  0.0000000  0.7531200  3
   5808   5809   5811   5818     1  0.0000000  0.6508444  3
   5808   5826   5813   5812     1  180.0000771  0.4184000  2
   5808   5826   5813   5812     1  0.0000000  1.6024720  3
   5808   5826   5813   5817     1  0.0000000  1.6038667  3
   5809   5808   5819   5824     1  0.0000000  0.6508444  3
   5809   5808   5826   5813     1  180.0000771  0.4184000  2
   5809   5808   5826   5813     1  0.0000000  1.6024720  3
   5809   5811   5812   5813     1  180.0000771  0.8368000  1
   5809   5811   5812   5813     1  180.0000771  1.0460000  2
   5809   5811   5812   5813     1  0.0000000  0.7531200  3
   5809   5811   5812   5831     1  0.0000000  0.6508444  3
   5811   5809   5808   5819     1  180.0000771  0.8368000  1
   5811   5809   5808   5819     1  180.0000771  1.0460000  2
   5811   5809   5808   5819     1  0.0000000  0.7531200  3
   5811   5809   5808   5826     1  0.0000000  0.6508444  3
   5811   5812   5813   5817     1  0.0000000  0.6508444  3
   5811   5812   5813   5826     1  0.0000000  0.6508444  3
   5812   5811   5809   5829     1  0.0000000  0.6508444  3
   5813   5812   5811   5818     1  0.0000000  0.6508444  3
   5813   5826   5808   5819     1  180.0000771  0.4184000  2
   5813   5826   5808   5819     1  0.0000000  1.6024720  3
   5817   5813   5812   5831     1  0.0000000  0.6508444  3
   5818   5811   5809   5829     1  0.0000000  4.9162000  2
   5818   5811   5809   5829     1  0.0000000  0.6024960  3
   5818   5811   5812   5831     1  0.0000000  0.6508444  3
   5819   5808   5809   5829     1  0.0000000  0.6508444  3
   5824   5819   5808   5826     1  0.0000000  4.9162000  2
   5824   5819   5808   5826     1  0.0000000  0.6024960  3
   5826   5808   5809   5829     1  0.0000000  4.9162000  2
   5826   5808   5809   5829     1  0.0000000  0.6024960  3
   5826   5813   5812   5831     1  0.0000000  0.6508444  3
   5832   5833   5835   5836     1  180.0000771  0.8368000  1
   5832   5833   5835   5836     1  180.0000771  1.0460000  2
   5832   5833   5835   5836     1  0.0000000  0.7531200  3
   5832   5833   5835   5842     1  0.0000000  0.6508444  3
   5832   5850   5837   5836     1  180.0000771  0.4184000  2
   5832   5850   5837   5836     1  0.0000000  1.6024720  3
   5832   5850   5837   5841     1  0.0000000  1.6038667  3
   5833   5832   5843   5848     1  0.0000000  0.6508444  3
   5833   5832   5850   5837     1  180.0000771  0.4184000  2
   5833   5832   5850   5837     1  0.0000000  1.6024720  3
   5833   5835   5836   5837     1  180.0000771  0.8368000  1
   5833   5835   5836   5837     1  180.0000771  1.0460000  2
   5833   5835   5836   5837     1  0.0000000  0.7531200  3
   5833   5835   5836   5855     1  0.0000000  0.6508444  3
   5835   5833   5832   5843     1  180.0000771  0.8368000  1
   5835   5833   5832   5843     1  180.0000771  1.0460000  2
   5835   5833   5832   5843     1  0.0000000  0.7531200  3
   5835   5833   5832   5850     1  0.0000000  0.6508444  3
   5835   5836   5837   5841     1  0.0000000  0.6508444  3
   5835   5836   5837   5850     1  0.0000000  0.6508444  3
   5836   5835   5833   5853     1  0.0000000  0.6508444  3
   5837   5836   5835   5842     1  0.0000000  0.6508444  3
   5837   5850   5832   5843     1  180.0000771  0.4184000  2
   5837   5850   5832   5843     1  0.0000000  1.6024720  3
   5841   5837   5836   5855     1  0.0000000  0.6508444  3
   5842   5835   5833   5853     1  0.0000000  4.9162000  2
   5842   5835   5833   5853     1  0.0000000  0.6024960  3
   5842   5835   5836   5855     1  0.0000000  0.6508444  3
   5843   5832   5833   5853     1  0.0000000  0.6508444  3
   5848   5843   5832   5850     1  0.0000000  4.9162000  2
   5848   5843   5832   5850     1  0.0000000  0.6024960  3
   5850   5832   5833   5853     1  0.0000000  4.9162000  2
   5850   5832   5833   5853     1  0.0000000  0.6024960  3
   5850   5837   5836   5855     1  0.0000000  0.6508444  3
   5857   5859   5861   5865     1  0.0000000  0.6508444  3
   5859   5861   5865   5866     1  0.0000000  0.6508444  3
   5859   5861   5865   5867     1  0.0000000  0.6508444  3
   5861   5865   5866   5877     1  0.0000000  0.6508444  3
   5861   5865   5867   5869     1  0.0000000  0.6508444  3
   5865   5866   5877   5880     1  0.0000000  0.6508444  3
   5865   5867   5869   5873     1  0.0000000  0.6508444  3
   5866   5877   5880   5881     1  180.0000771  0.0000000  2
   5866   5877   5880   5929     1  180.0000771  0.0000000  2
   5866   5865   5867   5869     1  0.0000000  0.6508444  3
   5867   5869   5873   5874     1  180.0000771  0.0000000  2
   5867   5869   5873   5905     1  180.0000771  0.0000000  2
   5867   5865   5866   5877     1  0.0000000  0.6508444  3
   5869   5873   5905   5886     1  180.0000771  6.0668000  2
   5869   5873   5905   5886     1  180.0000771  1.4644000  4
   5873   5905   5886   5887     1  0.0000000  1.2552000  3
   5873   5905   5886   5885     1  0.0000000  1.2552000  3
   5874   5873   5905   5886     1  180.0000771  6.0668000  2
   5874   5873   5905   5886     1  180.0000771  1.4644000  4
   5877   5880   5929   5910     1  180.0000771  6.0668000  2
   5877   5880   5929   5910     1  180.0000771  1.4644000  4
   5880   5929   5910   5911     1  0.0000000  1.2552000  3
   5880   5929   5910   5909     1  0.0000000  1.2552000  3
   5881   5880   5929   5910     1  180.0000771  6.0668000  2
   5881   5880   5929   5910     1  180.0000771  1.4644000  4
   5882   5883   5885   5886     1  180.0000771  0.8368000  1
   5882   5883   5885   5886     1  180.0000771  1.0460000  2
   5882   5883   5885   5886     1  0.0000000  0.7531200  3
   5882   5883   5885   5892     1  0.0000000  0.6508444  3
   5882   5900   5887   5891     1  0.0000000  1.6038667  3
   5882   5900   5887   5886     1  180.0000771  0.4184000  2
   5882   5900   5887   5886     1  0.0000000  1.6024720  3
   5883   5885   5886   5887     1  180.0000771  0.8368000  1
   5883   5885   5886   5887     1  180.0000771  1.0460000  2
   5883   5885   5886   5887     1  0.0000000  0.7531200  3
   5883   5885   5886   5905     1  0.0000000  0.6508444  3
   5883   5882   5893   5898     1  0.0000000  0.6508444  3
   5883   5882   5900   5887     1  180.0000771  0.4184000  2
   5883   5882   5900   5887     1  0.0000000  1.6024720  3
   5885   5886   5887   5891     1  0.0000000  0.6508444  3
   5885   5886   5887   5900     1  0.0000000  0.6508444  3
   5885   5883   5882   5893     1  180.0000771  0.8368000  1
   5885   5883   5882   5893     1  180.0000771  1.0460000  2
   5885   5883   5882   5893     1  0.0000000  0.7531200  3
   5885   5883   5882   5900     1  0.0000000  0.6508444  3
   5886   5885   5883   5903     1  0.0000000  0.6508444  3
   5887   5900   5882   5893     1  180.0000771  0.4184000  2
   5887   5900   5882   5893     1  0.0000000  1.6024720  3
   5887   5886   5885   5892     1  0.0000000  0.6508444  3
   5891   5887   5886   5905     1  0.0000000  0.6508444  3
   5892   5885   5886   5905     1  0.0000000  0.6508444  3
   5892   5885   5883   5903     1  0.0000000  4.9162000  2
   5892   5885   5883   5903     1  0.0000000  0.6024960  3
   5893   5882   5883   5903     1  0.0000000  0.6508444  3
   5898   5893   5882   5900     1  0.0000000  4.9162000  2
   5898   5893   5882   5900     1  0.0000000  0.6024960  3
   5900   5887   5886   5905     1  0.0000000  0.6508444  3
   5900   5882   5883   5903     1  0.0000000  4.9162000  2
   5900   5882   5883   5903     1  0.0000000  0.6024960  3
   5906   5907   5909   5910     1  180.0000771  0.8368000  1
   5906   5907   5909   5910     1  180.0000771  1.0460000  2
   5906   5907   5909   5910     1  0.0000000  0.7531200  3
   5906   5907   5909   5916     1  0.0000000  0.6508444  3
   5906   5924   5911   5915     1  0.0000000  1.6038667  3
   5906   5924   5911   5910     1  180.0000771  0.4184000  2
   5906   5924   5911   5910     1  0.0000000  1.6024720  3
   5907   5909   5910   5911     1  180.0000771  0.8368000  1
   5907   5909   5910   5911     1  180.0000771  1.0460000  2
   5907   5909   5910   5911     1  0.0000000  0.7531200  3
   5907   5909   5910   5929     1  0.0000000  0.6508444  3
   5907   5906   5917   5922     1  0.0000000  0.6508444  3
   5907   5906   5924   5911     1  180.0000771  0.4184000  2
   5907   5906   5924   5911     1  0.0000000  1.6024720  3
   5909   5910   5911   5915     1  0.0000000  0.6508444  3
   5909   5910   5911   5924     1  0.0000000  0.6508444  3
   5909   5907   5906   5917     1  180.0000771  0.8368000  1
   5909   5907   5906   5917     1  180.0000771  1.0460000  2
   5909   5907   5906   5917     1  0.0000000  0.7531200  3
   5909   5907   5906   5924     1  0.0000000  0.6508444  3
   5910   5909   5907   5927     1  0.0000000  0.6508444  3
   5911   5924   5906   5917     1  180.0000771  0.4184000  2
   5911   5924   5906   5917     1  0.0000000  1.6024720  3
   5911   5910   5909   5916     1  0.0000000  0.6508444  3
   5915   5911   5910   5929     1  0.0000000  0.6508444  3
   5916   5909   5910   5929     1  0.0000000  0.6508444  3
   5916   5909   5907   5927     1  0.0000000  4.9162000  2
   5916   5909   5907   5927     1  0.0000000  0.6024960  3
   5917   5906   5907   5927     1  0.0000000  0.6508444  3
   5922   5917   5906   5924     1  0.0000000  4.9162000  2
   5922   5917   5906   5924     1  0.0000000  0.6024960  3
   5924   5911   5910   5929     1  0.0000000  0.6508444  3
   5924   5906   5907   5927     1  0.0000000  4.9162000  2
   5924   5906   5907   5927     1  0.0000000  0.6024960  3
   5931   5933   5935   5939     1  0.0000000  0.6508444  3
   5933   5935   5939   5940     1  0.0000000  0.6508444  3
   5933   5935   5939   5941     1  0.0000000  0.6508444  3
   5935   5939   5940   5951     1  0.0000000  0.6508444  3
   5935   5939   5941   5943     1  0.0000000  0.6508444  3
   5939   5940   5951   5954     1  0.0000000  0.6508444  3
   5939   5941   5943   5947     1  0.0000000  0.6508444  3
   5940   5939   5941   5943     1  0.0000000  0.6508444  3
   5940   5951   5954   5955     1  180.0000771  0.0000000  2
   5940   5951   5954   6003     1  180.0000771  0.0000000  2
   5941   5939   5940   5951     1  0.0000000  0.6508444  3
   5941   5943   5947   5948     1  180.0000771  0.0000000  2
   5941   5943   5947   5979     1  180.0000771  0.0000000  2
   5943   5947   5979   5960     1  180.0000771  6.0668000  2
   5943   5947   5979   5960     1  180.0000771  1.4644000  4
   5947   5979   5960   5959     1  0.0000000  1.2552000  3
   5947   5979   5960   5961     1  0.0000000  1.2552000  3
   5948   5947   5979   5960     1  180.0000771  6.0668000  2
   5948   5947   5979   5960     1  180.0000771  1.4644000  4
   5951   5954   6003   5984     1  180.0000771  6.0668000  2
   5951   5954   6003   5984     1  180.0000771  1.4644000  4
   5954   6003   5984   5983     1  0.0000000  1.2552000  3
   5954   6003   5984   5985     1  0.0000000  1.2552000  3
   5955   5954   6003   5984     1  180.0000771  6.0668000  2
   5955   5954   6003   5984     1  180.0000771  1.4644000  4
   5956   5957   5959   5960     1  180.0000771  0.8368000  1
   5956   5957   5959   5960     1  180.0000771  1.0460000  2
   5956   5957   5959   5960     1  0.0000000  0.7531200  3
   5956   5957   5959   5966     1  0.0000000  0.6508444  3
   5956   5974   5961   5960     1  180.0000771  0.4184000  2
   5956   5974   5961   5960     1  0.0000000  1.6024720  3
   5956   5974   5961   5965     1  0.0000000  1.6038667  3
   5957   5956   5967   5972     1  0.0000000  0.6508444  3
   5957   5956   5974   5961     1  180.0000771  0.4184000  2
   5957   5956   5974   5961     1  0.0000000  1.6024720  3
   5957   5959   5960   5961     1  180.0000771  0.8368000  1
   5957   5959   5960   5961     1  180.0000771  1.0460000  2
   5957   5959   5960   5961     1  0.0000000  0.7531200  3
   5957   5959   5960   5979     1  0.0000000  0.6508444  3
   5959   5957   5956   5967     1  180.0000771  0.8368000  1
   5959   5957   5956   5967     1  180.0000771  1.0460000  2
   5959   5957   5956   5967     1  0.0000000  0.7531200  3
   5959   5957   5956   5974     1  0.0000000  0.6508444  3
   5959   5960   5961   5965     1  0.0000000  0.6508444  3
   5959   5960   5961   5974     1  0.0000000  0.6508444  3
   5960   5959   5957   5977     1  0.0000000  0.6508444  3
   5961   5960   5959   5966     1  0.0000000  0.6508444  3
   5961   5974   5956   5967     1  180.0000771  0.4184000  2
   5961   5974   5956   5967     1  0.0000000  1.6024720  3
   5965   5961   5960   5979     1  0.0000000  0.6508444  3
   5966   5959   5957   5977     1  0.0000000  4.9162000  2
   5966   5959   5957   5977     1  0.0000000  0.6024960  3
   5966   5959   5960   5979     1  0.0000000  0.6508444  3
   5967   5956   5957   5977     1  0.0000000  0.6508444  3
   5972   5967   5956   5974     1  0.0000000  4.9162000  2
   5972   5967   5956   5974     1  0.0000000  0.6024960  3
   5974   5956   5957   5977     1  0.0000000  4.9162000  2
   5974   5956   5957   5977     1  0.0000000  0.6024960  3
   5974   5961   5960   5979     1  0.0000000  0.6508444  3
   5980   5981   5983   5984     1  180.0000771  0.8368000  1
   5980   5981   5983   5984     1  180.0000771  1.0460000  2
   5980   5981   5983   5984     1  0.0000000  0.7531200  3
   5980   5981   5983   5990     1  0.0000000  0.6508444  3
   5980   5998   5985   5984     1  180.0000771  0.4184000  2
   5980   5998   5985   5984     1  0.0000000  1.6024720  3
   5980   5998   5985   5989     1  0.0000000  1.6038667  3
   5981   5980   5991   5996     1  0.0000000  0.6508444  3
   5981   5980   5998   5985     1  180.0000771  0.4184000  2
   5981   5980   5998   5985     1  0.0000000  1.6024720  3
   5981   5983   5984   5985     1  180.0000771  0.8368000  1
   5981   5983   5984   5985     1  180.0000771  1.0460000  2
   5981   5983   5984   5985     1  0.0000000  0.7531200  3
   5981   5983   5984   6003     1  0.0000000  0.6508444  3
   5983   5981   5980   5991     1  180.0000771  0.8368000  1
   5983   5981   5980   5991     1  180.0000771  1.0460000  2
   5983   5981   5980   5991     1  0.0000000  0.7531200  3
   5983   5981   5980   5998     1  0.0000000  0.6508444  3
   5983   5984   5985   5989     1  0.0000000  0.6508444  3
   5983   5984   5985   5998     1  0.0000000  0.6508444  3
   5984   5983   5981   6001     1  0.0000000  0.6508444  3
   5985   5984   5983   5990     1  0.0000000  0.6508444  3
   5985   5998   5980   5991     1  180.0000771  0.4184000  2
   5985   5998   5980   5991     1  0.0000000  1.6024720  3
   5989   5985   5984   6003     1  0.0000000  0.6508444  3
   5990   5983   5981   6001     1  0.0000000  4.9162000  2
   5990   5983   5981   6001     1  0.0000000  0.6024960  3
   5990   5983   5984   6003     1  0.0000000  0.6508444  3
   5991   5980   5981   6001     1  0.0000000  0.6508444  3
   5996   5991   5980   5998     1  0.0000000  4.9162000  2
   5996   5991   5980   5998     1  0.0000000  0.6024960  3
   5998   5980   5981   6001     1  0.0000000  4.9162000  2
   5998   5980   5981   6001     1  0.0000000  0.6024960  3
   5998   5985   5984   6003     1  0.0000000  0.6508444  3
   6005   6007   6009   6013     1  0.0000000  0.6508444  3
   6007   6009   6013   6014     1  0.0000000  0.6508444  3
   6007   6009   6013   6015     1  0.0000000  0.6508444  3
   6009   6013   6014   6025     1  0.0000000  0.6508444  3
   6009   6013   6015   6017     1  0.0000000  0.6508444  3
   6013   6014   6025   6028     1  0.0000000  0.6508444  3
   6013   6015   6017   6021     1  0.0000000  0.6508444  3
   6014   6025   6028   6029     1  180.0000771  0.0000000  2
   6014   6025   6028   6077     1  180.0000771  0.0000000  2
   6014   6013   6015   6017     1  0.0000000  0.6508444  3
   6015   6017   6021   6022     1  180.0000771  0.0000000  2
   6015   6017   6021   6053     1  180.0000771  0.0000000  2
   6015   6013   6014   6025     1  0.0000000  0.6508444  3
   6017   6021   6053   6034     1  180.0000771  6.0668000  2
   6017   6021   6053   6034     1  180.0000771  1.4644000  4
   6021   6053   6034   6035     1  0.0000000  1.2552000  3
   6021   6053   6034   6033     1  0.0000000  1.2552000  3
   6022   6021   6053   6034     1  180.0000771  6.0668000  2
   6022   6021   6053   6034     1  180.0000771  1.4644000  4
   6025   6028   6077   6058     1  180.0000771  6.0668000  2
   6025   6028   6077   6058     1  180.0000771  1.4644000  4
   6028   6077   6058   6059     1  0.0000000  1.2552000  3
   6028   6077   6058   6057     1  0.0000000  1.2552000  3
   6029   6028   6077   6058     1  180.0000771  6.0668000  2
   6029   6028   6077   6058     1  180.0000771  1.4644000  4
   6030   6031   6033   6034     1  180.0000771  0.8368000  1
   6030   6031   6033   6034     1  180.0000771  1.0460000  2
   6030   6031   6033   6034     1  0.0000000  0.7531200  3
   6030   6031   6033   6040     1  0.0000000  0.6508444  3
   6030   6048   6035   6039     1  0.0000000  1.6038667  3
   6030   6048   6035   6034     1  180.0000771  0.4184000  2
   6030   6048   6035   6034     1  0.0000000  1.6024720  3
   6031   6033   6034   6035     1  180.0000771  0.8368000  1
   6031   6033   6034   6035     1  180.0000771  1.0460000  2
   6031   6033   6034   6035     1  0.0000000  0.7531200  3
   6031   6033   6034   6053     1  0.0000000  0.6508444  3
   6031   6030   6041   6046     1  0.0000000  0.6508444  3
   6031   6030   6048   6035     1  180.0000771  0.4184000  2
   6031   6030   6048   6035     1  0.0000000  1.6024720  3
   6033   6034   6035   6039     1  0.0000000  0.6508444  3
   6033   6034   6035   6048     1  0.0000000  0.6508444  3
   6033   6031   6030   6041     1  180.0000771  0.8368000  1
   6033   6031   6030   6041     1  180.0000771  1.0460000  2
   6033   6031   6030   6041     1  0.0000000  0.7531200  3
   6033   6031   6030   6048     1  0.0000000  0.6508444  3
   6034   6033   6031   6051     1  0.0000000  0.6508444  3
   6035   6048   6030   6041     1  180.0000771  0.4184000  2
   6035   6048   6030   6041     1  0.0000000  1.6024720  3
   6035   6034   6033   6040     1  0.0000000  0.6508444  3
   6039   6035   6034   6053     1  0.0000000  0.6508444  3
   6040   6033   6034   6053     1  0.0000000  0.6508444  3
   6040   6033   6031   6051     1  0.0000000  4.9162000  2
   6040   6033   6031   6051     1  0.0000000  0.6024960  3
   6041   6030   6031   6051     1  0.0000000  0.6508444  3
   6046   6041   6030   6048     1  0.0000000  4.9162000  2
   6046   6041   6030   6048     1  0.0000000  0.6024960  3
   6048   6035   6034   6053     1  0.0000000  0.6508444  3
   6048   6030   6031   6051     1  0.0000000  4.9162000  2
   6048   6030   6031   6051     1  0.0000000  0.6024960  3
   6054   6055   6057   6058     1  180.0000771  0.8368000  1
   6054   6055   6057   6058     1  180.0000771  1.0460000  2
   6054   6055   6057   6058     1  0.0000000  0.7531200  3
   6054   6055   6057   6064     1  0.0000000  0.6508444  3
   6054   6072   6059   6063     1  0.0000000  1.6038667  3
   6054   6072   6059   6058     1  180.0000771  0.4184000  2
   6054   6072   6059   6058     1  0.0000000  1.6024720  3
   6055   6057   6058   6059     1  180.0000771  0.8368000  1
   6055   6057   6058   6059     1  180.0000771  1.0460000  2
   6055   6057   6058   6059     1  0.0000000  0.7531200  3
   6055   6057   6058   6077     1  0.0000000  0.6508444  3
   6055   6054   6065   6070     1  0.0000000  0.6508444  3
   6055   6054   6072   6059     1  180.0000771  0.4184000  2
   6055   6054   6072   6059     1  0.0000000  1.6024720  3
   6057   6058   6059   6063     1  0.0000000  0.6508444  3
   6057   6058   6059   6072     1  0.0000000  0.6508444  3
   6057   6055   6054   6065     1  180.0000771  0.8368000  1
   6057   6055   6054   6065     1  180.0000771  1.0460000  2
   6057   6055   6054   6065     1  0.0000000  0.7531200  3
   6057   6055   6054   6072     1  0.0000000  0.6508444  3
   6058   6057   6055   6075     1  0.0000000  0.6508444  3
   6059   6072   6054   6065     1  180.0000771  0.4184000  2
   6059   6072   6054   6065     1  0.0000000  1.6024720  3
   6059   6058   6057   6064     1  0.0000000  0.6508444  3
   6063   6059   6058   6077     1  0.0000000  0.6508444  3
   6064   6057   6058   6077     1  0.0000000  0.6508444  3
   6064   6057   6055   6075     1  0.0000000  4.9162000  2
   6064   6057   6055   6075     1  0.0000000  0.6024960  3
   6065   6054   6055   6075     1  0.0000000  0.6508444  3
   6070   6065   6054   6072     1  0.0000000  4.9162000  2
   6070   6065   6054   6072     1  0.0000000  0.6024960  3
   6072   6059   6058   6077     1  0.0000000  0.6508444  3
   6072   6054   6055   6075     1  0.0000000  4.9162000  2
   6072   6054   6055   6075     1  0.0000000  0.6024960  3
   6079   6081   6083   6087     1  0.0000000  0.6508444  3
   6081   6083   6087   6088     1  0.0000000  0.6508444  3
   6081   6083   6087   6089     1  0.0000000  0.6508444  3
   6083   6087   6088   6099     1  0.0000000  0.6508444  3
   6083   6087   6089   6091     1  0.0000000  0.6508444  3
   6087   6088   6099   6102     1  0.0000000  0.6508444  3
   6087   6089   6091   6095     1  0.0000000  0.6508444  3
   6088   6087   6089   6091     1  0.0000000  0.6508444  3
   6088   6099   6102   6103     1  180.0000771  0.0000000  2
   6088   6099   6102   6151     1  180.0000771  0.0000000  2
   6089   6087   6088   6099     1  0.0000000  0.6508444  3
   6089   6091   6095   6096     1  180.0000771  0.0000000  2
   6089   6091   6095   6127     1  180.0000771  0.0000000  2
   6091   6095   6127   6108     1  180.0000771  6.0668000  2
   6091   6095   6127   6108     1  180.0000771  1.4644000  4
   6095   6127   6108   6107     1  0.0000000  1.2552000  3
   6095   6127   6108   6109     1  0.0000000  1.2552000  3
   6096   6095   6127   6108     1  180.0000771  6.0668000  2
   6096   6095   6127   6108     1  180.0000771  1.4644000  4
   6099   6102   6151   6132     1  180.0000771  6.0668000  2
   6099   6102   6151   6132     1  180.0000771  1.4644000  4
   6102   6151   6132   6131     1  0.0000000  1.2552000  3
   6102   6151   6132   6133     1  0.0000000  1.2552000  3
   6103   6102   6151   6132     1  180.0000771  6.0668000  2
   6103   6102   6151   6132     1  180.0000771  1.4644000  4
   6104   6105   6107   6108     1  180.0000771  0.8368000  1
   6104   6105   6107   6108     1  180.0000771  1.0460000  2
   6104   6105   6107   6108     1  0.0000000  0.7531200  3
   6104   6105   6107   6114     1  0.0000000  0.6508444  3
   6104   6122   6109   6108     1  180.0000771  0.4184000  2
   6104   6122   6109   6108     1  0.0000000  1.6024720  3
   6104   6122   6109   6113     1  0.0000000  1.6038667  3
   6105   6104   6115   6120     1  0.0000000  0.6508444  3
   6105   6104   6122   6109     1  180.0000771  0.4184000  2
   6105   6104   6122   6109     1  0.0000000  1.6024720  3
   6105   6107   6108   6109     1  180.0000771  0.8368000  1
   6105   6107   6108   6109     1  180.0000771  1.0460000  2
   6105   6107   6108   6109     1  0.0000000  0.7531200  3
   6105   6107   6108   6127     1  0.0000000  0.6508444  3
   6107   6105   6104   6115     1  180.0000771  0.8368000  1
   6107   6105   6104   6115     1  180.0000771  1.0460000  2
   6107   6105   6104   6115     1  0.0000000  0.7531200  3
   6107   6105   6104   6122     1  0.0000000  0.6508444  3
   6107   6108   6109   6113     1  0.0000000  0.6508444  3
   6107   6108   6109   6122     1  0.0000000  0.6508444  3
   6108   6107   6105   6125     1  0.0000000  0.6508444  3
   6109   6108   6107   6114     1  0.0000000  0.6508444  3
   6109   6122   6104   6115     1  180.0000771  0.4184000  2
   6109   6122   6104   6115     1  0.0000000  1.6024720  3
   6113   6109   6108   6127     1  0.0000000  0.6508444  3
   6114   6107   6105   6125     1  0.0000000  4.9162000  2
   6114   6107   6105   6125     1  0.0000000  0.6024960  3
   6114   6107   6108   6127     1  0.0000000  0.6508444  3
   6115   6104   6105   6125     1  0.0000000  0.6508444  3
   6120   6115   6104   6122     1  0.0000000  4.9162000  2
   6120   6115   6104   6122     1  0.0000000  0.6024960  3
   6122   6104   6105   6125     1  0.0000000  4.9162000  2
   6122   6104   6105   6125     1  0.0000000  0.6024960  3
   6122   6109   6108   6127     1  0.0000000  0.6508444  3
   6128   6129   6131   6132     1  180.0000771  0.8368000  1
   6128   6129   6131   6132     1  180.0000771  1.0460000  2
   6128   6129   6131   6132     1  0.0000000  0.7531200  3
   6128   6129   6131   6138     1  0.0000000  0.6508444  3
   6128   6146   6133   6132     1  180.0000771  0.4184000  2
   6128   6146   6133   6132     1  0.0000000  1.6024720  3
   6128   6146   6133   6137     1  0.0000000  1.6038667  3
   6129   6128   6139   6144     1  0.0000000  0.6508444  3
   6129   6128   6146   6133     1  180.0000771  0.4184000  2
   6129   6128   6146   6133     1  0.0000000  1.6024720  3
   6129   6131   6132   6133     1  180.0000771  0.8368000  1
   6129   6131   6132   6133     1  180.0000771  1.0460000  2
   6129   6131   6132   6133     1  0.0000000  0.7531200  3
   6129   6131   6132   6151     1  0.0000000  0.6508444  3
   6131   6129   6128   6139     1  180.0000771  0.8368000  1
   6131   6129   6128   6139     1  180.0000771  1.0460000  2
   6131   6129   6128   6139     1  0.0000000  0.7531200  3
   6131   6129   6128   6146     1  0.0000000  0.6508444  3
   6131   6132   6133   6137     1  0.0000000  0.6508444  3
   6131   6132   6133   6146     1  0.0000000  0.6508444  3
   6132   6131   6129   6149     1  0.0000000  0.6508444  3
   6133   6132   6131   6138     1  0.0000000  0.6508444  3
   6133   6146   6128   6139     1  180.0000771  0.4184000  2
   6133   6146   6128   6139     1  0.0000000  1.6024720  3
   6137   6133   6132   6151     1  0.0000000  0.6508444  3
   6138   6131   6129   6149     1  0.0000000  4.9162000  2
   6138   6131   6129   6149     1  0.0000000  0.6024960  3
   6138   6131   6132   6151     1  0.0000000  0.6508444  3
   6139   6128   6129   6149     1  0.0000000  0.6508444  3
   6144   6139   6128   6146     1  0.0000000  4.9162000  2
   6144   6139   6128   6146     1  0.0000000  0.6024960  3
   6146   6128   6129   6149     1  0.0000000  4.9162000  2
   6146   6128   6129   6149     1  0.0000000  0.6024960  3
   6146   6133   6132   6151     1  0.0000000  0.6508444  3
   6153   6155   6157   6161     1  0.0000000  0.6508444  3
   6155   6157   6161   6162     1  0.0000000  0.6508444  3
   6155   6157   6161   6163     1  0.0000000  0.6508444  3
   6157   6161   6162   6173     1  0.0000000  0.6508444  3
   6157   6161   6163   6165     1  0.0000000  0.6508444  3
   6161   6162   6173   6176     1  0.0000000  0.6508444  3
   6161   6163   6165   6169     1  0.0000000  0.6508444  3
   6162   6173   6176   6177     1  180.0000771  0.0000000  2
   6162   6173   6176   6225     1  180.0000771  0.0000000  2
   6162   6161   6163   6165     1  0.0000000  0.6508444  3
   6163   6165   6169   6170     1  180.0000771  0.0000000  2
   6163   6165   6169   6201     1  180.0000771  0.0000000  2
   6163   6161   6162   6173     1  0.0000000  0.6508444  3
   6165   6169   6201   6182     1  180.0000771  6.0668000  2
   6165   6169   6201   6182     1  180.0000771  1.4644000  4
   6169   6201   6182   6183     1  0.0000000  1.2552000  3
   6169   6201   6182   6181     1  0.0000000  1.2552000  3
   6170   6169   6201   6182     1  180.0000771  6.0668000  2
   6170   6169   6201   6182     1  180.0000771  1.4644000  4
   6173   6176   6225   6206     1  180.0000771  6.0668000  2
   6173   6176   6225   6206     1  180.0000771  1.4644000  4
   6176   6225   6206   6207     1  0.0000000  1.2552000  3
   6176   6225   6206   6205     1  0.0000000  1.2552000  3
   6177   6176   6225   6206     1  180.0000771  6.0668000  2
   6177   6176   6225   6206     1  180.0000771  1.4644000  4
   6178   6179   6181   6182     1  180.0000771  0.8368000  1
   6178   6179   6181   6182     1  180.0000771  1.0460000  2
   6178   6179   6181   6182     1  0.0000000  0.7531200  3
   6178   6179   6181   6188     1  0.0000000  0.6508444  3
   6178   6196   6183   6187     1  0.0000000  1.6038667  3
   6178   6196   6183   6182     1  180.0000771  0.4184000  2
   6178   6196   6183   6182     1  0.0000000  1.6024720  3
   6179   6181   6182   6183     1  180.0000771  0.8368000  1
   6179   6181   6182   6183     1  180.0000771  1.0460000  2
   6179   6181   6182   6183     1  0.0000000  0.7531200  3
   6179   6181   6182   6201     1  0.0000000  0.6508444  3
   6179   6178   6189   6194     1  0.0000000  0.6508444  3
   6179   6178   6196   6183     1  180.0000771  0.4184000  2
   6179   6178   6196   6183     1  0.0000000  1.6024720  3
   6181   6182   6183   6187     1  0.0000000  0.6508444  3
   6181   6182   6183   6196     1  0.0000000  0.6508444  3
   6181   6179   6178   6189     1  180.0000771  0.8368000  1
   6181   6179   6178   6189     1  180.0000771  1.0460000  2
   6181   6179   6178   6189     1  0.0000000  0.7531200  3
   6181   6179   6178   6196     1  0.0000000  0.6508444  3
   6182   6181   6179   6199     1  0.0000000  0.6508444  3
   6183   6196   6178   6189     1  180.0000771  0.4184000  2
   6183   6196   6178   6189     1  0.0000000  1.6024720  3
   6183   6182   6181   6188     1  0.0000000  0.6508444  3
   6187   6183   6182   6201     1  0.0000000  0.6508444  3
   6188   6181   6182   6201     1  0.0000000  0.6508444  3
   6188   6181   6179   6199     1  0.0000000  4.9162000  2
   6188   6181   6179   6199     1  0.0000000  0.6024960  3
   6189   6178   6179   6199     1  0.0000000  0.6508444  3
   6194   6189   6178   6196     1  0.0000000  4.9162000  2
   6194   6189   6178   6196     1  0.0000000  0.6024960  3
   6196   6183   6182   6201     1  0.0000000  0.6508444  3
   6196   6178   6179   6199     1  0.0000000  4.9162000  2
   6196   6178   6179   6199     1  0.0000000  0.6024960  3
   6202   6203   6205   6206     1  180.0000771  0.8368000  1
   6202   6203   6205   6206     1  180.0000771  1.0460000  2
   6202   6203   6205   6206     1  0.0000000  0.7531200  3
   6202   6203   6205   6212     1  0.0000000  0.6508444  3
   6202   6220   6207   6211     1  0.0000000  1.6038667  3
   6202   6220   6207   6206     1  180.0000771  0.4184000  2
   6202   6220   6207   6206     1  0.0000000  1.6024720  3
   6203   6205   6206   6207     1  180.0000771  0.8368000  1
   6203   6205   6206   6207     1  180.0000771  1.0460000  2
   6203   6205   6206   6207     1  0.0000000  0.7531200  3
   6203   6205   6206   6225     1  0.0000000  0.6508444  3
   6203   6202   6213   6218     1  0.0000000  0.6508444  3
   6203   6202   6220   6207     1  180.0000771  0.4184000  2
   6203   6202   6220   6207     1  0.0000000  1.6024720  3
   6205   6206   6207   6211     1  0.0000000  0.6508444  3
   6205   6206   6207   6220     1  0.0000000  0.6508444  3
   6205   6203   6202   6213     1  180.0000771  0.8368000  1
   6205   6203   6202   6213     1  180.0000771  1.0460000  2
   6205   6203   6202   6213     1  0.0000000  0.7531200  3
   6205   6203   6202   6220     1  0.0000000  0.6508444  3
   6206   6205   6203   6223     1  0.0000000  0.6508444  3
   6207   6220   6202   6213     1  180.0000771  0.4184000  2
   6207   6220   6202   6213     1  0.0000000  1.6024720  3
   6207   6206   6205   6212     1  0.0000000  0.6508444  3
   6211   6207   6206   6225     1  0.0000000  0.6508444  3
   6212   6205   6206   6225     1  0.0000000  0.6508444  3
   6212   6205   6203   6223     1  0.0000000  4.9162000  2
   6212   6205   6203   6223     1  0.0000000  0.6024960  3
   6213   6202   6203   6223     1  0.0000000  0.6508444  3
   6218   6213   6202   6220     1  0.0000000  4.9162000  2
   6218   6213   6202   6220     1  0.0000000  0.6024960  3
   6220   6207   6206   6225     1  0.0000000  0.6508444  3
   6220   6202   6203   6223     1  0.0000000  4.9162000  2
   6220   6202   6203   6223     1  0.0000000  0.6024960  3
   6227   6229   6231   6235     1  0.0000000  0.6508444  3
   6229   6231   6235   6236     1  0.0000000  0.6508444  3
   6229   6231   6235   6237     1  0.0000000  0.6508444  3
   6231   6235   6236   6247     1  0.0000000  0.6508444  3
   6231   6235   6237   6239     1  0.0000000  0.6508444  3
   6235   6236   6247   6250     1  0.0000000  0.6508444  3
   6235   6237   6239   6243     1  0.0000000  0.6508444  3
   6236   6235   6237   6239     1  0.0000000  0.6508444  3
   6236   6247   6250   6251     1  180.0000771  0.0000000  2
   6236   6247   6250   6299     1  180.0000771  0.0000000  2
   6237   6235   6236   6247     1  0.0000000  0.6508444  3
   6237   6239   6243   6244     1  180.0000771  0.0000000  2
   6237   6239   6243   6275     1  180.0000771  0.0000000  2
   6239   6243   6275   6256     1  180.0000771  6.0668000  2
   6239   6243   6275   6256     1  180.0000771  1.4644000  4
   6243   6275   6256   6255     1  0.0000000  1.2552000  3
   6243   6275   6256   6257     1  0.0000000  1.2552000  3
   6244   6243   6275   6256     1  180.0000771  6.0668000  2
   6244   6243   6275   6256     1  180.0000771  1.4644000  4
   6247   6250   6299   6280     1  180.0000771  6.0668000  2
   6247   6250   6299   6280     1  180.0000771  1.4644000  4
   6250   6299   6280   6279     1  0.0000000  1.2552000  3
   6250   6299   6280   6281     1  0.0000000  1.2552000  3
   6251   6250   6299   6280     1  180.0000771  6.0668000  2
   6251   6250   6299   6280     1  180.0000771  1.4644000  4
   6252   6253   6255   6256     1  180.0000771  0.8368000  1
   6252   6253   6255   6256     1  180.0000771  1.0460000  2
   6252   6253   6255   6256     1  0.0000000  0.7531200  3
   6252   6253   6255   6262     1  0.0000000  0.6508444  3
   6252   6270   6257   6256     1  180.0000771  0.4184000  2
   6252   6270   6257   6256     1  0.0000000  1.6024720  3
   6252   6270   6257   6261     1  0.0000000  1.6038667  3
   6253   6252   6263   6268     1  0.0000000  0.6508444  3
   6253   6252   6270   6257     1  180.0000771  0.4184000  2
   6253   6252   6270   6257     1  0.0000000  1.6024720  3
   6253   6255   6256   6257     1  180.0000771  0.8368000  1
   6253   6255   6256   6257     1  180.0000771  1.0460000  2
   6253   6255   6256   6257     1  0.0000000  0.7531200  3
   6253   6255   6256   6275     1  0.0000000  0.6508444  3
   6255   6253   6252   6263     1  180.0000771  0.8368000  1
   6255   6253   6252   6263     1  180.0000771  1.0460000  2
   6255   6253   6252   6263     1  0.0000000  0.7531200  3
   6255   6253   6252   6270     1  0.0000000  0.6508444  3
   6255   6256   6257   6261     1  0.0000000  0.6508444  3
   6255   6256   6257   6270     1  0.0000000  0.6508444  3
   6256   6255   6253   6273     1  0.0000000  0.6508444  3
   6257   6256   6255   6262     1  0.0000000  0.6508444  3
   6257   6270   6252   6263     1  180.0000771  0.4184000  2
   6257   6270   6252   6263     1  0.0000000  1.6024720  3
   6261   6257   6256   6275     1  0.0000000  0.6508444  3
   6262   6255   6253   6273     1  0.0000000  4.9162000  2
   6262   6255   6253   6273     1  0.0000000  0.6024960  3
   6262   6255   6256   6275     1  0.0000000  0.6508444  3
   6263   6252   6253   6273     1  0.0000000  0.6508444  3
   6268   6263   6252   6270     1  0.0000000  4.9162000  2
   6268   6263   6252   6270     1  0.0000000  0.6024960  3
   6270   6252   6253   6273     1  0.0000000  4.9162000  2
   6270   6252   6253   6273     1  0.0000000  0.6024960  3
   6270   6257   6256   6275     1  0.0000000  0.6508444  3
   6276   6277   6279   6280     1  180.0000771  0.8368000  1
   6276   6277   6279   6280     1  180.0000771  1.0460000  2
   6276   6277   6279   6280     1  0.0000000  0.7531200  3
   6276   6277   6279   6286     1  0.0000000  0.6508444  3
   6276   6294   6281   6280     1  180.0000771  0.4184000  2
   6276   6294   6281   6280     1  0.0000000  1.6024720  3
   6276   6294   6281   6285     1  0.0000000  1.6038667  3
   6277   6276   6287   6292     1  0.0000000  0.6508444  3
   6277   6276   6294   6281     1  180.0000771  0.4184000  2
   6277   6276   6294   6281     1  0.0000000  1.6024720  3
   6277   6279   6280   6281     1  180.0000771  0.8368000  1
   6277   6279   6280   6281     1  180.0000771  1.0460000  2
   6277   6279   6280   6281     1  0.0000000  0.7531200  3
   6277   6279   6280   6299     1  0.0000000  0.6508444  3
   6279   6277   6276   6287     1  180.0000771  0.8368000  1
   6279   6277   6276   6287     1  180.0000771  1.0460000  2
   6279   6277   6276   6287     1  0.0000000  0.7531200  3
   6279   6277   6276   6294     1  0.0000000  0.6508444  3
   6279   6280   6281   6285     1  0.0000000  0.6508444  3
   6279   6280   6281   6294     1  0.0000000  0.6508444  3
   6280   6279   6277   6297     1  0.0000000  0.6508444  3
   6281   6280   6279   6286     1  0.0000000  0.6508444  3
   6281   6294   6276   6287     1  180.0000771  0.4184000  2
   6281   6294   6276   6287     1  0.0000000  1.6024720  3
   6285   6281   6280   6299     1  0.0000000  0.6508444  3
   6286   6279   6277   6297     1  0.0000000  4.9162000  2
   6286   6279   6277   6297     1  0.0000000  0.6024960  3
   6286   6279   6280   6299     1  0.0000000  0.6508444  3
   6287   6276   6277   6297     1  0.0000000  0.6508444  3
   6292   6287   6276   6294     1  0.0000000  4.9162000  2
   6292   6287   6276   6294     1  0.0000000  0.6024960  3
   6294   6276   6277   6297     1  0.0000000  4.9162000  2
   6294   6276   6277   6297     1  0.0000000  0.6024960  3
   6294   6281   6280   6299     1  0.0000000  0.6508444  3
   6301   6303   6305   6309     1  0.0000000  0.6508444  3
   6303   6305   6309   6310     1  0.0000000  0.6508444  3
   6303   6305   6309   6311     1  0.0000000  0.6508444  3
   6305   6309   6310   6321     1  0.0000000  0.6508444  3
   6305   6309   6311   6313     1  0.0000000  0.6508444  3
   6309   6310   6321   6324     1  0.0000000  0.6508444  3
   6309   6311   6313   6317     1  0.0000000  0.6508444  3
   6310   6321   6324   6325     1  180.0000771  0.0000000  2
   6310   6321   6324   6373     1  180.0000771  0.0000000  2
   6310   6309   6311   6313     1  0.0000000  0.6508444  3
   6311   6313   6317   6318     1  180.0000771  0.0000000  2
   6311   6313   6317   6349     1  180.0000771  0.0000000  2
   6311   6309   6310   6321     1  0.0000000  0.6508444  3
   6313   6317   6349   6330     1  180.0000771  6.0668000  2
   6313   6317   6349   6330     1  180.0000771  1.4644000  4
   6317   6349   6330   6331     1  0.0000000  1.2552000  3
   6317   6349   6330   6329     1  0.0000000  1.2552000  3
   6318   6317   6349   6330     1  180.0000771  6.0668000  2
   6318   6317   6349   6330     1  180.0000771  1.4644000  4
   6321   6324   6373   6354     1  180.0000771  6.0668000  2
   6321   6324   6373   6354     1  180.0000771  1.4644000  4
   6324   6373   6354   6355     1  0.0000000  1.2552000  3
   6324   6373   6354   6353     1  0.0000000  1.2552000  3
   6325   6324   6373   6354     1  180.0000771  6.0668000  2
   6325   6324   6373   6354     1  180.0000771  1.4644000  4
   6326   6327   6329   6330     1  180.0000771  0.8368000  1
   6326   6327   6329   6330     1  180.0000771  1.0460000  2
   6326   6327   6329   6330     1  0.0000000  0.7531200  3
   6326   6327   6329   6336     1  0.0000000  0.6508444  3
   6326   6344   6331   6335     1  0.0000000  1.6038667  3
   6326   6344   6331   6330     1  180.0000771  0.4184000  2
   6326   6344   6331   6330     1  0.0000000  1.6024720  3
   6327   6329   6330   6331     1  180.0000771  0.8368000  1
   6327   6329   6330   6331     1  180.0000771  1.0460000  2
   6327   6329   6330   6331     1  0.0000000  0.7531200  3
   6327   6329   6330   6349     1  0.0000000  0.6508444  3
   6327   6326   6337   6342     1  0.0000000  0.6508444  3
   6327   6326   6344   6331     1  180.0000771  0.4184000  2
   6327   6326   6344   6331     1  0.0000000  1.6024720  3
   6329   6330   6331   6335     1  0.0000000  0.6508444  3
   6329   6330   6331   6344     1  0.0000000  0.6508444  3
   6329   6327   6326   6337     1  180.0000771  0.8368000  1
   6329   6327   6326   6337     1  180.0000771  1.0460000  2
   6329   6327   6326   6337     1  0.0000000  0.7531200  3
   6329   6327   6326   6344     1  0.0000000  0.6508444  3
   6330   6329   6327   6347     1  0.0000000  0.6508444  3
   6331   6344   6326   6337     1  180.0000771  0.4184000  2
   6331   6344   6326   6337     1  0.0000000  1.6024720  3
   6331   6330   6329   6336     1  0.0000000  0.6508444  3
   6335   6331   6330   6349     1  0.0000000  0.6508444  3
   6336   6329   6330   6349     1  0.0000000  0.6508444  3
   6336   6329   6327   6347     1  0.0000000  4.9162000  2
   6336   6329   6327   6347     1  0.0000000  0.6024960  3
   6337   6326   6327   6347     1  0.0000000  0.6508444  3
   6342   6337   6326   6344     1  0.0000000  4.9162000  2
   6342   6337   6326   6344     1  0.0000000  0.6024960  3
   6344   6331   6330   6349     1  0.0000000  0.6508444  3
   6344   6326   6327   6347     1  0.0000000  4.9162000  2
   6344   6326   6327   6347     1  0.0000000  0.6024960  3
   6350   6351   6353   6354     1  180.0000771  0.8368000  1
   6350   6351   6353   6354     1  180.0000771  1.0460000  2
   6350   6351   6353   6354     1  0.0000000  0.7531200  3
   6350   6351   6353   6360     1  0.0000000  0.6508444  3
   6350   6368   6355   6359     1  0.0000000  1.6038667  3
   6350   6368   6355   6354     1  180.0000771  0.4184000  2
   6350   6368   6355   6354     1  0.0000000  1.6024720  3
   6351   6353   6354   6355     1  180.0000771  0.8368000  1
   6351   6353   6354   6355     1  180.0000771  1.0460000  2
   6351   6353   6354   6355     1  0.0000000  0.7531200  3
   6351   6353   6354   6373     1  0.0000000  0.6508444  3
   6351   6350   6361   6366     1  0.0000000  0.6508444  3
   6351   6350   6368   6355     1  180.0000771  0.4184000  2
   6351   6350   6368   6355     1  0.0000000  1.6024720  3
   6353   6354   6355   6359     1  0.0000000  0.6508444  3
   6353   6354   6355   6368     1  0.0000000  0.6508444  3
   6353   6351   6350   6361     1  180.0000771  0.8368000  1
   6353   6351   6350   6361     1  180.0000771  1.0460000  2
   6353   6351   6350   6361     1  0.0000000  0.7531200  3
   6353   6351   6350   6368     1  0.0000000  0.6508444  3
   6354   6353   6351   6371     1  0.0000000  0.6508444  3
   6355   6368   6350   6361     1  180.0000771  0.4184000  2
   6355   6368   6350   6361     1  0.0000000  1.6024720  3
   6355   6354   6353   6360     1  0.0000000  0.6508444  3
   6359   6355   6354   6373     1  0.0000000  0.6508444  3
   6360   6353   6354   6373     1  0.0000000  0.6508444  3
   6360   6353   6351   6371     1  0.0000000  4.9162000  2
   6360   6353   6351   6371     1  0.0000000  0.6024960  3
   6361   6350   6351   6371     1  0.0000000  0.6508444  3
   6366   6361   6350   6368     1  0.0000000  4.9162000  2
   6366   6361   6350   6368     1  0.0000000  0.6024960  3
   6368   6355   6354   6373     1  0.0000000  0.6508444  3
   6368   6350   6351   6371     1  0.0000000  4.9162000  2
   6368   6350   6351   6371     1  0.0000000  0.6024960  3
   6375   6377   6379   6383     1  0.0000000  0.6508444  3
   6377   6379   6383   6384     1  0.0000000  0.6508444  3
   6377   6379   6383   6385     1  0.0000000  0.6508444  3
   6379   6383   6384   6395     1  0.0000000  0.6508444  3
   6379   6383   6385   6387     1  0.0000000  0.6508444  3
   6383   6384   6395   6398     1  0.0000000  0.6508444  3
   6383   6385   6387   6391     1  0.0000000  0.6508444  3
   6384   6383   6385   6387     1  0.0000000  0.6508444  3
   6384   6395   6398   6399     1  180.0000771  0.0000000  2
   6384   6395   6398   6447     1  180.0000771  0.0000000  2
   6385   6383   6384   6395     1  0.0000000  0.6508444  3
   6385   6387   6391   6392     1  180.0000771  0.0000000  2
   6385   6387   6391   6423     1  180.0000771  0.0000000  2
   6387   6391   6423   6404     1  180.0000771  6.0668000  2
   6387   6391   6423   6404     1  180.0000771  1.4644000  4
   6391   6423   6404   6403     1  0.0000000  1.2552000  3
   6391   6423   6404   6405     1  0.0000000  1.2552000  3
   6392   6391   6423   6404     1  180.0000771  6.0668000  2
   6392   6391   6423   6404     1  180.0000771  1.4644000  4
   6395   6398   6447   6428     1  180.0000771  6.0668000  2
   6395   6398   6447   6428     1  180.0000771  1.4644000  4
   6398   6447   6428   6427     1  0.0000000  1.2552000  3
   6398   6447   6428   6429     1  0.0000000  1.2552000  3
   6399   6398   6447   6428     1  180.0000771  6.0668000  2
   6399   6398   6447   6428     1  180.0000771  1.4644000  4
   6400   6401   6403   6404     1  180.0000771  0.8368000  1
   6400   6401   6403   6404     1  180.0000771  1.0460000  2
   6400   6401   6403   6404     1  0.0000000  0.7531200  3
   6400   6401   6403   6410     1  0.0000000  0.6508444  3
   6400   6418   6405   6404     1  180.0000771  0.4184000  2
   6400   6418   6405   6404     1  0.0000000  1.6024720  3
   6400   6418   6405   6409     1  0.0000000  1.6038667  3
   6401   6400   6411   6416     1  0.0000000  0.6508444  3
   6401   6400   6418   6405     1  180.0000771  0.4184000  2
   6401   6400   6418   6405     1  0.0000000  1.6024720  3
   6401   6403   6404   6405     1  180.0000771  0.8368000  1
   6401   6403   6404   6405     1  180.0000771  1.0460000  2
   6401   6403   6404   6405     1  0.0000000  0.7531200  3
   6401   6403   6404   6423     1  0.0000000  0.6508444  3
   6403   6401   6400   6411     1  180.0000771  0.8368000  1
   6403   6401   6400   6411     1  180.0000771  1.0460000  2
   6403   6401   6400   6411     1  0.0000000  0.7531200  3
   6403   6401   6400   6418     1  0.0000000  0.6508444  3
   6403   6404   6405   6409     1  0.0000000  0.6508444  3
   6403   6404   6405   6418     1  0.0000000  0.6508444  3
   6404   6403   6401   6421     1  0.0000000  0.6508444  3
   6405   6404   6403   6410     1  0.0000000  0.6508444  3
   6405   6418   6400   6411     1  180.0000771  0.4184000  2
   6405   6418   6400   6411     1  0.0000000  1.6024720  3
   6409   6405   6404   6423     1  0.0000000  0.6508444  3
   6410   6403   6401   6421     1  0.0000000  4.9162000  2
   6410   6403   6401   6421     1  0.0000000  0.6024960  3
   6410   6403   6404   6423     1  0.0000000  0.6508444  3
   6411   6400   6401   6421     1  0.0000000  0.6508444  3
   6416   6411   6400   6418     1  0.0000000  4.9162000  2
   6416   6411   6400   6418     1  0.0000000  0.6024960  3
   6418   6400   6401   6421     1  0.0000000  4.9162000  2
   6418   6400   6401   6421     1  0.0000000  0.6024960  3
   6418   6405   6404   6423     1  0.0000000  0.6508444  3
   6424   6425   6427   6428     1  180.0000771  0.8368000  1
   6424   6425   6427   6428     1  180.0000771  1.0460000  2
   6424   6425   6427   6428     1  0.0000000  0.7531200  3
   6424   6425   6427   6434     1  0.0000000  0.6508444  3
   6424   6442   6429   6428     1  180.0000771  0.4184000  2
   6424   6442   6429   6428     1  0.0000000  1.6024720  3
   6424   6442   6429   6433     1  0.0000000  1.6038667  3
   6425   6424   6435   6440     1  0.0000000  0.6508444  3
   6425   6424   6442   6429     1  180.0000771  0.4184000  2
   6425   6424   6442   6429     1  0.0000000  1.6024720  3
   6425   6427   6428   6429     1  180.0000771  0.8368000  1
   6425   6427   6428   6429     1  180.0000771  1.0460000  2
   6425   6427   6428   6429     1  0.0000000  0.7531200  3
   6425   6427   6428   6447     1  0.0000000  0.6508444  3
   6427   6425   6424   6435     1  180.0000771  0.8368000  1
   6427   6425   6424   6435     1  180.0000771  1.0460000  2
   6427   6425   6424   6435     1  0.0000000  0.7531200  3
   6427   6425   6424   6442     1  0.0000000  0.6508444  3
   6427   6428   6429   6433     1  0.0000000  0.6508444  3
   6427   6428   6429   6442     1  0.0000000  0.6508444  3
   6428   6427   6425   6445     1  0.0000000  0.6508444  3
   6429   6428   6427   6434     1  0.0000000  0.6508444  3
   6429   6442   6424   6435     1  180.0000771  0.4184000  2
   6429   6442   6424   6435     1  0.0000000  1.6024720  3
   6433   6429   6428   6447     1  0.0000000  0.6508444  3
   6434   6427   6425   6445     1  0.0000000  4.9162000  2
   6434   6427   6425   6445     1  0.0000000  0.6024960  3
   6434   6427   6428   6447     1  0.0000000  0.6508444  3
   6435   6424   6425   6445     1  0.0000000  0.6508444  3
   6440   6435   6424   6442     1  0.0000000  4.9162000  2
   6440   6435   6424   6442     1  0.0000000  0.6024960  3
   6442   6424   6425   6445     1  0.0000000  4.9162000  2
   6442   6424   6425   6445     1  0.0000000  0.6024960  3
   6442   6429   6428   6447     1  0.0000000  0.6508444  3
   6449   6451   6453   6457     1  0.0000000  0.6508444  3
   6451   6453   6457   6458     1  0.0000000  0.6508444  3
   6451   6453   6457   6459     1  0.0000000  0.6508444  3
   6453   6457   6458   6469     1  0.0000000  0.6508444  3
   6453   6457   6459   6461     1  0.0000000  0.6508444  3
   6457   6458   6469   6472     1  0.0000000  0.6508444  3
   6457   6459   6461   6465     1  0.0000000  0.6508444  3
   6458   6469   6472   6473     1  180.0000771  0.0000000  2
   6458   6469   6472   6521     1  180.0000771  0.0000000  2
   6458   6457   6459   6461     1  0.0000000  0.6508444  3
   6459   6461   6465   6466     1  180.0000771  0.0000000  2
   6459   6461   6465   6497     1  180.0000771  0.0000000  2
   6459   6457   6458   6469     1  0.0000000  0.6508444  3
   6461   6465   6497   6478     1  180.0000771  6.0668000  2
   6461   6465   6497   6478     1  180.0000771  1.4644000  4
   6465   6497   6478   6479     1  0.0000000  1.2552000  3
   6465   6497   6478   6477     1  0.0000000  1.2552000  3
   6466   6465   6497   6478     1  180.0000771  6.0668000  2
   6466   6465   6497   6478     1  180.0000771  1.4644000  4
   6469   6472   6521   6502     1  180.0000771  6.0668000  2
   6469   6472   6521   6502     1  180.0000771  1.4644000  4
   6472   6521   6502   6503     1  0.0000000  1.2552000  3
   6472   6521   6502   6501     1  0.0000000  1.2552000  3
   6473   6472   6521   6502     1  180.0000771  6.0668000  2
   6473   6472   6521   6502     1  180.0000771  1.4644000  4
   6474   6475   6477   6478     1  180.0000771  0.8368000  1
   6474   6475   6477   6478     1  180.0000771  1.0460000  2
   6474   6475   6477   6478     1  0.0000000  0.7531200  3
   6474   6475   6477   6484     1  0.0000000  0.6508444  3
   6474   6492   6479   6483     1  0.0000000  1.6038667  3
   6474   6492   6479   6478     1  180.0000771  0.4184000  2
   6474   6492   6479   6478     1  0.0000000  1.6024720  3
   6475   6477   6478   6479     1  180.0000771  0.8368000  1
   6475   6477   6478   6479     1  180.0000771  1.0460000  2
   6475   6477   6478   6479     1  0.0000000  0.7531200  3
   6475   6477   6478   6497     1  0.0000000  0.6508444  3
   6475   6474   6485   6490     1  0.0000000  0.6508444  3
   6475   6474   6492   6479     1  180.0000771  0.4184000  2
   6475   6474   6492   6479     1  0.0000000  1.6024720  3
   6477   6478   6479   6483     1  0.0000000  0.6508444  3
   6477   6478   6479   6492     1  0.0000000  0.6508444  3
   6477   6475   6474   6485     1  180.0000771  0.8368000  1
   6477   6475   6474   6485     1  180.0000771  1.0460000  2
   6477   6475   6474   6485     1  0.0000000  0.7531200  3
   6477   6475   6474   6492     1  0.0000000  0.6508444  3
   6478   6477   6475   6495     1  0.0000000  0.6508444  3
   6479   6492   6474   6485     1  180.0000771  0.4184000  2
   6479   6492   6474   6485     1  0.0000000  1.6024720  3
   6479   6478   6477   6484     1  0.0000000  0.6508444  3
   6483   6479   6478   6497     1  0.0000000  0.6508444  3
   6484   6477   6478   6497     1  0.0000000  0.6508444  3
   6484   6477   6475   6495     1  0.0000000  4.9162000  2
   6484   6477   6475   6495     1  0.0000000  0.6024960  3
   6485   6474   6475   6495     1  0.0000000  0.6508444  3
   6490   6485   6474   6492     1  0.0000000  4.9162000  2
   6490   6485   6474   6492     1  0.0000000  0.6024960  3
   6492   6479   6478   6497     1  0.0000000  0.6508444  3
   6492   6474   6475   6495     1  0.0000000  4.9162000  2
   6492   6474   6475   6495     1  0.0000000  0.6024960  3
   6498   6499   6501   6502     1  180.0000771  0.8368000  1
   6498   6499   6501   6502     1  180.0000771  1.0460000  2
   6498   6499   6501   6502     1  0.0000000  0.7531200  3
   6498   6499   6501   6508     1  0.0000000  0.6508444  3
   6498   6516   6503   6507     1  0.0000000  1.6038667  3
   6498   6516   6503   6502     1  180.0000771  0.4184000  2
   6498   6516   6503   6502     1  0.0000000  1.6024720  3
   6499   6501   6502   6503     1  180.0000771  0.8368000  1
   6499   6501   6502   6503     1  180.0000771  1.0460000  2
   6499   6501   6502   6503     1  0.0000000  0.7531200  3
   6499   6501   6502   6521     1  0.0000000  0.6508444  3
   6499   6498   6509   6514     1  0.0000000  0.6508444  3
   6499   6498   6516   6503     1  180.0000771  0.4184000  2
   6499   6498   6516   6503     1  0.0000000  1.6024720  3
   6501   6502   6503   6507     1  0.0000000  0.6508444  3
   6501   6502   6503   6516     1  0.0000000  0.6508444  3
   6501   6499   6498   6509     1  180.0000771  0.8368000  1
   6501   6499   6498   6509     1  180.0000771  1.0460000  2
   6501   6499   6498   6509     1  0.0000000  0.7531200  3
   6501   6499   6498   6516     1  0.0000000  0.6508444  3
   6502   6501   6499   6519     1  0.0000000  0.6508444  3
   6503   6516   6498   6509     1  180.0000771  0.4184000  2
   6503   6516   6498   6509     1  0.0000000  1.6024720  3
   6503   6502   6501   6508     1  0.0000000  0.6508444  3
   6507   6503   6502   6521     1  0.0000000  0.6508444  3
   6508   6501   6502   6521     1  0.0000000  0.6508444  3
   6508   6501   6499   6519     1  0.0000000  4.9162000  2
   6508   6501   6499   6519     1  0.0000000  0.6024960  3
   6509   6498   6499   6519     1  0.0000000  0.6508444  3
   6514   6509   6498   6516     1  0.0000000  4.9162000  2
   6514   6509   6498   6516     1  0.0000000  0.6024960  3
   6516   6503   6502   6521     1  0.0000000  0.6508444  3
   6516   6498   6499   6519     1  0.0000000  4.9162000  2
   6516   6498   6499   6519     1  0.0000000  0.6024960  3
   6523   6525   6527   6531     1  0.0000000  0.6508444  3
   6525   6527   6531   6532     1  0.0000000  0.6508444  3
   6525   6527   6531   6533     1  0.0000000  0.6508444  3
   6527   6531   6532   6543     1  0.0000000  0.6508444  3
   6527   6531   6533   6535     1  0.0000000  0.6508444  3
   6531   6532   6543   6546     1  0.0000000  0.6508444  3
   6531   6533   6535   6539     1  0.0000000  0.6508444  3
   6532   6531   6533   6535     1  0.0000000  0.6508444  3
   6532   6543   6546   6547     1  180.0000771  0.0000000  2
   6532   6543   6546   6595     1  180.0000771  0.0000000  2
   6533   6531   6532   6543     1  0.0000000  0.6508444  3
   6533   6535   6539   6540     1  180.0000771  0.0000000  2
   6533   6535   6539   6571     1  180.0000771  0.0000000  2
   6535   6539   6571   6552     1  180.0000771  6.0668000  2
   6535   6539   6571   6552     1  180.0000771  1.4644000  4
   6539   6571   6552   6551     1  0.0000000  1.2552000  3
   6539   6571   6552   6553     1  0.0000000  1.2552000  3
   6540   6539   6571   6552     1  180.0000771  6.0668000  2
   6540   6539   6571   6552     1  180.0000771  1.4644000  4
   6543   6546   6595   6576     1  180.0000771  6.0668000  2
   6543   6546   6595   6576     1  180.0000771  1.4644000  4
   6546   6595   6576   6575     1  0.0000000  1.2552000  3
   6546   6595   6576   6577     1  0.0000000  1.2552000  3
   6547   6546   6595   6576     1  180.0000771  6.0668000  2
   6547   6546   6595   6576     1  180.0000771  1.4644000  4
   6548   6549   6551   6552     1  180.0000771  0.8368000  1
   6548   6549   6551   6552     1  180.0000771  1.0460000  2
   6548   6549   6551   6552     1  0.0000000  0.7531200  3
   6548   6549   6551   6558     1  0.0000000  0.6508444  3
   6548   6566   6553   6552     1  180.0000771  0.4184000  2
   6548   6566   6553   6552     1  0.0000000  1.6024720  3
   6548   6566   6553   6557     1  0.0000000  1.6038667  3
   6549   6548   6559   6564     1  0.0000000  0.6508444  3
   6549   6548   6566   6553     1  180.0000771  0.4184000  2
   6549   6548   6566   6553     1  0.0000000  1.6024720  3
   6549   6551   6552   6553     1  180.0000771  0.8368000  1
   6549   6551   6552   6553     1  180.0000771  1.0460000  2
   6549   6551   6552   6553     1  0.0000000  0.7531200  3
   6549   6551   6552   6571     1  0.0000000  0.6508444  3
   6551   6549   6548   6559     1  180.0000771  0.8368000  1
   6551   6549   6548   6559     1  180.0000771  1.0460000  2
   6551   6549   6548   6559     1  0.0000000  0.7531200  3
   6551   6549   6548   6566     1  0.0000000  0.6508444  3
   6551   6552   6553   6557     1  0.0000000  0.6508444  3
   6551   6552   6553   6566     1  0.0000000  0.6508444  3
   6552   6551   6549   6569     1  0.0000000  0.6508444  3
   6553   6552   6551   6558     1  0.0000000  0.6508444  3
   6553   6566   6548   6559     1  180.0000771  0.4184000  2
   6553   6566   6548   6559     1  0.0000000  1.6024720  3
   6557   6553   6552   6571     1  0.0000000  0.6508444  3
   6558   6551   6549   6569     1  0.0000000  4.9162000  2
   6558   6551   6549   6569     1  0.0000000  0.6024960  3
   6558   6551   6552   6571     1  0.0000000  0.6508444  3
   6559   6548   6549   6569     1  0.0000000  0.6508444  3
   6564   6559   6548   6566     1  0.0000000  4.9162000  2
   6564   6559   6548   6566     1  0.0000000  0.6024960  3
   6566   6548   6549   6569     1  0.0000000  4.9162000  2
   6566   6548   6549   6569     1  0.0000000  0.6024960  3
   6566   6553   6552   6571     1  0.0000000  0.6508444  3
   6572   6573   6575   6576     1  180.0000771  0.8368000  1
   6572   6573   6575   6576     1  180.0000771  1.0460000  2
   6572   6573   6575   6576     1  0.0000000  0.7531200  3
   6572   6573   6575   6582     1  0.0000000  0.6508444  3
   6572   6590   6577   6576     1  180.0000771  0.4184000  2
   6572   6590   6577   6576     1  0.0000000  1.6024720  3
   6572   6590   6577   6581     1  0.0000000  1.6038667  3
   6573   6572   6583   6588     1  0.0000000  0.6508444  3
   6573   6572   6590   6577     1  180.0000771  0.4184000  2
   6573   6572   6590   6577     1  0.0000000  1.6024720  3
   6573   6575   6576   6577     1  180.0000771  0.8368000  1
   6573   6575   6576   6577     1  180.0000771  1.0460000  2
   6573   6575   6576   6577     1  0.0000000  0.7531200  3
   6573   6575   6576   6595     1  0.0000000  0.6508444  3
   6575   6573   6572   6583     1  180.0000771  0.8368000  1
   6575   6573   6572   6583     1  180.0000771  1.0460000  2
   6575   6573   6572   6583     1  0.0000000  0.7531200  3
   6575   6573   6572   6590     1  0.0000000  0.6508444  3
   6575   6576   6577   6581     1  0.0000000  0.6508444  3
   6575   6576   6577   6590     1  0.0000000  0.6508444  3
   6576   6575   6573   6593     1  0.0000000  0.6508444  3
   6577   6576   6575   6582     1  0.0000000  0.6508444  3
   6577   6590   6572   6583     1  180.0000771  0.4184000  2
   6577   6590   6572   6583     1  0.0000000  1.6024720  3
   6581   6577   6576   6595     1  0.0000000  0.6508444  3
   6582   6575   6573   6593     1  0.0000000  4.9162000  2
   6582   6575   6573   6593     1  0.0000000  0.6024960  3
   6582   6575   6576   6595     1  0.0000000  0.6508444  3
   6583   6572   6573   6593     1  0.0000000  0.6508444  3
   6588   6583   6572   6590     1  0.0000000  4.9162000  2
   6588   6583   6572   6590     1  0.0000000  0.6024960  3
   6590   6572   6573   6593     1  0.0000000  4.9162000  2
   6590   6572   6573   6593     1  0.0000000  0.6024960  3
   6590   6577   6576   6595     1  0.0000000  0.6508444  3
   6597   6599   6601   6605     1  0.0000000  0.6508444  3
   6599   6601   6605   6606     1  0.0000000  0.6508444  3
   6599   6601   6605   6607     1  0.0000000  0.6508444  3
   6601   6605   6606   6617     1  0.0000000  0.6508444  3
   6601   6605   6607   6609     1  0.0000000  0.6508444  3
   6605   6606   6617   6620     1  0.0000000  0.6508444  3
   6605   6607   6609   6613     1  0.0000000  0.6508444  3
   6606   6617   6620   6621     1  180.0000771  0.0000000  2
   6606   6617   6620   6669     1  180.0000771  0.0000000  2
   6606   6605   6607   6609     1  0.0000000  0.6508444  3
   6607   6609   6613   6614     1  180.0000771  0.0000000  2
   6607   6609   6613   6645     1  180.0000771  0.0000000  2
   6607   6605   6606   6617     1  0.0000000  0.6508444  3
   6609   6613   6645   6626     1  180.0000771  6.0668000  2
   6609   6613   6645   6626     1  180.0000771  1.4644000  4
   6613   6645   6626   6627     1  0.0000000  1.2552000  3
   6613   6645   6626   6625     1  0.0000000  1.2552000  3
   6614   6613   6645   6626     1  180.0000771  6.0668000  2
   6614   6613   6645   6626     1  180.0000771  1.4644000  4
   6617   6620   6669   6650     1  180.0000771  6.0668000  2
   6617   6620   6669   6650     1  180.0000771  1.4644000  4
   6620   6669   6650   6651     1  0.0000000  1.2552000  3
   6620   6669   6650   6649     1  0.0000000  1.2552000  3
   6621   6620   6669   6650     1  180.0000771  6.0668000  2
   6621   6620   6669   6650     1  180.0000771  1.4644000  4
   6622   6623   6625   6626     1  180.0000771  0.8368000  1
   6622   6623   6625   6626     1  180.0000771  1.0460000  2
   6622   6623   6625   6626     1  0.0000000  0.7531200  3
   6622   6623   6625   6632     1  0.0000000  0.6508444  3
   6622   6640   6627   6631     1  0.0000000  1.6038667  3
   6622   6640   6627   6626     1  180.0000771  0.4184000  2
   6622   6640   6627   6626     1  0.0000000  1.6024720  3
   6623   6625   6626   6627     1  180.0000771  0.8368000  1
   6623   6625   6626   6627     1  180.0000771  1.0460000  2
   6623   6625   6626   6627     1  0.0000000  0.7531200  3
   6623   6625   6626   6645     1  0.0000000  0.6508444  3
   6623   6622   6633   6638     1  0.0000000  0.6508444  3
   6623   6622   6640   6627     1  180.0000771  0.4184000  2
   6623   6622   6640   6627     1  0.0000000  1.6024720  3
   6625   6626   6627   6631     1  0.0000000  0.6508444  3
   6625   6626   6627   6640     1  0.0000000  0.6508444  3
   6625   6623   6622   6633     1  180.0000771  0.8368000  1
   6625   6623   6622   6633     1  180.0000771  1.0460000  2
   6625   6623   6622   6633     1  0.0000000  0.7531200  3
   6625   6623   6622   6640     1  0.0000000  0.6508444  3
   6626   6625   6623   6643     1  0.0000000  0.6508444  3
   6627   6640   6622   6633     1  180.0000771  0.4184000  2
   6627   6640   6622   6633     1  0.0000000  1.6024720  3
   6627   6626   6625   6632     1  0.0000000  0.6508444  3
   6631   6627   6626   6645     1  0.0000000  0.6508444  3
   6632   6625   6626   6645     1  0.0000000  0.6508444  3
   6632   6625   6623   6643     1  0.0000000  4.9162000  2
   6632   6625   6623   6643     1  0.0000000  0.6024960  3
   6633   6622   6623   6643     1  0.0000000  0.6508444  3
   6638   6633   6622   6640     1  0.0000000  4.9162000  2
   6638   6633   6622   6640     1  0.0000000  0.6024960  3
   6640   6627   6626   6645     1  0.0000000  0.6508444  3
   6640   6622   6623   6643     1  0.0000000  4.9162000  2
   6640   6622   6623   6643     1  0.0000000  0.6024960  3
   6646   6647   6649   6650     1  180.0000771  0.8368000  1
   6646   6647   6649   6650     1  180.0000771  1.0460000  2
   6646   6647   6649   6650     1  0.0000000  0.7531200  3
   6646   6647   6649   6656     1  0.0000000  0.6508444  3
   6646   6664   6651   6655     1  0.0000000  1.6038667  3
   6646   6664   6651   6650     1  180.0000771  0.4184000  2
   6646   6664   6651   6650     1  0.0000000  1.6024720  3
   6647   6649   6650   6651     1  180.0000771  0.8368000  1
   6647   6649   6650   6651     1  180.0000771  1.0460000  2
   6647   6649   6650   6651     1  0.0000000  0.7531200  3
   6647   6649   6650   6669     1  0.0000000  0.6508444  3
   6647   6646   6657   6662     1  0.0000000  0.6508444  3
   6647   6646   6664   6651     1  180.0000771  0.4184000  2
   6647   6646   6664   6651     1  0.0000000  1.6024720  3
   6649   6650   6651   6655     1  0.0000000  0.6508444  3
   6649   6650   6651   6664     1  0.0000000  0.6508444  3
   6649   6647   6646   6657     1  180.0000771  0.8368000  1
   6649   6647   6646   6657     1  180.0000771  1.0460000  2
   6649   6647   6646   6657     1  0.0000000  0.7531200  3
   6649   6647   6646   6664     1  0.0000000  0.6508444  3
   6650   6649   6647   6667     1  0.0000000  0.6508444  3
   6651   6664   6646   6657     1  180.0000771  0.4184000  2
   6651   6664   6646   6657     1  0.0000000  1.6024720  3
   6651   6650   6649   6656     1  0.0000000  0.6508444  3
   6655   6651   6650   6669     1  0.0000000  0.6508444  3
   6656   6649   6650   6669     1  0.0000000  0.6508444  3
   6656   6649   6647   6667     1  0.0000000  4.9162000  2
   6656   6649   6647   6667     1  0.0000000  0.6024960  3
   6657   6646   6647   6667     1  0.0000000  0.6508444  3
   6662   6657   6646   6664     1  0.0000000  4.9162000  2
   6662   6657   6646   6664     1  0.0000000  0.6024960  3
   6664   6651   6650   6669     1  0.0000000  0.6508444  3
   6664   6646   6647   6667     1  0.0000000  4.9162000  2
   6664   6646   6647   6667     1  0.0000000  0.6024960  3
   6671   6673   6675   6679     1  0.0000000  0.6508444  3
   6673   6675   6679   6680     1  0.0000000  0.6508444  3
   6673   6675   6679   6681     1  0.0000000  0.6508444  3
   6675   6679   6680   6691     1  0.0000000  0.6508444  3
   6675   6679   6681   6683     1  0.0000000  0.6508444  3
   6679   6680   6691   6694     1  0.0000000  0.6508444  3
   6679   6681   6683   6687     1  0.0000000  0.6508444  3
   6680   6679   6681   6683     1  0.0000000  0.6508444  3
   6680   6691   6694   6695     1  180.0000771  0.0000000  2
   6680   6691   6694   6743     1  180.0000771  0.0000000  2
   6681   6679   6680   6691     1  0.0000000  0.6508444  3
   6681   6683   6687   6688     1  180.0000771  0.0000000  2
   6681   6683   6687   6719     1  180.0000771  0.0000000  2
   6683   6687   6719   6700     1  180.0000771  6.0668000  2
   6683   6687   6719   6700     1  180.0000771  1.4644000  4
   6687   6719   6700   6699     1  0.0000000  1.2552000  3
   6687   6719   6700   6701     1  0.0000000  1.2552000  3
   6688   6687   6719   6700     1  180.0000771  6.0668000  2
   6688   6687   6719   6700     1  180.0000771  1.4644000  4
   6691   6694   6743   6724     1  180.0000771  6.0668000  2
   6691   6694   6743   6724     1  180.0000771  1.4644000  4
   6694   6743   6724   6723     1  0.0000000  1.2552000  3
   6694   6743   6724   6725     1  0.0000000  1.2552000  3
   6695   6694   6743   6724     1  180.0000771  6.0668000  2
   6695   6694   6743   6724     1  180.0000771  1.4644000  4
   6696   6697   6699   6700     1  180.0000771  0.8368000  1
   6696   6697   6699   6700     1  180.0000771  1.0460000  2
   6696   6697   6699   6700     1  0.0000000  0.7531200  3
   6696   6697   6699   6706     1  0.0000000  0.6508444  3
   6696   6714   6701   6700     1  180.0000771  0.4184000  2
   6696   6714   6701   6700     1  0.0000000  1.6024720  3
   6696   6714   6701   6705     1  0.0000000  1.6038667  3
   6697   6696   6707   6712     1  0.0000000  0.6508444  3
   6697   6696   6714   6701     1  180.0000771  0.4184000  2
   6697   6696   6714   6701     1  0.0000000  1.6024720  3
   6697   6699   6700   6701     1  180.0000771  0.8368000  1
   6697   6699   6700   6701     1  180.0000771  1.0460000  2
   6697   6699   6700   6701     1  0.0000000  0.7531200  3
   6697   6699   6700   6719     1  0.0000000  0.6508444  3
   6699   6697   6696   6707     1  180.0000771  0.8368000  1
   6699   6697   6696   6707     1  180.0000771  1.0460000  2
   6699   6697   6696   6707     1  0.0000000  0.7531200  3
   6699   6697   6696   6714     1  0.0000000  0.6508444  3
   6699   6700   6701   6705     1  0.0000000  0.6508444  3
   6699   6700   6701   6714     1  0.0000000  0.6508444  3
   6700   6699   6697   6717     1  0.0000000  0.6508444  3
   6701   6700   6699   6706     1  0.0000000  0.6508444  3
   6701   6714   6696   6707     1  180.0000771  0.4184000  2
   6701   6714   6696   6707     1  0.0000000  1.6024720  3
   6705   6701   6700   6719     1  0.0000000  0.6508444  3
   6706   6699   6697   6717     1  0.0000000  4.9162000  2
   6706   6699   6697   6717     1  0.0000000  0.6024960  3
   6706   6699   6700   6719     1  0.0000000  0.6508444  3
   6707   6696   6697   6717     1  0.0000000  0.6508444  3
   6712   6707   6696   6714     1  0.0000000  4.9162000  2
   6712   6707   6696   6714     1  0.0000000  0.6024960  3
   6714   6696   6697   6717     1  0.0000000  4.9162000  2
   6714   6696   6697   6717     1  0.0000000  0.6024960  3
   6714   6701   6700   6719     1  0.0000000  0.6508444  3
   6720   6721   6723   6724     1  180.0000771  0.8368000  1
   6720   6721   6723   6724     1  180.0000771  1.0460000  2
   6720   6721   6723   6724     1  0.0000000  0.7531200  3
   6720   6721   6723   6730     1  0.0000000  0.6508444  3
   6720   6738   6725   6724     1  180.0000771  0.4184000  2
   6720   6738   6725   6724     1  0.0000000  1.6024720  3
   6720   6738   6725   6729     1  0.0000000  1.6038667  3
   6721   6720   6731   6736     1  0.0000000  0.6508444  3
   6721   6720   6738   6725     1  180.0000771  0.4184000  2
   6721   6720   6738   6725     1  0.0000000  1.6024720  3
   6721   6723   6724   6725     1  180.0000771  0.8368000  1
   6721   6723   6724   6725     1  180.0000771  1.0460000  2
   6721   6723   6724   6725     1  0.0000000  0.7531200  3
   6721   6723   6724   6743     1  0.0000000  0.6508444  3
   6723   6721   6720   6731     1  180.0000771  0.8368000  1
   6723   6721   6720   6731     1  180.0000771  1.0460000  2
   6723   6721   6720   6731     1  0.0000000  0.7531200  3
   6723   6721   6720   6738     1  0.0000000  0.6508444  3
   6723   6724   6725   6729     1  0.0000000  0.6508444  3
   6723   6724   6725   6738     1  0.0000000  0.6508444  3
   6724   6723   6721   6741     1  0.0000000  0.6508444  3
   6725   6724   6723   6730     1  0.0000000  0.6508444  3
   6725   6738   6720   6731     1  180.0000771  0.4184000  2
   6725   6738   6720   6731     1  0.0000000  1.6024720  3
   6729   6725   6724   6743     1  0.0000000  0.6508444  3
   6730   6723   6721   6741     1  0.0000000  4.9162000  2
   6730   6723   6721   6741     1  0.0000000  0.6024960  3
   6730   6723   6724   6743     1  0.0000000  0.6508444  3
   6731   6720   6721   6741     1  0.0000000  0.6508444  3
   6736   6731   6720   6738     1  0.0000000  4.9162000  2
   6736   6731   6720   6738     1  0.0000000  0.6024960  3
   6738   6720   6721   6741     1  0.0000000  4.9162000  2
   6738   6720   6721   6741     1  0.0000000  0.6024960  3
   6738   6725   6724   6743     1  0.0000000  0.6508444  3
   6745   6747   6749   6753     1  0.0000000  0.6508444  3
   6747   6749   6753   6754     1  0.0000000  0.6508444  3
   6747   6749   6753   6755     1  0.0000000  0.6508444  3
   6749   6753   6754   6765     1  0.0000000  0.6508444  3
   6749   6753   6755   6757     1  0.0000000  0.6508444  3
   6753   6754   6765   6768     1  0.0000000  0.6508444  3
   6753   6755   6757   6761     1  0.0000000  0.6508444  3
   6754   6765   6768   6769     1  180.0000771  0.0000000  2
   6754   6765   6768   6817     1  180.0000771  0.0000000  2
   6754   6753   6755   6757     1  0.0000000  0.6508444  3
   6755   6757   6761   6762     1  180.0000771  0.0000000  2
   6755   6757   6761   6793     1  180.0000771  0.0000000  2
   6755   6753   6754   6765     1  0.0000000  0.6508444  3
   6757   6761   6793   6774     1  180.0000771  6.0668000  2
   6757   6761   6793   6774     1  180.0000771  1.4644000  4
   6761   6793   6774   6775     1  0.0000000  1.2552000  3
   6761   6793   6774   6773     1  0.0000000  1.2552000  3
   6762   6761   6793   6774     1  180.0000771  6.0668000  2
   6762   6761   6793   6774     1  180.0000771  1.4644000  4
   6765   6768   6817   6798     1  180.0000771  6.0668000  2
   6765   6768   6817   6798     1  180.0000771  1.4644000  4
   6768   6817   6798   6799     1  0.0000000  1.2552000  3
   6768   6817   6798   6797     1  0.0000000  1.2552000  3
   6769   6768   6817   6798     1  180.0000771  6.0668000  2
   6769   6768   6817   6798     1  180.0000771  1.4644000  4
   6770   6771   6773   6774     1  180.0000771  0.8368000  1
   6770   6771   6773   6774     1  180.0000771  1.0460000  2
   6770   6771   6773   6774     1  0.0000000  0.7531200  3
   6770   6771   6773   6780     1  0.0000000  0.6508444  3
   6770   6788   6775   6779     1  0.0000000  1.6038667  3
   6770   6788   6775   6774     1  180.0000771  0.4184000  2
   6770   6788   6775   6774     1  0.0000000  1.6024720  3
   6771   6773   6774   6775     1  180.0000771  0.8368000  1
   6771   6773   6774   6775     1  180.0000771  1.0460000  2
   6771   6773   6774   6775     1  0.0000000  0.7531200  3
   6771   6773   6774   6793     1  0.0000000  0.6508444  3
   6771   6770   6781   6786     1  0.0000000  0.6508444  3
   6771   6770   6788   6775     1  180.0000771  0.4184000  2
   6771   6770   6788   6775     1  0.0000000  1.6024720  3
   6773   6774   6775   6779     1  0.0000000  0.6508444  3
   6773   6774   6775   6788     1  0.0000000  0.6508444  3
   6773   6771   6770   6781     1  180.0000771  0.8368000  1
   6773   6771   6770   6781     1  180.0000771  1.0460000  2
   6773   6771   6770   6781     1  0.0000000  0.7531200  3
   6773   6771   6770   6788     1  0.0000000  0.6508444  3
   6774   6773   6771   6791     1  0.0000000  0.6508444  3
   6775   6788   6770   6781     1  180.0000771  0.4184000  2
   6775   6788   6770   6781     1  0.0000000  1.6024720  3
   6775   6774   6773   6780     1  0.0000000  0.6508444  3
   6779   6775   6774   6793     1  0.0000000  0.6508444  3
   6780   6773   6774   6793     1  0.0000000  0.6508444  3
   6780   6773   6771   6791     1  0.0000000  4.9162000  2
   6780   6773   6771   6791     1  0.0000000  0.6024960  3
   6781   6770   6771   6791     1  0.0000000  0.6508444  3
   6786   6781   6770   6788     1  0.0000000  4.9162000  2
   6786   6781   6770   6788     1  0.0000000  0.6024960  3
   6788   6775   6774   6793     1  0.0000000  0.6508444  3
   6788   6770   6771   6791     1  0.0000000  4.9162000  2
   6788   6770   6771   6791     1  0.0000000  0.6024960  3
   6794   6795   6797   6798     1  180.0000771  0.8368000  1
   6794   6795   6797   6798     1  180.0000771  1.0460000  2
   6794   6795   6797   6798     1  0.0000000  0.7531200  3
   6794   6795   6797   6804     1  0.0000000  0.6508444  3
   6794   6812   6799   6803     1  0.0000000  1.6038667  3
   6794   6812   6799   6798     1  180.0000771  0.4184000  2
   6794   6812   6799   6798     1  0.0000000  1.6024720  3
   6795   6797   6798   6799     1  180.0000771  0.8368000  1
   6795   6797   6798   6799     1  180.0000771  1.0460000  2
   6795   6797   6798   6799     1  0.0000000  0.7531200  3
   6795   6797   6798   6817     1  0.0000000  0.6508444  3
   6795   6794   6805   6810     1  0.0000000  0.6508444  3
   6795   6794   6812   6799     1  180.0000771  0.4184000  2
   6795   6794   6812   6799     1  0.0000000  1.6024720  3
   6797   6798   6799   6803     1  0.0000000  0.6508444  3
   6797   6798   6799   6812     1  0.0000000  0.6508444  3
   6797   6795   6794   6805     1  180.0000771  0.8368000  1
   6797   6795   6794   6805     1  180.0000771  1.0460000  2
   6797   6795   6794   6805     1  0.0000000  0.7531200  3
   6797   6795   6794   6812     1  0.0000000  0.6508444  3
   6798   6797   6795   6815     1  0.0000000  0.6508444  3
   6799   6812   6794   6805     1  180.0000771  0.4184000  2
   6799   6812   6794   6805     1  0.0000000  1.6024720  3
   6799   6798   6797   6804     1  0.0000000  0.6508444  3
   6803   6799   6798   6817     1  0.0000000  0.6508444  3
   6804   6797   6798   6817     1  0.0000000  0.6508444  3
   6804   6797   6795   6815     1  0.0000000  4.9162000  2
   6804   6797   6795   6815     1  0.0000000  0.6024960  3
   6805   6794   6795   6815     1  0.0000000  0.6508444  3
   6810   6805   6794   6812     1  0.0000000  4.9162000  2
   6810   6805   6794   6812     1  0.0000000  0.6024960  3
   6812   6799   6798   6817     1  0.0000000  0.6508444  3
   6812   6794   6795   6815     1  0.0000000  4.9162000  2
   6812   6794   6795   6815     1  0.0000000  0.6024960  3
   6819   6821   6823   6827     1  0.0000000  0.6508444  3
   6821   6823   6827   6828     1  0.0000000  0.6508444  3
   6821   6823   6827   6829     1  0.0000000  0.6508444  3
   6823   6827   6828   6839     1  0.0000000  0.6508444  3
   6823   6827   6829   6831     1  0.0000000  0.6508444  3
   6827   6828   6839   6842     1  0.0000000  0.6508444  3
   6827   6829   6831   6835     1  0.0000000  0.6508444  3
   6828   6827   6829   6831     1  0.0000000  0.6508444  3
   6828   6839   6842   6843     1  180.0000771  0.0000000  2
   6828   6839   6842   6891     1  180.0000771  0.0000000  2
   6829   6827   6828   6839     1  0.0000000  0.6508444  3
   6829   6831   6835   6836     1  180.0000771  0.0000000  2
   6829   6831   6835   6867     1  180.0000771  0.0000000  2
   6831   6835   6867   6848     1  180.0000771  6.0668000  2
   6831   6835   6867   6848     1  180.0000771  1.4644000  4
   6835   6867   6848   6847     1  0.0000000  1.2552000  3
   6835   6867   6848   6849     1  0.0000000  1.2552000  3
   6836   6835   6867   6848     1  180.0000771  6.0668000  2
   6836   6835   6867   6848     1  180.0000771  1.4644000  4
   6839   6842   6891   6872     1  180.0000771  6.0668000  2
   6839   6842   6891   6872     1  180.0000771  1.4644000  4
   6842   6891   6872   6871     1  0.0000000  1.2552000  3
   6842   6891   6872   6873     1  0.0000000  1.2552000  3
   6843   6842   6891   6872     1  180.0000771  6.0668000  2
   6843   6842   6891   6872     1  180.0000771  1.4644000  4
   6844   6845   6847   6848     1  180.0000771  0.8368000  1
   6844   6845   6847   6848     1  180.0000771  1.0460000  2
   6844   6845   6847   6848     1  0.0000000  0.7531200  3
   6844   6845   6847   6854     1  0.0000000  0.6508444  3
   6844   6862   6849   6848     1  180.0000771  0.4184000  2
   6844   6862   6849   6848     1  0.0000000  1.6024720  3
   6844   6862   6849   6853     1  0.0000000  1.6038667  3
   6845   6844   6855   6860     1  0.0000000  0.6508444  3
   6845   6844   6862   6849     1  180.0000771  0.4184000  2
   6845   6844   6862   6849     1  0.0000000  1.6024720  3
   6845   6847   6848   6849     1  180.0000771  0.8368000  1
   6845   6847   6848   6849     1  180.0000771  1.0460000  2
   6845   6847   6848   6849     1  0.0000000  0.7531200  3
   6845   6847   6848   6867     1  0.0000000  0.6508444  3
   6847   6845   6844   6855     1  180.0000771  0.8368000  1
   6847   6845   6844   6855     1  180.0000771  1.0460000  2
   6847   6845   6844   6855     1  0.0000000  0.7531200  3
   6847   6845   6844   6862     1  0.0000000  0.6508444  3
   6847   6848   6849   6853     1  0.0000000  0.6508444  3
   6847   6848   6849   6862     1  0.0000000  0.6508444  3
   6848   6847   6845   6865     1  0.0000000  0.6508444  3
   6849   6848   6847   6854     1  0.0000000  0.6508444  3
   6849   6862   6844   6855     1  180.0000771  0.4184000  2
   6849   6862   6844   6855     1  0.0000000  1.6024720  3
   6853   6849   6848   6867     1  0.0000000  0.6508444  3
   6854   6847   6845   6865     1  0.0000000  4.9162000  2
   6854   6847   6845   6865     1  0.0000000  0.6024960  3
   6854   6847   6848   6867     1  0.0000000  0.6508444  3
   6855   6844   6845   6865     1  0.0000000  0.6508444  3
   6860   6855   6844   6862     1  0.0000000  4.9162000  2
   6860   6855   6844   6862     1  0.0000000  0.6024960  3
   6862   6844   6845   6865     1  0.0000000  4.9162000  2
   6862   6844   6845   6865     1  0.0000000  0.6024960  3
   6862   6849   6848   6867     1  0.0000000  0.6508444  3
   6868   6869   6871   6872     1  180.0000771  0.8368000  1
   6868   6869   6871   6872     1  180.0000771  1.0460000  2
   6868   6869   6871   6872     1  0.0000000  0.7531200  3
   6868   6869   6871   6878     1  0.0000000  0.6508444  3
   6868   6886   6873   6872     1  180.0000771  0.4184000  2
   6868   6886   6873   6872     1  0.0000000  1.6024720  3
   6868   6886   6873   6877     1  0.0000000  1.6038667  3
   6869   6868   6879   6884     1  0.0000000  0.6508444  3
   6869   6868   6886   6873     1  180.0000771  0.4184000  2
   6869   6868   6886   6873     1  0.0000000  1.6024720  3
   6869   6871   6872   6873     1  180.0000771  0.8368000  1
   6869   6871   6872   6873     1  180.0000771  1.0460000  2
   6869   6871   6872   6873     1  0.0000000  0.7531200  3
   6869   6871   6872   6891     1  0.0000000  0.6508444  3
   6871   6869   6868   6879     1  180.0000771  0.8368000  1
   6871   6869   6868   6879     1  180.0000771  1.0460000  2
   6871   6869   6868   6879     1  0.0000000  0.7531200  3
   6871   6869   6868   6886     1  0.0000000  0.6508444  3
   6871   6872   6873   6877     1  0.0000000  0.6508444  3
   6871   6872   6873   6886     1  0.0000000  0.6508444  3
   6872   6871   6869   6889     1  0.0000000  0.6508444  3
   6873   6872   6871   6878     1  0.0000000  0.6508444  3
   6873   6886   6868   6879     1  180.0000771  0.4184000  2
   6873   6886   6868   6879     1  0.0000000  1.6024720  3
   6877   6873   6872   6891     1  0.0000000  0.6508444  3
   6878   6871   6869   6889     1  0.0000000  4.9162000  2
   6878   6871   6869   6889     1  0.0000000  0.6024960  3
   6878   6871   6872   6891     1  0.0000000  0.6508444  3
   6879   6868   6869   6889     1  0.0000000  0.6508444  3
   6884   6879   6868   6886     1  0.0000000  4.9162000  2
   6884   6879   6868   6886     1  0.0000000  0.6024960  3
   6886   6868   6869   6889     1  0.0000000  4.9162000  2
   6886   6868   6869   6889     1  0.0000000  0.6024960  3
   6886   6873   6872   6891     1  0.0000000  0.6508444  3
   6893   6895   6897   6901     1  0.0000000  0.6508444  3
   6895   6897   6901   6902     1  0.0000000  0.6508444  3
   6895   6897   6901   6903     1  0.0000000  0.6508444  3
   6897   6901   6902   6913     1  0.0000000  0.6508444  3
   6897   6901   6903   6905     1  0.0000000  0.6508444  3
   6901   6902   6913   6916     1  0.0000000  0.6508444  3
   6901   6903   6905   6909     1  0.0000000  0.6508444  3
   6902   6913   6916   6917     1  180.0000771  0.0000000  2
   6902   6913   6916   6965     1  180.0000771  0.0000000  2
   6902   6901   6903   6905     1  0.0000000  0.6508444  3
   6903   6905   6909   6910     1  180.0000771  0.0000000  2
   6903   6905   6909   6941     1  180.0000771  0.0000000  2
   6903   6901   6902   6913     1  0.0000000  0.6508444  3
   6905   6909   6941   6922     1  180.0000771  6.0668000  2
   6905   6909   6941   6922     1  180.0000771  1.4644000  4
   6909   6941   6922   6923     1  0.0000000  1.2552000  3
   6909   6941   6922   6921     1  0.0000000  1.2552000  3
   6910   6909   6941   6922     1  180.0000771  6.0668000  2
   6910   6909   6941   6922     1  180.0000771  1.4644000  4
   6913   6916   6965   6946     1  180.0000771  6.0668000  2
   6913   6916   6965   6946     1  180.0000771  1.4644000  4
   6916   6965   6946   6947     1  0.0000000  1.2552000  3
   6916   6965   6946   6945     1  0.0000000  1.2552000  3
   6917   6916   6965   6946     1  180.0000771  6.0668000  2
   6917   6916   6965   6946     1  180.0000771  1.4644000  4
   6918   6919   6921   6922     1  180.0000771  0.8368000  1
   6918   6919   6921   6922     1  180.0000771  1.0460000  2
   6918   6919   6921   6922     1  0.0000000  0.7531200  3
   6918   6919   6921   6928     1  0.0000000  0.6508444  3
   6918   6936   6923   6927     1  0.0000000  1.6038667  3
   6918   6936   6923   6922     1  180.0000771  0.4184000  2
   6918   6936   6923   6922     1  0.0000000  1.6024720  3
   6919   6921   6922   6923     1  180.0000771  0.8368000  1
   6919   6921   6922   6923     1  180.0000771  1.0460000  2
   6919   6921   6922   6923     1  0.0000000  0.7531200  3
   6919   6921   6922   6941     1  0.0000000  0.6508444  3
   6919   6918   6929   6934     1  0.0000000  0.6508444  3
   6919   6918   6936   6923     1  180.0000771  0.4184000  2
   6919   6918   6936   6923     1  0.0000000  1.6024720  3
   6921   6922   6923   6927     1  0.0000000  0.6508444  3
   6921   6922   6923   6936     1  0.0000000  0.6508444  3
   6921   6919   6918   6929     1  180.0000771  0.8368000  1
   6921   6919   6918   6929     1  180.0000771  1.0460000  2
   6921   6919   6918   6929     1  0.0000000  0.7531200  3
   6921   6919   6918   6936     1  0.0000000  0.6508444  3
   6922   6921   6919   6939     1  0.0000000  0.6508444  3
   6923   6936   6918   6929     1  180.0000771  0.4184000  2
   6923   6936   6918   6929     1  0.0000000  1.6024720  3
   6923   6922   6921   6928     1  0.0000000  0.6508444  3
   6927   6923   6922   6941     1  0.0000000  0.6508444  3
   6928   6921   6922   6941     1  0.0000000  0.6508444  3
   6928   6921   6919   6939     1  0.0000000  4.9162000  2
   6928   6921   6919   6939     1  0.0000000  0.6024960  3
   6929   6918   6919   6939     1  0.0000000  0.6508444  3
   6934   6929   6918   6936     1  0.0000000  4.9162000  2
   6934   6929   6918   6936     1  0.0000000  0.6024960  3
   6936   6923   6922   6941     1  0.0000000  0.6508444  3
   6936   6918   6919   6939     1  0.0000000  4.9162000  2
   6936   6918   6919   6939     1  0.0000000  0.6024960  3
   6942   6943   6945   6946     1  180.0000771  0.8368000  1
   6942   6943   6945   6946     1  180.0000771  1.0460000  2
   6942   6943   6945   6946     1  0.0000000  0.7531200  3
   6942   6943   6945   6952     1  0.0000000  0.6508444  3
   6942   6960   6947   6951     1  0.0000000  1.6038667  3
   6942   6960   6947   6946     1  180.0000771  0.4184000  2
   6942   6960   6947   6946     1  0.0000000  1.6024720  3
   6943   6945   6946   6947     1  180.0000771  0.8368000  1
   6943   6945   6946   6947     1  180.0000771  1.0460000  2
   6943   6945   6946   6947     1  0.0000000  0.7531200  3
   6943   6945   6946   6965     1  0.0000000  0.6508444  3
   6943   6942   6953   6958     1  0.0000000  0.6508444  3
   6943   6942   6960   6947     1  180.0000771  0.4184000  2
   6943   6942   6960   6947     1  0.0000000  1.6024720  3
   6945   6946   6947   6951     1  0.0000000  0.6508444  3
   6945   6946   6947   6960     1  0.0000000  0.6508444  3
   6945   6943   6942   6953     1  180.0000771  0.8368000  1
   6945   6943   6942   6953     1  180.0000771  1.0460000  2
   6945   6943   6942   6953     1  0.0000000  0.7531200  3
   6945   6943   6942   6960     1  0.0000000  0.6508444  3
   6946   6945   6943   6963     1  0.0000000  0.6508444  3
   6947   6960   6942   6953     1  180.0000771  0.4184000  2
   6947   6960   6942   6953     1  0.0000000  1.6024720  3
   6947   6946   6945   6952     1  0.0000000  0.6508444  3
   6951   6947   6946   6965     1  0.0000000  0.6508444  3
   6952   6945   6946   6965     1  0.0000000  0.6508444  3
   6952   6945   6943   6963     1  0.0000000  4.9162000  2
   6952   6945   6943   6963     1  0.0000000  0.6024960  3
   6953   6942   6943   6963     1  0.0000000  0.6508444  3
   6958   6953   6942   6960     1  0.0000000  4.9162000  2
   6958   6953   6942   6960     1  0.0000000  0.6024960  3
   6960   6947   6946   6965     1  0.0000000  0.6508444  3
   6960   6942   6943   6963     1  0.0000000  4.9162000  2
   6960   6942   6943   6963     1  0.0000000  0.6024960  3
   6967   6969   6971   6975     1  0.0000000  0.6508444  3
   6969   6971   6975   6976     1  0.0000000  0.6508444  3
   6969   6971   6975   6977     1  0.0000000  0.6508444  3
   6971   6975   6976   6987     1  0.0000000  0.6508444  3
   6971   6975   6977   6979     1  0.0000000  0.6508444  3
   6975   6976   6987   6990     1  0.0000000  0.6508444  3
   6975   6977   6979   6983     1  0.0000000  0.6508444  3
   6976   6975   6977   6979     1  0.0000000  0.6508444  3
   6976   6987   6990   6991     1  180.0000771  0.0000000  2
   6976   6987   6990   7039     1  180.0000771  0.0000000  2
   6977   6975   6976   6987     1  0.0000000  0.6508444  3
   6977   6979   6983   6984     1  180.0000771  0.0000000  2
   6977   6979   6983   7015     1  180.0000771  0.0000000  2
   6979   6983   7015   6996     1  180.0000771  6.0668000  2
   6979   6983   7015   6996     1  180.0000771  1.4644000  4
   6983   7015   6996   6995     1  0.0000000  1.2552000  3
   6983   7015   6996   6997     1  0.0000000  1.2552000  3
   6984   6983   7015   6996     1  180.0000771  6.0668000  2
   6984   6983   7015   6996     1  180.0000771  1.4644000  4
   6987   6990   7039   7020     1  180.0000771  6.0668000  2
   6987   6990   7039   7020     1  180.0000771  1.4644000  4
   6990   7039   7020   7019     1  0.0000000  1.2552000  3
   6990   7039   7020   7021     1  0.0000000  1.2552000  3
   6991   6990   7039   7020     1  180.0000771  6.0668000  2
   6991   6990   7039   7020     1  180.0000771  1.4644000  4
   6992   6993   6995   6996     1  180.0000771  0.8368000  1
   6992   6993   6995   6996     1  180.0000771  1.0460000  2
   6992   6993   6995   6996     1  0.0000000  0.7531200  3
   6992   6993   6995   7002     1  0.0000000  0.6508444  3
   6992   7010   6997   6996     1  180.0000771  0.4184000  2
   6992   7010   6997   6996     1  0.0000000  1.6024720  3
   6992   7010   6997   7001     1  0.0000000  1.6038667  3
   6993   6992   7003   7008     1  0.0000000  0.6508444  3
   6993   6992   7010   6997     1  180.0000771  0.4184000  2
   6993   6992   7010   6997     1  0.0000000  1.6024720  3
   6993   6995   6996   6997     1  180.0000771  0.8368000  1
   6993   6995   6996   6997     1  180.0000771  1.0460000  2
   6993   6995   6996   6997     1  0.0000000  0.7531200  3
   6993   6995   6996   7015     1  0.0000000  0.6508444  3
   6995   6993   6992   7003     1  180.0000771  0.8368000  1
   6995   6993   6992   7003     1  180.0000771  1.0460000  2
   6995   6993   6992   7003     1  0.0000000  0.7531200  3
   6995   6993   6992   7010     1  0.0000000  0.6508444  3
   6995   6996   6997   7001     1  0.0000000  0.6508444  3
   6995   6996   6997   7010     1  0.0000000  0.6508444  3
   6996   6995   6993   7013     1  0.0000000  0.6508444  3
   6997   6996   6995   7002     1  0.0000000  0.6508444  3
   6997   7010   6992   7003     1  180.0000771  0.4184000  2
   6997   7010   6992   7003     1  0.0000000  1.6024720  3
   7001   6997   6996   7015     1  0.0000000  0.6508444  3
   7002   6995   6993   7013     1  0.0000000  4.9162000  2
   7002   6995   6993   7013     1  0.0000000  0.6024960  3
   7002   6995   6996   7015     1  0.0000000  0.6508444  3
   7003   6992   6993   7013     1  0.0000000  0.6508444  3
   7008   7003   6992   7010     1  0.0000000  4.9162000  2
   7008   7003   6992   7010     1  0.0000000  0.6024960  3
   7010   6992   6993   7013     1  0.0000000  4.9162000  2
   7010   6992   6993   7013     1  0.0000000  0.6024960  3
   7010   6997   6996   7015     1  0.0000000  0.6508444  3
   7016   7017   7019   7020     1  180.0000771  0.8368000  1
   7016   7017   7019   7020     1  180.0000771  1.0460000  2
   7016   7017   7019   7020     1  0.0000000  0.7531200  3
   7016   7017   7019   7026     1  0.0000000  0.6508444  3
   7016   7034   7021   7020     1  180.0000771  0.4184000  2
   7016   7034   7021   7020     1  0.0000000  1.6024720  3
   7016   7034   7021   7025     1  0.0000000  1.6038667  3
   7017   7016   7027   7032     1  0.0000000  0.6508444  3
   7017   7016   7034   7021     1  180.0000771  0.4184000  2
   7017   7016   7034   7021     1  0.0000000  1.6024720  3
   7017   7019   7020   7021     1  180.0000771  0.8368000  1
   7017   7019   7020   7021     1  180.0000771  1.0460000  2
   7017   7019   7020   7021     1  0.0000000  0.7531200  3
   7017   7019   7020   7039     1  0.0000000  0.6508444  3
   7019   7017   7016   7027     1  180.0000771  0.8368000  1
   7019   7017   7016   7027     1  180.0000771  1.0460000  2
   7019   7017   7016   7027     1  0.0000000  0.7531200  3
   7019   7017   7016   7034     1  0.0000000  0.6508444  3
   7019   7020   7021   7025     1  0.0000000  0.6508444  3
   7019   7020   7021   7034     1  0.0000000  0.6508444  3
   7020   7019   7017   7037     1  0.0000000  0.6508444  3
   7021   7020   7019   7026     1  0.0000000  0.6508444  3
   7021   7034   7016   7027     1  180.0000771  0.4184000  2
   7021   7034   7016   7027     1  0.0000000  1.6024720  3
   7025   7021   7020   7039     1  0.0000000  0.6508444  3
   7026   7019   7017   7037     1  0.0000000  4.9162000  2
   7026   7019   7017   7037     1  0.0000000  0.6024960  3
   7026   7019   7020   7039     1  0.0000000  0.6508444  3
   7027   7016   7017   7037     1  0.0000000  0.6508444  3
   7032   7027   7016   7034     1  0.0000000  4.9162000  2
   7032   7027   7016   7034     1  0.0000000  0.6024960  3
   7034   7016   7017   7037     1  0.0000000  4.9162000  2
   7034   7016   7017   7037     1  0.0000000  0.6024960  3
   7034   7021   7020   7039     1  0.0000000  0.6508444  3
   7041   7043   7045   7049     1  0.0000000  0.6508444  3
   7043   7045   7049   7050     1  0.0000000  0.6508444  3
   7043   7045   7049   7051     1  0.0000000  0.6508444  3
   7045   7049   7050   7061     1  0.0000000  0.6508444  3
   7045   7049   7051   7053     1  0.0000000  0.6508444  3
   7049   7050   7061   7064     1  0.0000000  0.6508444  3
   7049   7051   7053   7057     1  0.0000000  0.6508444  3
   7050   7061   7064   7065     1  180.0000771  0.0000000  2
   7050   7061   7064   7113     1  180.0000771  0.0000000  2
   7050   7049   7051   7053     1  0.0000000  0.6508444  3
   7051   7053   7057   7058     1  180.0000771  0.0000000  2
   7051   7053   7057   7089     1  180.0000771  0.0000000  2
   7051   7049   7050   7061     1  0.0000000  0.6508444  3
   7053   7057   7089   7070     1  180.0000771  6.0668000  2
   7053   7057   7089   7070     1  180.0000771  1.4644000  4
   7057   7089   7070   7071     1  0.0000000  1.2552000  3
   7057   7089   7070   7069     1  0.0000000  1.2552000  3
   7058   7057   7089   7070     1  180.0000771  6.0668000  2
   7058   7057   7089   7070     1  180.0000771  1.4644000  4
   7061   7064   7113   7094     1  180.0000771  6.0668000  2
   7061   7064   7113   7094     1  180.0000771  1.4644000  4
   7064   7113   7094   7095     1  0.0000000  1.2552000  3
   7064   7113   7094   7093     1  0.0000000  1.2552000  3
   7065   7064   7113   7094     1  180.0000771  6.0668000  2
   7065   7064   7113   7094     1  180.0000771  1.4644000  4
   7066   7067   7069   7070     1  180.0000771  0.8368000  1
   7066   7067   7069   7070     1  180.0000771  1.0460000  2
   7066   7067   7069   7070     1  0.0000000  0.7531200  3
   7066   7067   7069   7076     1  0.0000000  0.6508444  3
   7066   7084   7071   7075     1  0.0000000  1.6038667  3
   7066   7084   7071   7070     1  180.0000771  0.4184000  2
   7066   7084   7071   7070     1  0.0000000  1.6024720  3
   7067   7069   7070   7071     1  180.0000771  0.8368000  1
   7067   7069   7070   7071     1  180.0000771  1.0460000  2
   7067   7069   7070   7071     1  0.0000000  0.7531200  3
   7067   7069   7070   7089     1  0.0000000  0.6508444  3
   7067   7066   7077   7082     1  0.0000000  0.6508444  3
   7067   7066   7084   7071     1  180.0000771  0.4184000  2
   7067   7066   7084   7071     1  0.0000000  1.6024720  3
   7069   7070   7071   7075     1  0.0000000  0.6508444  3
   7069   7070   7071   7084     1  0.0000000  0.6508444  3
   7069   7067   7066   7077     1  180.0000771  0.8368000  1
   7069   7067   7066   7077     1  180.0000771  1.0460000  2
   7069   7067   7066   7077     1  0.0000000  0.7531200  3
   7069   7067   7066   7084     1  0.0000000  0.6508444  3
   7070   7069   7067   7087     1  0.0000000  0.6508444  3
   7071   7084   7066   7077     1  180.0000771  0.4184000  2
   7071   7084   7066   7077     1  0.0000000  1.6024720  3
   7071   7070   7069   7076     1  0.0000000  0.6508444  3
   7075   7071   7070   7089     1  0.0000000  0.6508444  3
   7076   7069   7070   7089     1  0.0000000  0.6508444  3
   7076   7069   7067   7087     1  0.0000000  4.9162000  2
   7076   7069   7067   7087     1  0.0000000  0.6024960  3
   7077   7066   7067   7087     1  0.0000000  0.6508444  3
   7082   7077   7066   7084     1  0.0000000  4.9162000  2
   7082   7077   7066   7084     1  0.0000000  0.6024960  3
   7084   7071   7070   7089     1  0.0000000  0.6508444  3
   7084   7066   7067   7087     1  0.0000000  4.9162000  2
   7084   7066   7067   7087     1  0.0000000  0.6024960  3
   7090   7091   7093   7094     1  180.0000771  0.8368000  1
   7090   7091   7093   7094     1  180.0000771  1.0460000  2
   7090   7091   7093   7094     1  0.0000000  0.7531200  3
   7090   7091   7093   7100     1  0.0000000  0.6508444  3
   7090   7108   7095   7099     1  0.0000000  1.6038667  3
   7090   7108   7095   7094     1  180.0000771  0.4184000  2
   7090   7108   7095   7094     1  0.0000000  1.6024720  3
   7091   7093   7094   7095     1  180.0000771  0.8368000  1
   7091   7093   7094   7095     1  180.0000771  1.0460000  2
   7091   7093   7094   7095     1  0.0000000  0.7531200  3
   7091   7093   7094   7113     1  0.0000000  0.6508444  3
   7091   7090   7101   7106     1  0.0000000  0.6508444  3
   7091   7090   7108   7095     1  180.0000771  0.4184000  2
   7091   7090   7108   7095     1  0.0000000  1.6024720  3
   7093   7094   7095   7099     1  0.0000000  0.6508444  3
   7093   7094   7095   7108     1  0.0000000  0.6508444  3
   7093   7091   7090   7101     1  180.0000771  0.8368000  1
   7093   7091   7090   7101     1  180.0000771  1.0460000  2
   7093   7091   7090   7101     1  0.0000000  0.7531200  3
   7093   7091   7090   7108     1  0.0000000  0.6508444  3
   7094   7093   7091   7111     1  0.0000000  0.6508444  3
   7095   7108   7090   7101     1  180.0000771  0.4184000  2
   7095   7108   7090   7101     1  0.0000000  1.6024720  3
   7095   7094   7093   7100     1  0.0000000  0.6508444  3
   7099   7095   7094   7113     1  0.0000000  0.6508444  3
   7100   7093   7094   7113     1  0.0000000  0.6508444  3
   7100   7093   7091   7111     1  0.0000000  4.9162000  2
   7100   7093   7091   7111     1  0.0000000  0.6024960  3
   7101   7090   7091   7111     1  0.0000000  0.6508444  3
   7106   7101   7090   7108     1  0.0000000  4.9162000  2
   7106   7101   7090   7108     1  0.0000000  0.6024960  3
   7108   7095   7094   7113     1  0.0000000  0.6508444  3
   7108   7090   7091   7111     1  0.0000000  4.9162000  2
   7108   7090   7091   7111     1  0.0000000  0.6024960  3
   7115   7117   7119   7123     1  0.0000000  0.6508444  3
   7117   7119   7123   7124     1  0.0000000  0.6508444  3
   7117   7119   7123   7125     1  0.0000000  0.6508444  3
   7119   7123   7124   7135     1  0.0000000  0.6508444  3
   7119   7123   7125   7127     1  0.0000000  0.6508444  3
   7123   7124   7135   7138     1  0.0000000  0.6508444  3
   7123   7125   7127   7131     1  0.0000000  0.6508444  3
   7124   7123   7125   7127     1  0.0000000  0.6508444  3
   7124   7135   7138   7139     1  180.0000771  0.0000000  2
   7124   7135   7138   7187     1  180.0000771  0.0000000  2
   7125   7123   7124   7135     1  0.0000000  0.6508444  3
   7125   7127   7131   7132     1  180.0000771  0.0000000  2
   7125   7127   7131   7163     1  180.0000771  0.0000000  2
   7127   7131   7163   7144     1  180.0000771  6.0668000  2
   7127   7131   7163   7144     1  180.0000771  1.4644000  4
   7131   7163   7144   7143     1  0.0000000  1.2552000  3
   7131   7163   7144   7145     1  0.0000000  1.2552000  3
   7132   7131   7163   7144     1  180.0000771  6.0668000  2
   7132   7131   7163   7144     1  180.0000771  1.4644000  4
   7135   7138   7187   7168     1  180.0000771  6.0668000  2
   7135   7138   7187   7168     1  180.0000771  1.4644000  4
   7138   7187   7168   7167     1  0.0000000  1.2552000  3
   7138   7187   7168   7169     1  0.0000000  1.2552000  3
   7139   7138   7187   7168     1  180.0000771  6.0668000  2
   7139   7138   7187   7168     1  180.0000771  1.4644000  4
   7140   7141   7143   7144     1  180.0000771  0.8368000  1
   7140   7141   7143   7144     1  180.0000771  1.0460000  2
   7140   7141   7143   7144     1  0.0000000  0.7531200  3
   7140   7141   7143   7150     1  0.0000000  0.6508444  3
   7140   7158   7145   7144     1  180.0000771  0.4184000  2
   7140   7158   7145   7144     1  0.0000000  1.6024720  3
   7140   7158   7145   7149     1  0.0000000  1.6038667  3
   7141   7140   7151   7156     1  0.0000000  0.6508444  3
   7141   7140   7158   7145     1  180.0000771  0.4184000  2
   7141   7140   7158   7145     1  0.0000000  1.6024720  3
   7141   7143   7144   7145     1  180.0000771  0.8368000  1
   7141   7143   7144   7145     1  180.0000771  1.0460000  2
   7141   7143   7144   7145     1  0.0000000  0.7531200  3
   7141   7143   7144   7163     1  0.0000000  0.6508444  3
   7143   7141   7140   7151     1  180.0000771  0.8368000  1
   7143   7141   7140   7151     1  180.0000771  1.0460000  2
   7143   7141   7140   7151     1  0.0000000  0.7531200  3
   7143   7141   7140   7158     1  0.0000000  0.6508444  3
   7143   7144   7145   7149     1  0.0000000  0.6508444  3
   7143   7144   7145   7158     1  0.0000000  0.6508444  3
   7144   7143   7141   7161     1  0.0000000  0.6508444  3
   7145   7144   7143   7150     1  0.0000000  0.6508444  3
   7145   7158   7140   7151     1  180.0000771  0.4184000  2
   7145   7158   7140   7151     1  0.0000000  1.6024720  3
   7149   7145   7144   7163     1  0.0000000  0.6508444  3
   7150   7143   7141   7161     1  0.0000000  4.9162000  2
   7150   7143   7141   7161     1  0.0000000  0.6024960  3
   7150   7143   7144   7163     1  0.0000000  0.6508444  3
   7151   7140   7141   7161     1  0.0000000  0.6508444  3
   7156   7151   7140   7158     1  0.0000000  4.9162000  2
   7156   7151   7140   7158     1  0.0000000  0.6024960  3
   7158   7140   7141   7161     1  0.0000000  4.9162000  2
   7158   7140   7141   7161     1  0.0000000  0.6024960  3
   7158   7145   7144   7163     1  0.0000000  0.6508444  3
   7164   7165   7167   7168     1  180.0000771  0.8368000  1
   7164   7165   7167   7168     1  180.0000771  1.0460000  2
   7164   7165   7167   7168     1  0.0000000  0.7531200  3
   7164   7165   7167   7174     1  0.0000000  0.6508444  3
   7164   7182   7169   7168     1  180.0000771  0.4184000  2
   7164   7182   7169   7168     1  0.0000000  1.6024720  3
   7164   7182   7169   7173     1  0.0000000  1.6038667  3
   7165   7164   7175   7180     1  0.0000000  0.6508444  3
   7165   7164   7182   7169     1  180.0000771  0.4184000  2
   7165   7164   7182   7169     1  0.0000000  1.6024720  3
   7165   7167   7168   7169     1  180.0000771  0.8368000  1
   7165   7167   7168   7169     1  180.0000771  1.0460000  2
   7165   7167   7168   7169     1  0.0000000  0.7531200  3
   7165   7167   7168   7187     1  0.0000000  0.6508444  3
   7167   7165   7164   7175     1  180.0000771  0.8368000  1
   7167   7165   7164   7175     1  180.0000771  1.0460000  2
   7167   7165   7164   7175     1  0.0000000  0.7531200  3
   7167   7165   7164   7182     1  0.0000000  0.6508444  3
   7167   7168   7169   7173     1  0.0000000  0.6508444  3
   7167   7168   7169   7182     1  0.0000000  0.6508444  3
   7168   7167   7165   7185     1  0.0000000  0.6508444  3
   7169   7168   7167   7174     1  0.0000000  0.6508444  3
   7169   7182   7164   7175     1  180.0000771  0.4184000  2
   7169   7182   7164   7175     1  0.0000000  1.6024720  3
   7173   7169   7168   7187     1  0.0000000  0.6508444  3
   7174   7167   7165   7185     1  0.0000000  4.9162000  2
   7174   7167   7165   7185     1  0.0000000  0.6024960  3
   7174   7167   7168   7187     1  0.0000000  0.6508444  3
   7175   7164   7165   7185     1  0.0000000  0.6508444  3
   7180   7175   7164   7182     1  0.0000000  4.9162000  2
   7180   7175   7164   7182     1  0.0000000  0.6024960  3
   7182   7164   7165   7185     1  0.0000000  4.9162000  2
   7182   7164   7165   7185     1  0.0000000  0.6024960  3
   7182   7169   7168   7187     1  0.0000000  0.6508444  3
   7189   7191   7193   7197     1  0.0000000  0.6508444  3
   7191   7193   7197   7198     1  0.0000000  0.6508444  3
   7191   7193   7197   7199     1  0.0000000  0.6508444  3
   7193   7197   7198   7209     1  0.0000000  0.6508444  3
   7193   7197   7199   7201     1  0.0000000  0.6508444  3
   7197   7198   7209   7212     1  0.0000000  0.6508444  3
   7197   7199   7201   7205     1  0.0000000  0.6508444  3
   7198   7209   7212   7213     1  180.0000771  0.0000000  2
   7198   7209   7212   7261     1  180.0000771  0.0000000  2
   7198   7197   7199   7201     1  0.0000000  0.6508444  3
   7199   7201   7205   7206     1  180.0000771  0.0000000  2
   7199   7201   7205   7237     1  180.0000771  0.0000000  2
   7199   7197   7198   7209     1  0.0000000  0.6508444  3
   7201   7205   7237   7218     1  180.0000771  6.0668000  2
   7201   7205   7237   7218     1  180.0000771  1.4644000  4
   7205   7237   7218   7219     1  0.0000000  1.2552000  3
   7205   7237   7218   7217     1  0.0000000  1.2552000  3
   7206   7205   7237   7218     1  180.0000771  6.0668000  2
   7206   7205   7237   7218     1  180.0000771  1.4644000  4
   7209   7212   7261   7242     1  180.0000771  6.0668000  2
   7209   7212   7261   7242     1  180.0000771  1.4644000  4
   7212   7261   7242   7243     1  0.0000000  1.2552000  3
   7212   7261   7242   7241     1  0.0000000  1.2552000  3
   7213   7212   7261   7242     1  180.0000771  6.0668000  2
   7213   7212   7261   7242     1  180.0000771  1.4644000  4
   7214   7215   7217   7218     1  180.0000771  0.8368000  1
   7214   7215   7217   7218     1  180.0000771  1.0460000  2
   7214   7215   7217   7218     1  0.0000000  0.7531200  3
   7214   7215   7217   7224     1  0.0000000  0.6508444  3
   7214   7232   7219   7223     1  0.0000000  1.6038667  3
   7214   7232   7219   7218     1  180.0000771  0.4184000  2
   7214   7232   7219   7218     1  0.0000000  1.6024720  3
   7215   7217   7218   7219     1  180.0000771  0.8368000  1
   7215   7217   7218   7219     1  180.0000771  1.0460000  2
   7215   7217   7218   7219     1  0.0000000  0.7531200  3
   7215   7217   7218   7237     1  0.0000000  0.6508444  3
   7215   7214   7225   7230     1  0.0000000  0.6508444  3
   7215   7214   7232   7219     1  180.0000771  0.4184000  2
   7215   7214   7232   7219     1  0.0000000  1.6024720  3
   7217   7218   7219   7223     1  0.0000000  0.6508444  3
   7217   7218   7219   7232     1  0.0000000  0.6508444  3
   7217   7215   7214   7225     1  180.0000771  0.8368000  1
   7217   7215   7214   7225     1  180.0000771  1.0460000  2
   7217   7215   7214   7225     1  0.0000000  0.7531200  3
   7217   7215   7214   7232     1  0.0000000  0.6508444  3
   7218   7217   7215   7235     1  0.0000000  0.6508444  3
   7219   7232   7214   7225     1  180.0000771  0.4184000  2
   7219   7232   7214   7225     1  0.0000000  1.6024720  3
   7219   7218   7217   7224     1  0.0000000  0.6508444  3
   7223   7219   7218   7237     1  0.0000000  0.6508444  3
   7224   7217   7218   7237     1  0.0000000  0.6508444  3
   7224   7217   7215   7235     1  0.0000000  4.9162000  2
   7224   7217   7215   7235     1  0.0000000  0.6024960  3
   7225   7214   7215   7235     1  0.0000000  0.6508444  3
   7230   7225   7214   7232     1  0.0000000  4.9162000  2
   7230   7225   7214   7232     1  0.0000000  0.6024960  3
   7232   7219   7218   7237     1  0.0000000  0.6508444  3
   7232   7214   7215   7235     1  0.0000000  4.9162000  2
   7232   7214   7215   7235     1  0.0000000  0.6024960  3
   7238   7239   7241   7242     1  180.0000771  0.8368000  1
   7238   7239   7241   7242     1  180.0000771  1.0460000  2
   7238   7239   7241   7242     1  0.0000000  0.7531200  3
   7238   7239   7241   7248     1  0.0000000  0.6508444  3
   7238   7256   7243   7247     1  0.0000000  1.6038667  3
   7238   7256   7243   7242     1  180.0000771  0.4184000  2
   7238   7256   7243   7242     1  0.0000000  1.6024720  3
   7239   7241   7242   7243     1  180.0000771  0.8368000  1
   7239   7241   7242   7243     1  180.0000771  1.0460000  2
   7239   7241   7242   7243     1  0.0000000  0.7531200  3
   7239   7241   7242   7261     1  0.0000000  0.6508444  3
   7239   7238   7249   7254     1  0.0000000  0.6508444  3
   7239   7238   7256   7243     1  180.0000771  0.4184000  2
   7239   7238   7256   7243     1  0.0000000  1.6024720  3
   7241   7242   7243   7247     1  0.0000000  0.6508444  3
   7241   7242   7243   7256     1  0.0000000  0.6508444  3
   7241   7239   7238   7249     1  180.0000771  0.8368000  1
   7241   7239   7238   7249     1  180.0000771  1.0460000  2
   7241   7239   7238   7249     1  0.0000000  0.7531200  3
   7241   7239   7238   7256     1  0.0000000  0.6508444  3
   7242   7241   7239   7259     1  0.0000000  0.6508444  3
   7243   7256   7238   7249     1  180.0000771  0.4184000  2
   7243   7256   7238   7249     1  0.0000000  1.6024720  3
   7243   7242   7241   7248     1  0.0000000  0.6508444  3
   7247   7243   7242   7261     1  0.0000000  0.6508444  3
   7248   7241   7242   7261     1  0.0000000  0.6508444  3
   7248   7241   7239   7259     1  0.0000000  4.9162000  2
   7248   7241   7239   7259     1  0.0000000  0.6024960  3
   7249   7238   7239   7259     1  0.0000000  0.6508444  3
   7254   7249   7238   7256     1  0.0000000  4.9162000  2
   7254   7249   7238   7256     1  0.0000000  0.6024960  3
   7256   7243   7242   7261     1  0.0000000  0.6508444  3
   7256   7238   7239   7259     1  0.0000000  4.9162000  2
   7256   7238   7239   7259     1  0.0000000  0.6024960  3
   7263   7265   7267   7271     1  0.0000000  0.6508444  3
   7265   7267   7271   7272     1  0.0000000  0.6508444  3
   7265   7267   7271   7273     1  0.0000000  0.6508444  3
   7267   7271   7272   7283     1  0.0000000  0.6508444  3
   7267   7271   7273   7275     1  0.0000000  0.6508444  3
   7271   7272   7283   7286     1  0.0000000  0.6508444  3
   7271   7273   7275   7279     1  0.0000000  0.6508444  3
   7272   7271   7273   7275     1  0.0000000  0.6508444  3
   7272   7283   7286   7287     1  180.0000771  0.0000000  2
   7272   7283   7286   7335     1  180.0000771  0.0000000  2
   7273   7271   7272   7283     1  0.0000000  0.6508444  3
   7273   7275   7279   7280     1  180.0000771  0.0000000  2
   7273   7275   7279   7311     1  180.0000771  0.0000000  2
   7275   7279   7311   7292     1  180.0000771  6.0668000  2
   7275   7279   7311   7292     1  180.0000771  1.4644000  4
   7279   7311   7292   7291     1  0.0000000  1.2552000  3
   7279   7311   7292   7293     1  0.0000000  1.2552000  3
   7280   7279   7311   7292     1  180.0000771  6.0668000  2
   7280   7279   7311   7292     1  180.0000771  1.4644000  4
   7283   7286   7335   7316     1  180.0000771  6.0668000  2
   7283   7286   7335   7316     1  180.0000771  1.4644000  4
   7286   7335   7316   7315     1  0.0000000  1.2552000  3
   7286   7335   7316   7317     1  0.0000000  1.2552000  3
   7287   7286   7335   7316     1  180.0000771  6.0668000  2
   7287   7286   7335   7316     1  180.0000771  1.4644000  4
   7288   7289   7291   7292     1  180.0000771  0.8368000  1
   7288   7289   7291   7292     1  180.0000771  1.0460000  2
   7288   7289   7291   7292     1  0.0000000  0.7531200  3
   7288   7289   7291   7298     1  0.0000000  0.6508444  3
   7288   7306   7293   7292     1  180.0000771  0.4184000  2
   7288   7306   7293   7292     1  0.0000000  1.6024720  3
   7288   7306   7293   7297     1  0.0000000  1.6038667  3
   7289   7288   7299   7304     1  0.0000000  0.6508444  3
   7289   7288   7306   7293     1  180.0000771  0.4184000  2
   7289   7288   7306   7293     1  0.0000000  1.6024720  3
   7289   7291   7292   7293     1  180.0000771  0.8368000  1
   7289   7291   7292   7293     1  180.0000771  1.0460000  2
   7289   7291   7292   7293     1  0.0000000  0.7531200  3
   7289   7291   7292   7311     1  0.0000000  0.6508444  3
   7291   7289   7288   7299     1  180.0000771  0.8368000  1
   7291   7289   7288   7299     1  180.0000771  1.0460000  2
   7291   7289   7288   7299     1  0.0000000  0.7531200  3
   7291   7289   7288   7306     1  0.0000000  0.6508444  3
   7291   7292   7293   7297     1  0.0000000  0.6508444  3
   7291   7292   7293   7306     1  0.0000000  0.6508444  3
   7292   7291   7289   7309     1  0.0000000  0.6508444  3
   7293   7292   7291   7298     1  0.0000000  0.6508444  3
   7293   7306   7288   7299     1  180.0000771  0.4184000  2
   7293   7306   7288   7299     1  0.0000000  1.6024720  3
   7297   7293   7292   7311     1  0.0000000  0.6508444  3
   7298   7291   7289   7309     1  0.0000000  4.9162000  2
   7298   7291   7289   7309     1  0.0000000  0.6024960  3
   7298   7291   7292   7311     1  0.0000000  0.6508444  3
   7299   7288   7289   7309     1  0.0000000  0.6508444  3
   7304   7299   7288   7306     1  0.0000000  4.9162000  2
   7304   7299   7288   7306     1  0.0000000  0.6024960  3
   7306   7288   7289   7309     1  0.0000000  4.9162000  2
   7306   7288   7289   7309     1  0.0000000  0.6024960  3
   7306   7293   7292   7311     1  0.0000000  0.6508444  3
   7312   7313   7315   7316     1  180.0000771  0.8368000  1
   7312   7313   7315   7316     1  180.0000771  1.0460000  2
   7312   7313   7315   7316     1  0.0000000  0.7531200  3
   7312   7313   7315   7322     1  0.0000000  0.6508444  3
   7312   7330   7317   7316     1  180.0000771  0.4184000  2
   7312   7330   7317   7316     1  0.0000000  1.6024720  3
   7312   7330   7317   7321     1  0.0000000  1.6038667  3
   7313   7312   7323   7328     1  0.0000000  0.6508444  3
   7313   7312   7330   7317     1  180.0000771  0.4184000  2
   7313   7312   7330   7317     1  0.0000000  1.6024720  3
   7313   7315   7316   7317     1  180.0000771  0.8368000  1
   7313   7315   7316   7317     1  180.0000771  1.0460000  2
   7313   7315   7316   7317     1  0.0000000  0.7531200  3
   7313   7315   7316   7335     1  0.0000000  0.6508444  3
   7315   7313   7312   7323     1  180.0000771  0.8368000  1
   7315   7313   7312   7323     1  180.0000771  1.0460000  2
   7315   7313   7312   7323     1  0.0000000  0.7531200  3
   7315   7313   7312   7330     1  0.0000000  0.6508444  3
   7315   7316   7317   7321     1  0.0000000  0.6508444  3
   7315   7316   7317   7330     1  0.0000000  0.6508444  3
   7316   7315   7313   7333     1  0.0000000  0.6508444  3
   7317   7316   7315   7322     1  0.0000000  0.6508444  3
   7317   7330   7312   7323     1  180.0000771  0.4184000  2
   7317   7330   7312   7323     1  0.0000000  1.6024720  3
   7321   7317   7316   7335     1  0.0000000  0.6508444  3
   7322   7315   7313   7333     1  0.0000000  4.9162000  2
   7322   7315   7313   7333     1  0.0000000  0.6024960  3
   7322   7315   7316   7335     1  0.0000000  0.6508444  3
   7323   7312   7313   7333     1  0.0000000  0.6508444  3
   7328   7323   7312   7330     1  0.0000000  4.9162000  2
   7328   7323   7312   7330     1  0.0000000  0.6024960  3
   7330   7312   7313   7333     1  0.0000000  4.9162000  2
   7330   7312   7313   7333     1  0.0000000  0.6024960  3
   7330   7317   7316   7335     1  0.0000000  0.6508444  3
   7337   7339   7341   7345     1  0.0000000  0.6508444  3
   7339   7341   7345   7346     1  0.0000000  0.6508444  3
   7339   7341   7345   7347     1  0.0000000  0.6508444  3
   7341   7345   7346   7357     1  0.0000000  0.6508444  3
   7341   7345   7347   7349     1  0.0000000  0.6508444  3
   7345   7346   7357   7360     1  0.0000000  0.6508444  3
   7345   7347   7349   7353     1  0.0000000  0.6508444  3
   7346   7357   7360   7361     1  180.0000771  0.0000000  2
   7346   7357   7360   7409     1  180.0000771  0.0000000  2
   7346   7345   7347   7349     1  0.0000000  0.6508444  3
   7347   7349   7353   7354     1  180.0000771  0.0000000  2
   7347   7349   7353   7385     1  180.0000771  0.0000000  2
   7347   7345   7346   7357     1  0.0000000  0.6508444  3
   7349   7353   7385   7366     1  180.0000771  6.0668000  2
   7349   7353   7385   7366     1  180.0000771  1.4644000  4
   7353   7385   7366   7367     1  0.0000000  1.2552000  3
   7353   7385   7366   7365     1  0.0000000  1.2552000  3
   7354   7353   7385   7366     1  180.0000771  6.0668000  2
   7354   7353   7385   7366     1  180.0000771  1.4644000  4
   7357   7360   7409   7390     1  180.0000771  6.0668000  2
   7357   7360   7409   7390     1  180.0000771  1.4644000  4
   7360   7409   7390   7391     1  0.0000000  1.2552000  3
   7360   7409   7390   7389     1  0.0000000  1.2552000  3
   7361   7360   7409   7390     1  180.0000771  6.0668000  2
   7361   7360   7409   7390     1  180.0000771  1.4644000  4
   7362   7363   7365   7366     1  180.0000771  0.8368000  1
   7362   7363   7365   7366     1  180.0000771  1.0460000  2
   7362   7363   7365   7366     1  0.0000000  0.7531200  3
   7362   7363   7365   7372     1  0.0000000  0.6508444  3
   7362   7380   7367   7371     1  0.0000000  1.6038667  3
   7362   7380   7367   7366     1  180.0000771  0.4184000  2
   7362   7380   7367   7366     1  0.0000000  1.6024720  3
   7363   7365   7366   7367     1  180.0000771  0.8368000  1
   7363   7365   7366   7367     1  180.0000771  1.0460000  2
   7363   7365   7366   7367     1  0.0000000  0.7531200  3
   7363   7365   7366   7385     1  0.0000000  0.6508444  3
   7363   7362   7373   7378     1  0.0000000  0.6508444  3
   7363   7362   7380   7367     1  180.0000771  0.4184000  2
   7363   7362   7380   7367     1  0.0000000  1.6024720  3
   7365   7366   7367   7371     1  0.0000000  0.6508444  3
   7365   7366   7367   7380     1  0.0000000  0.6508444  3
   7365   7363   7362   7373     1  180.0000771  0.8368000  1
   7365   7363   7362   7373     1  180.0000771  1.0460000  2
   7365   7363   7362   7373     1  0.0000000  0.7531200  3
   7365   7363   7362   7380     1  0.0000000  0.6508444  3
   7366   7365   7363   7383     1  0.0000000  0.6508444  3
   7367   7380   7362   7373     1  180.0000771  0.4184000  2
   7367   7380   7362   7373     1  0.0000000  1.6024720  3
   7367   7366   7365   7372     1  0.0000000  0.6508444  3
   7371   7367   7366   7385     1  0.0000000  0.6508444  3
   7372   7365   7366   7385     1  0.0000000  0.6508444  3
   7372   7365   7363   7383     1  0.0000000  4.9162000  2
   7372   7365   7363   7383     1  0.0000000  0.6024960  3
   7373   7362   7363   7383     1  0.0000000  0.6508444  3
   7378   7373   7362   7380     1  0.0000000  4.9162000  2
   7378   7373   7362   7380     1  0.0000000  0.6024960  3
   7380   7367   7366   7385     1  0.0000000  0.6508444  3
   7380   7362   7363   7383     1  0.0000000  4.9162000  2
   7380   7362   7363   7383     1  0.0000000  0.6024960  3
   7386   7387   7389   7390     1  180.0000771  0.8368000  1
   7386   7387   7389   7390     1  180.0000771  1.0460000  2
   7386   7387   7389   7390     1  0.0000000  0.7531200  3
   7386   7387   7389   7396     1  0.0000000  0.6508444  3
   7386   7404   7391   7395     1  0.0000000  1.6038667  3
   7386   7404   7391   7390     1  180.0000771  0.4184000  2
   7386   7404   7391   7390     1  0.0000000  1.6024720  3
   7387   7389   7390   7391     1  180.0000771  0.8368000  1
   7387   7389   7390   7391     1  180.0000771  1.0460000  2
   7387   7389   7390   7391     1  0.0000000  0.7531200  3
   7387   7389   7390   7409     1  0.0000000  0.6508444  3
   7387   7386   7397   7402     1  0.0000000  0.6508444  3
   7387   7386   7404   7391     1  180.0000771  0.4184000  2
   7387   7386   7404   7391     1  0.0000000  1.6024720  3
   7389   7390   7391   7395     1  0.0000000  0.6508444  3
   7389   7390   7391   7404     1  0.0000000  0.6508444  3
   7389   7387   7386   7397     1  180.0000771  0.8368000  1
   7389   7387   7386   7397     1  180.0000771  1.0460000  2
   7389   7387   7386   7397     1  0.0000000  0.7531200  3
   7389   7387   7386   7404     1  0.0000000  0.6508444  3
   7390   7389   7387   7407     1  0.0000000  0.6508444  3
   7391   7404   7386   7397     1  180.0000771  0.4184000  2
   7391   7404   7386   7397     1  0.0000000  1.6024720  3
   7391   7390   7389   7396     1  0.0000000  0.6508444  3
   7395   7391   7390   7409     1  0.0000000  0.6508444  3
   7396   7389   7390   7409     1  0.0000000  0.6508444  3
   7396   7389   7387   7407     1  0.0000000  4.9162000  2
   7396   7389   7387   7407     1  0.0000000  0.6024960  3
   7397   7386   7387   7407     1  0.0000000  0.6508444  3
   7402   7397   7386   7404     1  0.0000000  4.9162000  2
   7402   7397   7386   7404     1  0.0000000  0.6024960  3
   7404   7391   7390   7409     1  0.0000000  0.6508444  3
   7404   7386   7387   7407     1  0.0000000  4.9162000  2
   7404   7386   7387   7407     1  0.0000000  0.6024960  3
   7411   7413   7415   7419     1  0.0000000  0.6508444  3
   7413   7415   7419   7420     1  0.0000000  0.6508444  3
   7413   7415   7419   7421     1  0.0000000  0.6508444  3
   7415   7419   7420   7431     1  0.0000000  0.6508444  3
   7415   7419   7421   7423     1  0.0000000  0.6508444  3
   7419   7420   7431   7434     1  0.0000000  0.6508444  3
   7419   7421   7423   7427     1  0.0000000  0.6508444  3
   7420   7419   7421   7423     1  0.0000000  0.6508444  3
   7420   7431   7434   7435     1  180.0000771  0.0000000  2
   7420   7431   7434   7483     1  180.0000771  0.0000000  2
   7421   7419   7420   7431     1  0.0000000  0.6508444  3
   7421   7423   7427   7428     1  180.0000771  0.0000000  2
   7421   7423   7427   7459     1  180.0000771  0.0000000  2
   7423   7427   7459   7440     1  180.0000771  6.0668000  2
   7423   7427   7459   7440     1  180.0000771  1.4644000  4
   7427   7459   7440   7439     1  0.0000000  1.2552000  3
   7427   7459   7440   7441     1  0.0000000  1.2552000  3
   7428   7427   7459   7440     1  180.0000771  6.0668000  2
   7428   7427   7459   7440     1  180.0000771  1.4644000  4
   7431   7434   7483   7464     1  180.0000771  6.0668000  2
   7431   7434   7483   7464     1  180.0000771  1.4644000  4
   7434   7483   7464   7463     1  0.0000000  1.2552000  3
   7434   7483   7464   7465     1  0.0000000  1.2552000  3
   7435   7434   7483   7464     1  180.0000771  6.0668000  2
   7435   7434   7483   7464     1  180.0000771  1.4644000  4
   7436   7437   7439   7440     1  180.0000771  0.8368000  1
   7436   7437   7439   7440     1  180.0000771  1.0460000  2
   7436   7437   7439   7440     1  0.0000000  0.7531200  3
   7436   7437   7439   7446     1  0.0000000  0.6508444  3
   7436   7454   7441   7440     1  180.0000771  0.4184000  2
   7436   7454   7441   7440     1  0.0000000  1.6024720  3
   7436   7454   7441   7445     1  0.0000000  1.6038667  3
   7437   7436   7447   7452     1  0.0000000  0.6508444  3
   7437   7436   7454   7441     1  180.0000771  0.4184000  2
   7437   7436   7454   7441     1  0.0000000  1.6024720  3
   7437   7439   7440   7441     1  180.0000771  0.8368000  1
   7437   7439   7440   7441     1  180.0000771  1.0460000  2
   7437   7439   7440   7441     1  0.0000000  0.7531200  3
   7437   7439   7440   7459     1  0.0000000  0.6508444  3
   7439   7437   7436   7447     1  180.0000771  0.8368000  1
   7439   7437   7436   7447     1  180.0000771  1.0460000  2
   7439   7437   7436   7447     1  0.0000000  0.7531200  3
   7439   7437   7436   7454     1  0.0000000  0.6508444  3
   7439   7440   7441   7445     1  0.0000000  0.6508444  3
   7439   7440   7441   7454     1  0.0000000  0.6508444  3
   7440   7439   7437   7457     1  0.0000000  0.6508444  3
   7441   7440   7439   7446     1  0.0000000  0.6508444  3
   7441   7454   7436   7447     1  180.0000771  0.4184000  2
   7441   7454   7436   7447     1  0.0000000  1.6024720  3
   7445   7441   7440   7459     1  0.0000000  0.6508444  3
   7446   7439   7437   7457     1  0.0000000  4.9162000  2
   7446   7439   7437   7457     1  0.0000000  0.6024960  3
   7446   7439   7440   7459     1  0.0000000  0.6508444  3
   7447   7436   7437   7457     1  0.0000000  0.6508444  3
   7452   7447   7436   7454     1  0.0000000  4.9162000  2
   7452   7447   7436   7454     1  0.0000000  0.6024960  3
   7454   7436   7437   7457     1  0.0000000  4.9162000  2
   7454   7436   7437   7457     1  0.0000000  0.6024960  3
   7454   7441   7440   7459     1  0.0000000  0.6508444  3
   7460   7461   7463   7464     1  180.0000771  0.8368000  1
   7460   7461   7463   7464     1  180.0000771  1.0460000  2
   7460   7461   7463   7464     1  0.0000000  0.7531200  3
   7460   7461   7463   7470     1  0.0000000  0.6508444  3
   7460   7478   7465   7464     1  180.0000771  0.4184000  2
   7460   7478   7465   7464     1  0.0000000  1.6024720  3
   7460   7478   7465   7469     1  0.0000000  1.6038667  3
   7461   7460   7471   7476     1  0.0000000  0.6508444  3
   7461   7460   7478   7465     1  180.0000771  0.4184000  2
   7461   7460   7478   7465     1  0.0000000  1.6024720  3
   7461   7463   7464   7465     1  180.0000771  0.8368000  1
   7461   7463   7464   7465     1  180.0000771  1.0460000  2
   7461   7463   7464   7465     1  0.0000000  0.7531200  3
   7461   7463   7464   7483     1  0.0000000  0.6508444  3
   7463   7461   7460   7471     1  180.0000771  0.8368000  1
   7463   7461   7460   7471     1  180.0000771  1.0460000  2
   7463   7461   7460   7471     1  0.0000000  0.7531200  3
   7463   7461   7460   7478     1  0.0000000  0.6508444  3
   7463   7464   7465   7469     1  0.0000000  0.6508444  3
   7463   7464   7465   7478     1  0.0000000  0.6508444  3
   7464   7463   7461   7481     1  0.0000000  0.6508444  3
   7465   7464   7463   7470     1  0.0000000  0.6508444  3
   7465   7478   7460   7471     1  180.0000771  0.4184000  2
   7465   7478   7460   7471     1  0.0000000  1.6024720  3
   7469   7465   7464   7483     1  0.0000000  0.6508444  3
   7470   7463   7461   7481     1  0.0000000  4.9162000  2
   7470   7463   7461   7481     1  0.0000000  0.6024960  3
   7470   7463   7464   7483     1  0.0000000  0.6508444  3
   7471   7460   7461   7481     1  0.0000000  0.6508444  3
   7476   7471   7460   7478     1  0.0000000  4.9162000  2
   7476   7471   7460   7478     1  0.0000000  0.6024960  3
   7478   7460   7461   7481     1  0.0000000  4.9162000  2
   7478   7460   7461   7481     1  0.0000000  0.6024960  3
   7478   7465   7464   7483     1  0.0000000  0.6508444  3
   7485   7487   7489   7493     1  0.0000000  0.6508444  3
   7487   7489   7493   7494     1  0.0000000  0.6508444  3
   7487   7489   7493   7495     1  0.0000000  0.6508444  3
   7489   7493   7494   7505     1  0.0000000  0.6508444  3
   7489   7493   7495   7497     1  0.0000000  0.6508444  3
   7493   7494   7505   7508     1  0.0000000  0.6508444  3
   7493   7495   7497   7501     1  0.0000000  0.6508444  3
   7494   7505   7508   7509     1  180.0000771  0.0000000  2
   7494   7505   7508   7557     1  180.0000771  0.0000000  2
   7494   7493   7495   7497     1  0.0000000  0.6508444  3
   7495   7497   7501   7502     1  180.0000771  0.0000000  2
   7495   7497   7501   7533     1  180.0000771  0.0000000  2
   7495   7493   7494   7505     1  0.0000000  0.6508444  3
   7497   7501   7533   7514     1  180.0000771  6.0668000  2
   7497   7501   7533   7514     1  180.0000771  1.4644000  4
   7501   7533   7514   7515     1  0.0000000  1.2552000  3
   7501   7533   7514   7513     1  0.0000000  1.2552000  3
   7502   7501   7533   7514     1  180.0000771  6.0668000  2
   7502   7501   7533   7514     1  180.0000771  1.4644000  4
   7505   7508   7557   7538     1  180.0000771  6.0668000  2
   7505   7508   7557   7538     1  180.0000771  1.4644000  4
   7508   7557   7538   7539     1  0.0000000  1.2552000  3
   7508   7557   7538   7537     1  0.0000000  1.2552000  3
   7509   7508   7557   7538     1  180.0000771  6.0668000  2
   7509   7508   7557   7538     1  180.0000771  1.4644000  4
   7510   7511   7513   7514     1  180.0000771  0.8368000  1
   7510   7511   7513   7514     1  180.0000771  1.0460000  2
   7510   7511   7513   7514     1  0.0000000  0.7531200  3
   7510   7511   7513   7520     1  0.0000000  0.6508444  3
   7510   7528   7515   7519     1  0.0000000  1.6038667  3
   7510   7528   7515   7514     1  180.0000771  0.4184000  2
   7510   7528   7515   7514     1  0.0000000  1.6024720  3
   7511   7513   7514   7515     1  180.0000771  0.8368000  1
   7511   7513   7514   7515     1  180.0000771  1.0460000  2
   7511   7513   7514   7515     1  0.0000000  0.7531200  3
   7511   7513   7514   7533     1  0.0000000  0.6508444  3
   7511   7510   7521   7526     1  0.0000000  0.6508444  3
   7511   7510   7528   7515     1  180.0000771  0.4184000  2
   7511   7510   7528   7515     1  0.0000000  1.6024720  3
   7513   7514   7515   7519     1  0.0000000  0.6508444  3
   7513   7514   7515   7528     1  0.0000000  0.6508444  3
   7513   7511   7510   7521     1  180.0000771  0.8368000  1
   7513   7511   7510   7521     1  180.0000771  1.0460000  2
   7513   7511   7510   7521     1  0.0000000  0.7531200  3
   7513   7511   7510   7528     1  0.0000000  0.6508444  3
   7514   7513   7511   7531     1  0.0000000  0.6508444  3
   7515   7528   7510   7521     1  180.0000771  0.4184000  2
   7515   7528   7510   7521     1  0.0000000  1.6024720  3
   7515   7514   7513   7520     1  0.0000000  0.6508444  3
   7519   7515   7514   7533     1  0.0000000  0.6508444  3
   7520   7513   7514   7533     1  0.0000000  0.6508444  3
   7520   7513   7511   7531     1  0.0000000  4.9162000  2
   7520   7513   7511   7531     1  0.0000000  0.6024960  3
   7521   7510   7511   7531     1  0.0000000  0.6508444  3
   7526   7521   7510   7528     1  0.0000000  4.9162000  2
   7526   7521   7510   7528     1  0.0000000  0.6024960  3
   7528   7515   7514   7533     1  0.0000000  0.6508444  3
   7528   7510   7511   7531     1  0.0000000  4.9162000  2
   7528   7510   7511   7531     1  0.0000000  0.6024960  3
   7534   7535   7537   7538     1  180.0000771  0.8368000  1
   7534   7535   7537   7538     1  180.0000771  1.0460000  2
   7534   7535   7537   7538     1  0.0000000  0.7531200  3
   7534   7535   7537   7544     1  0.0000000  0.6508444  3
   7534   7552   7539   7543     1  0.0000000  1.6038667  3
   7534   7552   7539   7538     1  180.0000771  0.4184000  2
   7534   7552   7539   7538     1  0.0000000  1.6024720  3
   7535   7537   7538   7539     1  180.0000771  0.8368000  1
   7535   7537   7538   7539     1  180.0000771  1.0460000  2
   7535   7537   7538   7539     1  0.0000000  0.7531200  3
   7535   7537   7538   7557     1  0.0000000  0.6508444  3
   7535   7534   7545   7550     1  0.0000000  0.6508444  3
   7535   7534   7552   7539     1  180.0000771  0.4184000  2
   7535   7534   7552   7539     1  0.0000000  1.6024720  3
   7537   7538   7539   7543     1  0.0000000  0.6508444  3
   7537   7538   7539   7552     1  0.0000000  0.6508444  3
   7537   7535   7534   7545     1  180.0000771  0.8368000  1
   7537   7535   7534   7545     1  180.0000771  1.0460000  2
   7537   7535   7534   7545     1  0.0000000  0.7531200  3
   7537   7535   7534   7552     1  0.0000000  0.6508444  3
   7538   7537   7535   7555     1  0.0000000  0.6508444  3
   7539   7552   7534   7545     1  180.0000771  0.4184000  2
   7539   7552   7534   7545     1  0.0000000  1.6024720  3
   7539   7538   7537   7544     1  0.0000000  0.6508444  3
   7543   7539   7538   7557     1  0.0000000  0.6508444  3
   7544   7537   7538   7557     1  0.0000000  0.6508444  3
   7544   7537   7535   7555     1  0.0000000  4.9162000  2
   7544   7537   7535   7555     1  0.0000000  0.6024960  3
   7545   7534   7535   7555     1  0.0000000  0.6508444  3
   7550   7545   7534   7552     1  0.0000000  4.9162000  2
   7550   7545   7534   7552     1  0.0000000  0.6024960  3
   7552   7539   7538   7557     1  0.0000000  0.6508444  3
   7552   7534   7535   7555     1  0.0000000  4.9162000  2
   7552   7534   7535   7555     1  0.0000000  0.6024960  3
   7559   7561   7563   7567     1  0.0000000  0.6508444  3
   7561   7563   7567   7568     1  0.0000000  0.6508444  3
   7561   7563   7567   7569     1  0.0000000  0.6508444  3
   7563   7567   7568   7579     1  0.0000000  0.6508444  3
   7563   7567   7569   7571     1  0.0000000  0.6508444  3
   7567   7568   7579   7582     1  0.0000000  0.6508444  3
   7567   7569   7571   7575     1  0.0000000  0.6508444  3
   7568   7567   7569   7571     1  0.0000000  0.6508444  3
   7568   7579   7582   7583     1  180.0000771  0.0000000  2
   7568   7579   7582   7631     1  180.0000771  0.0000000  2
   7569   7567   7568   7579     1  0.0000000  0.6508444  3
   7569   7571   7575   7576     1  180.0000771  0.0000000  2
   7569   7571   7575   7607     1  180.0000771  0.0000000  2
   7571   7575   7607   7588     1  180.0000771  6.0668000  2
   7571   7575   7607   7588     1  180.0000771  1.4644000  4
   7575   7607   7588   7587     1  0.0000000  1.2552000  3
   7575   7607   7588   7589     1  0.0000000  1.2552000  3
   7576   7575   7607   7588     1  180.0000771  6.0668000  2
   7576   7575   7607   7588     1  180.0000771  1.4644000  4
   7579   7582   7631   7612     1  180.0000771  6.0668000  2
   7579   7582   7631   7612     1  180.0000771  1.4644000  4
   7582   7631   7612   7611     1  0.0000000  1.2552000  3
   7582   7631   7612   7613     1  0.0000000  1.2552000  3
   7583   7582   7631   7612     1  180.0000771  6.0668000  2
   7583   7582   7631   7612     1  180.0000771  1.4644000  4
   7584   7585   7587   7588     1  180.0000771  0.8368000  1
   7584   7585   7587   7588     1  180.0000771  1.0460000  2
   7584   7585   7587   7588     1  0.0000000  0.7531200  3
   7584   7585   7587   7594     1  0.0000000  0.6508444  3
   7584   7602   7589   7588     1  180.0000771  0.4184000  2
   7584   7602   7589   7588     1  0.0000000  1.6024720  3
   7584   7602   7589   7593     1  0.0000000  1.6038667  3
   7585   7584   7595   7600     1  0.0000000  0.6508444  3
   7585   7584   7602   7589     1  180.0000771  0.4184000  2
   7585   7584   7602   7589     1  0.0000000  1.6024720  3
   7585   7587   7588   7589     1  180.0000771  0.8368000  1
   7585   7587   7588   7589     1  180.0000771  1.0460000  2
   7585   7587   7588   7589     1  0.0000000  0.7531200  3
   7585   7587   7588   7607     1  0.0000000  0.6508444  3
   7587   7585   7584   7595     1  180.0000771  0.8368000  1
   7587   7585   7584   7595     1  180.0000771  1.0460000  2
   7587   7585   7584   7595     1  0.0000000  0.7531200  3
   7587   7585   7584   7602     1  0.0000000  0.6508444  3
   7587   7588   7589   7593     1  0.0000000  0.6508444  3
   7587   7588   7589   7602     1  0.0000000  0.6508444  3
   7588   7587   7585   7605     1  0.0000000  0.6508444  3
   7589   7588   7587   7594     1  0.0000000  0.6508444  3
   7589   7602   7584   7595     1  180.0000771  0.4184000  2
   7589   7602   7584   7595     1  0.0000000  1.6024720  3
   7593   7589   7588   7607     1  0.0000000  0.6508444  3
   7594   7587   7585   7605     1  0.0000000  4.9162000  2
   7594   7587   7585   7605     1  0.0000000  0.6024960  3
   7594   7587   7588   7607     1  0.0000000  0.6508444  3
   7595   7584   7585   7605     1  0.0000000  0.6508444  3
   7600   7595   7584   7602     1  0.0000000  4.9162000  2
   7600   7595   7584   7602     1  0.0000000  0.6024960  3
   7602   7584   7585   7605     1  0.0000000  4.9162000  2
   7602   7584   7585   7605     1  0.0000000  0.6024960  3
   7602   7589   7588   7607     1  0.0000000  0.6508444  3
   7608   7609   7611   7612     1  180.0000771  0.8368000  1
   7608   7609   7611   7612     1  180.0000771  1.0460000  2
   7608   7609   7611   7612     1  0.0000000  0.7531200  3
   7608   7609   7611   7618     1  0.0000000  0.6508444  3
   7608   7626   7613   7612     1  180.0000771  0.4184000  2
   7608   7626   7613   7612     1  0.0000000  1.6024720  3
   7608   7626   7613   7617     1  0.0000000  1.6038667  3
   7609   7608   7619   7624     1  0.0000000  0.6508444  3
   7609   7608   7626   7613     1  180.0000771  0.4184000  2
   7609   7608   7626   7613     1  0.0000000  1.6024720  3
   7609   7611   7612   7613     1  180.0000771  0.8368000  1
   7609   7611   7612   7613     1  180.0000771  1.0460000  2
   7609   7611   7612   7613     1  0.0000000  0.7531200  3
   7609   7611   7612   7631     1  0.0000000  0.6508444  3
   7611   7609   7608   7619     1  180.0000771  0.8368000  1
   7611   7609   7608   7619     1  180.0000771  1.0460000  2
   7611   7609   7608   7619     1  0.0000000  0.7531200  3
   7611   7609   7608   7626     1  0.0000000  0.6508444  3
   7611   7612   7613   7617     1  0.0000000  0.6508444  3
   7611   7612   7613   7626     1  0.0000000  0.6508444  3
   7612   7611   7609   7629     1  0.0000000  0.6508444  3
   7613   7612   7611   7618     1  0.0000000  0.6508444  3
   7613   7626   7608   7619     1  180.0000771  0.4184000  2
   7613   7626   7608   7619     1  0.0000000  1.6024720  3
   7617   7613   7612   7631     1  0.0000000  0.6508444  3
   7618   7611   7609   7629     1  0.0000000  4.9162000  2
   7618   7611   7609   7629     1  0.0000000  0.6024960  3
   7618   7611   7612   7631     1  0.0000000  0.6508444  3
   7619   7608   7609   7629     1  0.0000000  0.6508444  3
   7624   7619   7608   7626     1  0.0000000  4.9162000  2
   7624   7619   7608   7626     1  0.0000000  0.6024960  3
   7626   7608   7609   7629     1  0.0000000  4.9162000  2
   7626   7608   7609   7629     1  0.0000000  0.6024960  3
   7626   7613   7612   7631     1  0.0000000  0.6508444  3
   7633   7635   7637   7641     1  0.0000000  0.6508444  3
   7635   7637   7641   7642     1  0.0000000  0.6508444  3
   7635   7637   7641   7643     1  0.0000000  0.6508444  3
   7637   7641   7642   7653     1  0.0000000  0.6508444  3
   7637   7641   7643   7645     1  0.0000000  0.6508444  3
   7641   7642   7653   7656     1  0.0000000  0.6508444  3
   7641   7643   7645   7649     1  0.0000000  0.6508444  3
   7642   7653   7656   7657     1  180.0000771  0.0000000  2
   7642   7653   7656   7705     1  180.0000771  0.0000000  2
   7642   7641   7643   7645     1  0.0000000  0.6508444  3
   7643   7645   7649   7650     1  180.0000771  0.0000000  2
   7643   7645   7649   7681     1  180.0000771  0.0000000  2
   7643   7641   7642   7653     1  0.0000000  0.6508444  3
   7645   7649   7681   7662     1  180.0000771  6.0668000  2
   7645   7649   7681   7662     1  180.0000771  1.4644000  4
   7649   7681   7662   7663     1  0.0000000  1.2552000  3
   7649   7681   7662   7661     1  0.0000000  1.2552000  3
   7650   7649   7681   7662     1  180.0000771  6.0668000  2
   7650   7649   7681   7662     1  180.0000771  1.4644000  4
   7653   7656   7705   7686     1  180.0000771  6.0668000  2
   7653   7656   7705   7686     1  180.0000771  1.4644000  4
   7656   7705   7686   7687     1  0.0000000  1.2552000  3
   7656   7705   7686   7685     1  0.0000000  1.2552000  3
   7657   7656   7705   7686     1  180.0000771  6.0668000  2
   7657   7656   7705   7686     1  180.0000771  1.4644000  4
   7658   7659   7661   7662     1  180.0000771  0.8368000  1
   7658   7659   7661   7662     1  180.0000771  1.0460000  2
   7658   7659   7661   7662     1  0.0000000  0.7531200  3
   7658   7659   7661   7668     1  0.0000000  0.6508444  3
   7658   7676   7663   7667     1  0.0000000  1.6038667  3
   7658   7676   7663   7662     1  180.0000771  0.4184000  2
   7658   7676   7663   7662     1  0.0000000  1.6024720  3
   7659   7661   7662   7663     1  180.0000771  0.8368000  1
   7659   7661   7662   7663     1  180.0000771  1.0460000  2
   7659   7661   7662   7663     1  0.0000000  0.7531200  3
   7659   7661   7662   7681     1  0.0000000  0.6508444  3
   7659   7658   7669   7674     1  0.0000000  0.6508444  3
   7659   7658   7676   7663     1  180.0000771  0.4184000  2
   7659   7658   7676   7663     1  0.0000000  1.6024720  3
   7661   7662   7663   7667     1  0.0000000  0.6508444  3
   7661   7662   7663   7676     1  0.0000000  0.6508444  3
   7661   7659   7658   7669     1  180.0000771  0.8368000  1
   7661   7659   7658   7669     1  180.0000771  1.0460000  2
   7661   7659   7658   7669     1  0.0000000  0.7531200  3
   7661   7659   7658   7676     1  0.0000000  0.6508444  3
   7662   7661   7659   7679     1  0.0000000  0.6508444  3
   7663   7676   7658   7669     1  180.0000771  0.4184000  2
   7663   7676   7658   7669     1  0.0000000  1.6024720  3
   7663   7662   7661   7668     1  0.0000000  0.6508444  3
   7667   7663   7662   7681     1  0.0000000  0.6508444  3
   7668   7661   7662   7681     1  0.0000000  0.6508444  3
   7668   7661   7659   7679     1  0.0000000  4.9162000  2
   7668   7661   7659   7679     1  0.0000000  0.6024960  3
   7669   7658   7659   7679     1  0.0000000  0.6508444  3
   7674   7669   7658   7676     1  0.0000000  4.9162000  2
   7674   7669   7658   7676     1  0.0000000  0.6024960  3
   7676   7663   7662   7681     1  0.0000000  0.6508444  3
   7676   7658   7659   7679     1  0.0000000  4.9162000  2
   7676   7658   7659   7679     1  0.0000000  0.6024960  3
   7682   7683   7685   7686     1  180.0000771  0.8368000  1
   7682   7683   7685   7686     1  180.0000771  1.0460000  2
   7682   7683   7685   7686     1  0.0000000  0.7531200  3
   7682   7683   7685   7692     1  0.0000000  0.6508444  3
   7682   7700   7687   7691     1  0.0000000  1.6038667  3
   7682   7700   7687   7686     1  180.0000771  0.4184000  2
   7682   7700   7687   7686     1  0.0000000  1.6024720  3
   7683   7685   7686   7687     1  180.0000771  0.8368000  1
   7683   7685   7686   7687     1  180.0000771  1.0460000  2
   7683   7685   7686   7687     1  0.0000000  0.7531200  3
   7683   7685   7686   7705     1  0.0000000  0.6508444  3
   7683   7682   7693   7698     1  0.0000000  0.6508444  3
   7683   7682   7700   7687     1  180.0000771  0.4184000  2
   7683   7682   7700   7687     1  0.0000000  1.6024720  3
   7685   7686   7687   7691     1  0.0000000  0.6508444  3
   7685   7686   7687   7700     1  0.0000000  0.6508444  3
   7685   7683   7682   7693     1  180.0000771  0.8368000  1
   7685   7683   7682   7693     1  180.0000771  1.0460000  2
   7685   7683   7682   7693     1  0.0000000  0.7531200  3
   7685   7683   7682   7700     1  0.0000000  0.6508444  3
   7686   7685   7683   7703     1  0.0000000  0.6508444  3
   7687   7700   7682   7693     1  180.0000771  0.4184000  2
   7687   7700   7682   7693     1  0.0000000  1.6024720  3
   7687   7686   7685   7692     1  0.0000000  0.6508444  3
   7691   7687   7686   7705     1  0.0000000  0.6508444  3
   7692   7685   7686   7705     1  0.0000000  0.6508444  3
   7692   7685   7683   7703     1  0.0000000  4.9162000  2
   7692   7685   7683   7703     1  0.0000000  0.6024960  3
   7693   7682   7683   7703     1  0.0000000  0.6508444  3
   7698   7693   7682   7700     1  0.0000000  4.9162000  2
   7698   7693   7682   7700     1  0.0000000  0.6024960  3
   7700   7687   7686   7705     1  0.0000000  0.6508444  3
   7700   7682   7683   7703     1  0.0000000  4.9162000  2
   7700   7682   7683   7703     1  0.0000000  0.6024960  3
   7707   7709   7711   7715     1  0.0000000  0.6508444  3
   7709   7711   7715   7716     1  0.0000000  0.6508444  3
   7709   7711   7715   7717     1  0.0000000  0.6508444  3
   7711   7715   7716   7727     1  0.0000000  0.6508444  3
   7711   7715   7717   7719     1  0.0000000  0.6508444  3
   7715   7716   7727   7730     1  0.0000000  0.6508444  3
   7715   7717   7719   7723     1  0.0000000  0.6508444  3
   7716   7715   7717   7719     1  0.0000000  0.6508444  3
   7716   7727   7730   7731     1  180.0000771  0.0000000  2
   7716   7727   7730   7779     1  180.0000771  0.0000000  2
   7717   7715   7716   7727     1  0.0000000  0.6508444  3
   7717   7719   7723   7724     1  180.0000771  0.0000000  2
   7717   7719   7723   7755     1  180.0000771  0.0000000  2
   7719   7723   7755   7736     1  180.0000771  6.0668000  2
   7719   7723   7755   7736     1  180.0000771  1.4644000  4
   7723   7755   7736   7735     1  0.0000000  1.2552000  3
   7723   7755   7736   7737     1  0.0000000  1.2552000  3
   7724   7723   7755   7736     1  180.0000771  6.0668000  2
   7724   7723   7755   7736     1  180.0000771  1.4644000  4
   7727   7730   7779   7760     1  180.0000771  6.0668000  2
   7727   7730   7779   7760     1  180.0000771  1.4644000  4
   7730   7779   7760   7759     1  0.0000000  1.2552000  3
   7730   7779   7760   7761     1  0.0000000  1.2552000  3
   7731   7730   7779   7760     1  180.0000771  6.0668000  2
   7731   7730   7779   7760     1  180.0000771  1.4644000  4
   7732   7733   7735   7736     1  180.0000771  0.8368000  1
   7732   7733   7735   7736     1  180.0000771  1.0460000  2
   7732   7733   7735   7736     1  0.0000000  0.7531200  3
   7732   7733   7735   7742     1  0.0000000  0.6508444  3
   7732   7750   7737   7736     1  180.0000771  0.4184000  2
   7732   7750   7737   7736     1  0.0000000  1.6024720  3
   7732   7750   7737   7741     1  0.0000000  1.6038667  3
   7733   7732   7743   7748     1  0.0000000  0.6508444  3
   7733   7732   7750   7737     1  180.0000771  0.4184000  2
   7733   7732   7750   7737     1  0.0000000  1.6024720  3
   7733   7735   7736   7737     1  180.0000771  0.8368000  1
   7733   7735   7736   7737     1  180.0000771  1.0460000  2
   7733   7735   7736   7737     1  0.0000000  0.7531200  3
   7733   7735   7736   7755     1  0.0000000  0.6508444  3
   7735   7733   7732   7743     1  180.0000771  0.8368000  1
   7735   7733   7732   7743     1  180.0000771  1.0460000  2
   7735   7733   7732   7743     1  0.0000000  0.7531200  3
   7735   7733   7732   7750     1  0.0000000  0.6508444  3
   7735   7736   7737   7741     1  0.0000000  0.6508444  3
   7735   7736   7737   7750     1  0.0000000  0.6508444  3
   7736   7735   7733   7753     1  0.0000000  0.6508444  3
   7737   7736   7735   7742     1  0.0000000  0.6508444  3
   7737   7750   7732   7743     1  180.0000771  0.4184000  2
   7737   7750   7732   7743     1  0.0000000  1.6024720  3
   7741   7737   7736   7755     1  0.0000000  0.6508444  3
   7742   7735   7733   7753     1  0.0000000  4.9162000  2
   7742   7735   7733   7753     1  0.0000000  0.6024960  3
   7742   7735   7736   7755     1  0.0000000  0.6508444  3
   7743   7732   7733   7753     1  0.0000000  0.6508444  3
   7748   7743   7732   7750     1  0.0000000  4.9162000  2
   7748   7743   7732   7750     1  0.0000000  0.6024960  3
   7750   7732   7733   7753     1  0.0000000  4.9162000  2
   7750   7732   7733   7753     1  0.0000000  0.6024960  3
   7750   7737   7736   7755     1  0.0000000  0.6508444  3
   7756   7757   7759   7760     1  180.0000771  0.8368000  1
   7756   7757   7759   7760     1  180.0000771  1.0460000  2
   7756   7757   7759   7760     1  0.0000000  0.7531200  3
   7756   7757   7759   7766     1  0.0000000  0.6508444  3
   7756   7774   7761   7760     1  180.0000771  0.4184000  2
   7756   7774   7761   7760     1  0.0000000  1.6024720  3
   7756   7774   7761   7765     1  0.0000000  1.6038667  3
   7757   7756   7767   7772     1  0.0000000  0.6508444  3
   7757   7756   7774   7761     1  180.0000771  0.4184000  2
   7757   7756   7774   7761     1  0.0000000  1.6024720  3
   7757   7759   7760   7761     1  180.0000771  0.8368000  1
   7757   7759   7760   7761     1  180.0000771  1.0460000  2
   7757   7759   7760   7761     1  0.0000000  0.7531200  3
   7757   7759   7760   7779     1  0.0000000  0.6508444  3
   7759   7757   7756   7767     1  180.0000771  0.8368000  1
   7759   7757   7756   7767     1  180.0000771  1.0460000  2
   7759   7757   7756   7767     1  0.0000000  0.7531200  3
   7759   7757   7756   7774     1  0.0000000  0.6508444  3
   7759   7760   7761   7765     1  0.0000000  0.6508444  3
   7759   7760   7761   7774     1  0.0000000  0.6508444  3
   7760   7759   7757   7777     1  0.0000000  0.6508444  3
   7761   7760   7759   7766     1  0.0000000  0.6508444  3
   7761   7774   7756   7767     1  180.0000771  0.4184000  2
   7761   7774   7756   7767     1  0.0000000  1.6024720  3
   7765   7761   7760   7779     1  0.0000000  0.6508444  3
   7766   7759   7757   7777     1  0.0000000  4.9162000  2
   7766   7759   7757   7777     1  0.0000000  0.6024960  3
   7766   7759   7760   7779     1  0.0000000  0.6508444  3
   7767   7756   7757   7777     1  0.0000000  0.6508444  3
   7772   7767   7756   7774     1  0.0000000  4.9162000  2
   7772   7767   7756   7774     1  0.0000000  0.6024960  3
   7774   7756   7757   7777     1  0.0000000  4.9162000  2
   7774   7756   7757   7777     1  0.0000000  0.6024960  3
   7774   7761   7760   7779     1  0.0000000  0.6508444  3
   7781   7783   7785   7789     1  0.0000000  0.6508444  3
   7783   7785   7789   7790     1  0.0000000  0.6508444  3
   7783   7785   7789   7791     1  0.0000000  0.6508444  3
   7785   7789   7790   7801     1  0.0000000  0.6508444  3
   7785   7789   7791   7793     1  0.0000000  0.6508444  3
   7789   7790   7801   7804     1  0.0000000  0.6508444  3
   7789   7791   7793   7797     1  0.0000000  0.6508444  3
   7790   7801   7804   7805     1  180.0000771  0.0000000  2
   7790   7801   7804   7853     1  180.0000771  0.0000000  2
   7790   7789   7791   7793     1  0.0000000  0.6508444  3
   7791   7793   7797   7798     1  180.0000771  0.0000000  2
   7791   7793   7797   7829     1  180.0000771  0.0000000  2
   7791   7789   7790   7801     1  0.0000000  0.6508444  3
   7793   7797   7829   7810     1  180.0000771  6.0668000  2
   7793   7797   7829   7810     1  180.0000771  1.4644000  4
   7797   7829   7810   7811     1  0.0000000  1.2552000  3
   7797   7829   7810   7809     1  0.0000000  1.2552000  3
   7798   7797   7829   7810     1  180.0000771  6.0668000  2
   7798   7797   7829   7810     1  180.0000771  1.4644000  4
   7801   7804   7853   7834     1  180.0000771  6.0668000  2
   7801   7804   7853   7834     1  180.0000771  1.4644000  4
   7804   7853   7834   7835     1  0.0000000  1.2552000  3
   7804   7853   7834   7833     1  0.0000000  1.2552000  3
   7805   7804   7853   7834     1  180.0000771  6.0668000  2
   7805   7804   7853   7834     1  180.0000771  1.4644000  4
   7806   7807   7809   7810     1  180.0000771  0.8368000  1
   7806   7807   7809   7810     1  180.0000771  1.0460000  2
   7806   7807   7809   7810     1  0.0000000  0.7531200  3
   7806   7807   7809   7816     1  0.0000000  0.6508444  3
   7806   7824   7811   7815     1  0.0000000  1.6038667  3
   7806   7824   7811   7810     1  180.0000771  0.4184000  2
   7806   7824   7811   7810     1  0.0000000  1.6024720  3
   7807   7809   7810   7811     1  180.0000771  0.8368000  1
   7807   7809   7810   7811     1  180.0000771  1.0460000  2
   7807   7809   7810   7811     1  0.0000000  0.7531200  3
   7807   7809   7810   7829     1  0.0000000  0.6508444  3
   7807   7806   7817   7822     1  0.0000000  0.6508444  3
   7807   7806   7824   7811     1  180.0000771  0.4184000  2
   7807   7806   7824   7811     1  0.0000000  1.6024720  3
   7809   7810   7811   7815     1  0.0000000  0.6508444  3
   7809   7810   7811   7824     1  0.0000000  0.6508444  3
   7809   7807   7806   7817     1  180.0000771  0.8368000  1
   7809   7807   7806   7817     1  180.0000771  1.0460000  2
   7809   7807   7806   7817     1  0.0000000  0.7531200  3
   7809   7807   7806   7824     1  0.0000000  0.6508444  3
   7810   7809   7807   7827     1  0.0000000  0.6508444  3
   7811   7824   7806   7817     1  180.0000771  0.4184000  2
   7811   7824   7806   7817     1  0.0000000  1.6024720  3
   7811   7810   7809   7816     1  0.0000000  0.6508444  3
   7815   7811   7810   7829     1  0.0000000  0.6508444  3
   7816   7809   7810   7829     1  0.0000000  0.6508444  3
   7816   7809   7807   7827     1  0.0000000  4.9162000  2
   7816   7809   7807   7827     1  0.0000000  0.6024960  3
   7817   7806   7807   7827     1  0.0000000  0.6508444  3
   7822   7817   7806   7824     1  0.0000000  4.9162000  2
   7822   7817   7806   7824     1  0.0000000  0.6024960  3
   7824   7811   7810   7829     1  0.0000000  0.6508444  3
   7824   7806   7807   7827     1  0.0000000  4.9162000  2
   7824   7806   7807   7827     1  0.0000000  0.6024960  3
   7830   7831   7833   7834     1  180.0000771  0.8368000  1
   7830   7831   7833   7834     1  180.0000771  1.0460000  2
   7830   7831   7833   7834     1  0.0000000  0.7531200  3
   7830   7831   7833   7840     1  0.0000000  0.6508444  3
   7830   7848   7835   7839     1  0.0000000  1.6038667  3
   7830   7848   7835   7834     1  180.0000771  0.4184000  2
   7830   7848   7835   7834     1  0.0000000  1.6024720  3
   7831   7833   7834   7835     1  180.0000771  0.8368000  1
   7831   7833   7834   7835     1  180.0000771  1.0460000  2
   7831   7833   7834   7835     1  0.0000000  0.7531200  3
   7831   7833   7834   7853     1  0.0000000  0.6508444  3
   7831   7830   7841   7846     1  0.0000000  0.6508444  3
   7831   7830   7848   7835     1  180.0000771  0.4184000  2
   7831   7830   7848   7835     1  0.0000000  1.6024720  3
   7833   7834   7835   7839     1  0.0000000  0.6508444  3
   7833   7834   7835   7848     1  0.0000000  0.6508444  3
   7833   7831   7830   7841     1  180.0000771  0.8368000  1
   7833   7831   7830   7841     1  180.0000771  1.0460000  2
   7833   7831   7830   7841     1  0.0000000  0.7531200  3
   7833   7831   7830   7848     1  0.0000000  0.6508444  3
   7834   7833   7831   7851     1  0.0000000  0.6508444  3
   7835   7848   7830   7841     1  180.0000771  0.4184000  2
   7835   7848   7830   7841     1  0.0000000  1.6024720  3
   7835   7834   7833   7840     1  0.0000000  0.6508444  3
   7839   7835   7834   7853     1  0.0000000  0.6508444  3
   7840   7833   7834   7853     1  0.0000000  0.6508444  3
   7840   7833   7831   7851     1  0.0000000  4.9162000  2
   7840   7833   7831   7851     1  0.0000000  0.6024960  3
   7841   7830   7831   7851     1  0.0000000  0.6508444  3
   7846   7841   7830   7848     1  0.0000000  4.9162000  2
   7846   7841   7830   7848     1  0.0000000  0.6024960  3
   7848   7835   7834   7853     1  0.0000000  0.6508444  3
   7848   7830   7831   7851     1  0.0000000  4.9162000  2
   7848   7830   7831   7851     1  0.0000000  0.6024960  3
   7855   7857   7859   7863     1  0.0000000  0.6508444  3
   7857   7859   7863   7864     1  0.0000000  0.6508444  3
   7857   7859   7863   7865     1  0.0000000  0.6508444  3
   7859   7863   7864   7875     1  0.0000000  0.6508444  3
   7859   7863   7865   7867     1  0.0000000  0.6508444  3
   7863   7864   7875   7878     1  0.0000000  0.6508444  3
   7863   7865   7867   7871     1  0.0000000  0.6508444  3
   7864   7863   7865   7867     1  0.0000000  0.6508444  3
   7864   7875   7878   7879     1  180.0000771  0.0000000  2
   7864   7875   7878   7927     1  180.0000771  0.0000000  2
   7865   7863   7864   7875     1  0.0000000  0.6508444  3
   7865   7867   7871   7872     1  180.0000771  0.0000000  2
   7865   7867   7871   7903     1  180.0000771  0.0000000  2
   7867   7871   7903   7884     1  180.0000771  6.0668000  2
   7867   7871   7903   7884     1  180.0000771  1.4644000  4
   7871   7903   7884   7883     1  0.0000000  1.2552000  3
   7871   7903   7884   7885     1  0.0000000  1.2552000  3
   7872   7871   7903   7884     1  180.0000771  6.0668000  2
   7872   7871   7903   7884     1  180.0000771  1.4644000  4
   7875   7878   7927   7908     1  180.0000771  6.0668000  2
   7875   7878   7927   7908     1  180.0000771  1.4644000  4
   7878   7927   7908   7907     1  0.0000000  1.2552000  3
   7878   7927   7908   7909     1  0.0000000  1.2552000  3
   7879   7878   7927   7908     1  180.0000771  6.0668000  2
   7879   7878   7927   7908     1  180.0000771  1.4644000  4
   7880   7881   7883   7884     1  180.0000771  0.8368000  1
   7880   7881   7883   7884     1  180.0000771  1.0460000  2
   7880   7881   7883   7884     1  0.0000000  0.7531200  3
   7880   7881   7883   7890     1  0.0000000  0.6508444  3
   7880   7898   7885   7884     1  180.0000771  0.4184000  2
   7880   7898   7885   7884     1  0.0000000  1.6024720  3
   7880   7898   7885   7889     1  0.0000000  1.6038667  3
   7881   7880   7891   7896     1  0.0000000  0.6508444  3
   7881   7880   7898   7885     1  180.0000771  0.4184000  2
   7881   7880   7898   7885     1  0.0000000  1.6024720  3
   7881   7883   7884   7885     1  180.0000771  0.8368000  1
   7881   7883   7884   7885     1  180.0000771  1.0460000  2
   7881   7883   7884   7885     1  0.0000000  0.7531200  3
   7881   7883   7884   7903     1  0.0000000  0.6508444  3
   7883   7881   7880   7891     1  180.0000771  0.8368000  1
   7883   7881   7880   7891     1  180.0000771  1.0460000  2
   7883   7881   7880   7891     1  0.0000000  0.7531200  3
   7883   7881   7880   7898     1  0.0000000  0.6508444  3
   7883   7884   7885   7889     1  0.0000000  0.6508444  3
   7883   7884   7885   7898     1  0.0000000  0.6508444  3
   7884   7883   7881   7901     1  0.0000000  0.6508444  3
   7885   7884   7883   7890     1  0.0000000  0.6508444  3
   7885   7898   7880   7891     1  180.0000771  0.4184000  2
   7885   7898   7880   7891     1  0.0000000  1.6024720  3
   7889   7885   7884   7903     1  0.0000000  0.6508444  3
   7890   7883   7881   7901     1  0.0000000  4.9162000  2
   7890   7883   7881   7901     1  0.0000000  0.6024960  3
   7890   7883   7884   7903     1  0.0000000  0.6508444  3
   7891   7880   7881   7901     1  0.0000000  0.6508444  3
   7896   7891   7880   7898     1  0.0000000  4.9162000  2
   7896   7891   7880   7898     1  0.0000000  0.6024960  3
   7898   7880   7881   7901     1  0.0000000  4.9162000  2
   7898   7880   7881   7901     1  0.0000000  0.6024960  3
   7898   7885   7884   7903     1  0.0000000  0.6508444  3
   7904   7905   7907   7908     1  180.0000771  0.8368000  1
   7904   7905   7907   7908     1  180.0000771  1.0460000  2
   7904   7905   7907   7908     1  0.0000000  0.7531200  3
   7904   7905   7907   7914     1  0.0000000  0.6508444  3
   7904   7922   7909   7908     1  180.0000771  0.4184000  2
   7904   7922   7909   7908     1  0.0000000  1.6024720  3
   7904   7922   7909   7913     1  0.0000000  1.6038667  3
   7905   7904   7915   7920     1  0.0000000  0.6508444  3
   7905   7904   7922   7909     1  180.0000771  0.4184000  2
   7905   7904   7922   7909     1  0.0000000  1.6024720  3
   7905   7907   7908   7909     1  180.0000771  0.8368000  1
   7905   7907   7908   7909     1  180.0000771  1.0460000  2
   7905   7907   7908   7909     1  0.0000000  0.7531200  3
   7905   7907   7908   7927     1  0.0000000  0.6508444  3
   7907   7905   7904   7915     1  180.0000771  0.8368000  1
   7907   7905   7904   7915     1  180.0000771  1.0460000  2
   7907   7905   7904   7915     1  0.0000000  0.7531200  3
   7907   7905   7904   7922     1  0.0000000  0.6508444  3
   7907   7908   7909   7913     1  0.0000000  0.6508444  3
   7907   7908   7909   7922     1  0.0000000  0.6508444  3
   7908   7907   7905   7925     1  0.0000000  0.6508444  3
   7909   7908   7907   7914     1  0.0000000  0.6508444  3
   7909   7922   7904   7915     1  180.0000771  0.4184000  2
   7909   7922   7904   7915     1  0.0000000  1.6024720  3
   7913   7909   7908   7927     1  0.0000000  0.6508444  3
   7914   7907   7905   7925     1  0.0000000  4.9162000  2
   7914   7907   7905   7925     1  0.0000000  0.6024960  3
   7914   7907   7908   7927     1  0.0000000  0.6508444  3
   7915   7904   7905   7925     1  0.0000000  0.6508444  3
   7920   7915   7904   7922     1  0.0000000  4.9162000  2
   7920   7915   7904   7922     1  0.0000000  0.6024960  3
   7922   7904   7905   7925     1  0.0000000  4.9162000  2
   7922   7904   7905   7925     1  0.0000000  0.6024960  3
   7922   7909   7908   7927     1  0.0000000  0.6508444  3
   7929   7931   7933   7937     1  0.0000000  0.6508444  3
   7931   7933   7937   7938     1  0.0000000  0.6508444  3
   7931   7933   7937   7939     1  0.0000000  0.6508444  3
   7933   7937   7938   7949     1  0.0000000  0.6508444  3
   7933   7937   7939   7941     1  0.0000000  0.6508444  3
   7937   7938   7949   7952     1  0.0000000  0.6508444  3
   7937   7939   7941   7945     1  0.0000000  0.6508444  3
   7938   7949   7952   7953     1  180.0000771  0.0000000  2
   7938   7949   7952   8001     1  180.0000771  0.0000000  2
   7938   7937   7939   7941     1  0.0000000  0.6508444  3
   7939   7941   7945   7946     1  180.0000771  0.0000000  2
   7939   7941   7945   7977     1  180.0000771  0.0000000  2
   7939   7937   7938   7949     1  0.0000000  0.6508444  3
   7941   7945   7977   7958     1  180.0000771  6.0668000  2
   7941   7945   7977   7958     1  180.0000771  1.4644000  4
   7945   7977   7958   7959     1  0.0000000  1.2552000  3
   7945   7977   7958   7957     1  0.0000000  1.2552000  3
   7946   7945   7977   7958     1  180.0000771  6.0668000  2
   7946   7945   7977   7958     1  180.0000771  1.4644000  4
   7949   7952   8001   7982     1  180.0000771  6.0668000  2
   7949   7952   8001   7982     1  180.0000771  1.4644000  4
   7952   8001   7982   7983     1  0.0000000  1.2552000  3
   7952   8001   7982   7981     1  0.0000000  1.2552000  3
   7953   7952   8001   7982     1  180.0000771  6.0668000  2
   7953   7952   8001   7982     1  180.0000771  1.4644000  4
   7954   7955   7957   7958     1  180.0000771  0.8368000  1
   7954   7955   7957   7958     1  180.0000771  1.0460000  2
   7954   7955   7957   7958     1  0.0000000  0.7531200  3
   7954   7955   7957   7964     1  0.0000000  0.6508444  3
   7954   7972   7959   7963     1  0.0000000  1.6038667  3
   7954   7972   7959   7958     1  180.0000771  0.4184000  2
   7954   7972   7959   7958     1  0.0000000  1.6024720  3
   7955   7957   7958   7959     1  180.0000771  0.8368000  1
   7955   7957   7958   7959     1  180.0000771  1.0460000  2
   7955   7957   7958   7959     1  0.0000000  0.7531200  3
   7955   7957   7958   7977     1  0.0000000  0.6508444  3
   7955   7954   7965   7970     1  0.0000000  0.6508444  3
   7955   7954   7972   7959     1  180.0000771  0.4184000  2
   7955   7954   7972   7959     1  0.0000000  1.6024720  3
   7957   7958   7959   7963     1  0.0000000  0.6508444  3
   7957   7958   7959   7972     1  0.0000000  0.6508444  3
   7957   7955   7954   7965     1  180.0000771  0.8368000  1
   7957   7955   7954   7965     1  180.0000771  1.0460000  2
   7957   7955   7954   7965     1  0.0000000  0.7531200  3
   7957   7955   7954   7972     1  0.0000000  0.6508444  3
   7958   7957   7955   7975     1  0.0000000  0.6508444  3
   7959   7972   7954   7965     1  180.0000771  0.4184000  2
   7959   7972   7954   7965     1  0.0000000  1.6024720  3
   7959   7958   7957   7964     1  0.0000000  0.6508444  3
   7963   7959   7958   7977     1  0.0000000  0.6508444  3
   7964   7957   7958   7977     1  0.0000000  0.6508444  3
   7964   7957   7955   7975     1  0.0000000  4.9162000  2
   7964   7957   7955   7975     1  0.0000000  0.6024960  3
   7965   7954   7955   7975     1  0.0000000  0.6508444  3
   7970   7965   7954   7972     1  0.0000000  4.9162000  2
   7970   7965   7954   7972     1  0.0000000  0.6024960  3
   7972   7959   7958   7977     1  0.0000000  0.6508444  3
   7972   7954   7955   7975     1  0.0000000  4.9162000  2
   7972   7954   7955   7975     1  0.0000000  0.6024960  3
   7978   7979   7981   7982     1  180.0000771  0.8368000  1
   7978   7979   7981   7982     1  180.0000771  1.0460000  2
   7978   7979   7981   7982     1  0.0000000  0.7531200  3
   7978   7979   7981   7988     1  0.0000000  0.6508444  3
   7978   7996   7983   7987     1  0.0000000  1.6038667  3
   7978   7996   7983   7982     1  180.0000771  0.4184000  2
   7978   7996   7983   7982     1  0.0000000  1.6024720  3
   7979   7981   7982   7983     1  180.0000771  0.8368000  1
   7979   7981   7982   7983     1  180.0000771  1.0460000  2
   7979   7981   7982   7983     1  0.0000000  0.7531200  3
   7979   7981   7982   8001     1  0.0000000  0.6508444  3
   7979   7978   7989   7994     1  0.0000000  0.6508444  3
   7979   7978   7996   7983     1  180.0000771  0.4184000  2
   7979   7978   7996   7983     1  0.0000000  1.6024720  3
   7981   7982   7983   7987     1  0.0000000  0.6508444  3
   7981   7982   7983   7996     1  0.0000000  0.6508444  3
   7981   7979   7978   7989     1  180.0000771  0.8368000  1
   7981   7979   7978   7989     1  180.0000771  1.0460000  2
   7981   7979   7978   7989     1  0.0000000  0.7531200  3
   7981   7979   7978   7996     1  0.0000000  0.6508444  3
   7982   7981   7979   7999     1  0.0000000  0.6508444  3
   7983   7996   7978   7989     1  180.0000771  0.4184000  2
   7983   7996   7978   7989     1  0.0000000  1.6024720  3
   7983   7982   7981   7988     1  0.0000000  0.6508444  3
   7987   7983   7982   8001     1  0.0000000  0.6508444  3
   7988   7981   7982   8001     1  0.0000000  0.6508444  3
   7988   7981   7979   7999     1  0.0000000  4.9162000  2
   7988   7981   7979   7999     1  0.0000000  0.6024960  3
   7989   7978   7979   7999     1  0.0000000  0.6508444  3
   7994   7989   7978   7996     1  0.0000000  4.9162000  2
   7994   7989   7978   7996     1  0.0000000  0.6024960  3
   7996   7983   7982   8001     1  0.0000000  0.6508444  3
   7996   7978   7979   7999     1  0.0000000  4.9162000  2
   7996   7978   7979   7999     1  0.0000000  0.6024960  3
   8003   8005   8007   8011     1  0.0000000  0.6508444  3
   8005   8007   8011   8012     1  0.0000000  0.6508444  3
   8005   8007   8011   8013     1  0.0000000  0.6508444  3
   8007   8011   8012   8023     1  0.0000000  0.6508444  3
   8007   8011   8013   8015     1  0.0000000  0.6508444  3
   8011   8012   8023   8026     1  0.0000000  0.6508444  3
   8011   8013   8015   8019     1  0.0000000  0.6508444  3
   8012   8011   8013   8015     1  0.0000000  0.6508444  3
   8012   8023   8026   8027     1  180.0000771  0.0000000  2
   8012   8023   8026   8075     1  180.0000771  0.0000000  2
   8013   8011   8012   8023     1  0.0000000  0.6508444  3
   8013   8015   8019   8020     1  180.0000771  0.0000000  2
   8013   8015   8019   8051     1  180.0000771  0.0000000  2
   8015   8019   8051   8032     1  180.0000771  6.0668000  2
   8015   8019   8051   8032     1  180.0000771  1.4644000  4
   8019   8051   8032   8031     1  0.0000000  1.2552000  3
   8019   8051   8032   8033     1  0.0000000  1.2552000  3
   8020   8019   8051   8032     1  180.0000771  6.0668000  2
   8020   8019   8051   8032     1  180.0000771  1.4644000  4
   8023   8026   8075   8056     1  180.0000771  6.0668000  2
   8023   8026   8075   8056     1  180.0000771  1.4644000  4
   8026   8075   8056   8055     1  0.0000000  1.2552000  3
   8026   8075   8056   8057     1  0.0000000  1.2552000  3
   8027   8026   8075   8056     1  180.0000771  6.0668000  2
   8027   8026   8075   8056     1  180.0000771  1.4644000  4
   8028   8029   8031   8032     1  180.0000771  0.8368000  1
   8028   8029   8031   8032     1  180.0000771  1.0460000  2
   8028   8029   8031   8032     1  0.0000000  0.7531200  3
   8028   8029   8031   8038     1  0.0000000  0.6508444  3
   8028   8046   8033   8032     1  180.0000771  0.4184000  2
   8028   8046   8033   8032     1  0.0000000  1.6024720  3
   8028   8046   8033   8037     1  0.0000000  1.6038667  3
   8029   8028   8039   8044     1  0.0000000  0.6508444  3
   8029   8028   8046   8033     1  180.0000771  0.4184000  2
   8029   8028   8046   8033     1  0.0000000  1.6024720  3
   8029   8031   8032   8033     1  180.0000771  0.8368000  1
   8029   8031   8032   8033     1  180.0000771  1.0460000  2
   8029   8031   8032   8033     1  0.0000000  0.7531200  3
   8029   8031   8032   8051     1  0.0000000  0.6508444  3
   8031   8029   8028   8039     1  180.0000771  0.8368000  1
   8031   8029   8028   8039     1  180.0000771  1.0460000  2
   8031   8029   8028   8039     1  0.0000000  0.7531200  3
   8031   8029   8028   8046     1  0.0000000  0.6508444  3
   8031   8032   8033   8037     1  0.0000000  0.6508444  3
   8031   8032   8033   8046     1  0.0000000  0.6508444  3
   8032   8031   8029   8049     1  0.0000000  0.6508444  3
   8033   8032   8031   8038     1  0.0000000  0.6508444  3
   8033   8046   8028   8039     1  180.0000771  0.4184000  2
   8033   8046   8028   8039     1  0.0000000  1.6024720  3
   8037   8033   8032   8051     1  0.0000000  0.6508444  3
   8038   8031   8029   8049     1  0.0000000  4.9162000  2
   8038   8031   8029   8049     1  0.0000000  0.6024960  3
   8038   8031   8032   8051     1  0.0000000  0.6508444  3
   8039   8028   8029   8049     1  0.0000000  0.6508444  3
   8044   8039   8028   8046     1  0.0000000  4.9162000  2
   8044   8039   8028   8046     1  0.0000000  0.6024960  3
   8046   8028   8029   8049     1  0.0000000  4.9162000  2
   8046   8028   8029   8049     1  0.0000000  0.6024960  3
   8046   8033   8032   8051     1  0.0000000  0.6508444  3
   8052   8053   8055   8056     1  180.0000771  0.8368000  1
   8052   8053   8055   8056     1  180.0000771  1.0460000  2
   8052   8053   8055   8056     1  0.0000000  0.7531200  3
   8052   8053   8055   8062     1  0.0000000  0.6508444  3
   8052   8070   8057   8056     1  180.0000771  0.4184000  2
   8052   8070   8057   8056     1  0.0000000  1.6024720  3
   8052   8070   8057   8061     1  0.0000000  1.6038667  3
   8053   8052   8063   8068     1  0.0000000  0.6508444  3
   8053   8052   8070   8057     1  180.0000771  0.4184000  2
   8053   8052   8070   8057     1  0.0000000  1.6024720  3
   8053   8055   8056   8057     1  180.0000771  0.8368000  1
   8053   8055   8056   8057     1  180.0000771  1.0460000  2
   8053   8055   8056   8057     1  0.0000000  0.7531200  3
   8053   8055   8056   8075     1  0.0000000  0.6508444  3
   8055   8053   8052   8063     1  180.0000771  0.8368000  1
   8055   8053   8052   8063     1  180.0000771  1.0460000  2
   8055   8053   8052   8063     1  0.0000000  0.7531200  3
   8055   8053   8052   8070     1  0.0000000  0.6508444  3
   8055   8056   8057   8061     1  0.0000000  0.6508444  3
   8055   8056   8057   8070     1  0.0000000  0.6508444  3
   8056   8055   8053   8073     1  0.0000000  0.6508444  3
   8057   8056   8055   8062     1  0.0000000  0.6508444  3
   8057   8070   8052   8063     1  180.0000771  0.4184000  2
   8057   8070   8052   8063     1  0.0000000  1.6024720  3
   8061   8057   8056   8075     1  0.0000000  0.6508444  3
   8062   8055   8053   8073     1  0.0000000  4.9162000  2
   8062   8055   8053   8073     1  0.0000000  0.6024960  3
   8062   8055   8056   8075     1  0.0000000  0.6508444  3
   8063   8052   8053   8073     1  0.0000000  0.6508444  3
   8068   8063   8052   8070     1  0.0000000  4.9162000  2
   8068   8063   8052   8070     1  0.0000000  0.6024960  3
   8070   8052   8053   8073     1  0.0000000  4.9162000  2
   8070   8052   8053   8073     1  0.0000000  0.6024960  3
   8070   8057   8056   8075     1  0.0000000  0.6508444  3
   8077   8079   8081   8085     1  0.0000000  0.6508444  3
   8079   8081   8085   8086     1  0.0000000  0.6508444  3
   8079   8081   8085   8087     1  0.0000000  0.6508444  3
   8081   8085   8086   8097     1  0.0000000  0.6508444  3
   8081   8085   8087   8089     1  0.0000000  0.6508444  3
   8085   8086   8097   8100     1  0.0000000  0.6508444  3
   8085   8087   8089   8093     1  0.0000000  0.6508444  3
   8086   8097   8100   8101     1  180.0000771  0.0000000  2
   8086   8097   8100   8149     1  180.0000771  0.0000000  2
   8086   8085   8087   8089     1  0.0000000  0.6508444  3
   8087   8089   8093   8094     1  180.0000771  0.0000000  2
   8087   8089   8093   8125     1  180.0000771  0.0000000  2
   8087   8085   8086   8097     1  0.0000000  0.6508444  3
   8089   8093   8125   8106     1  180.0000771  6.0668000  2
   8089   8093   8125   8106     1  180.0000771  1.4644000  4
   8093   8125   8106   8107     1  0.0000000  1.2552000  3
   8093   8125   8106   8105     1  0.0000000  1.2552000  3
   8094   8093   8125   8106     1  180.0000771  6.0668000  2
   8094   8093   8125   8106     1  180.0000771  1.4644000  4
   8097   8100   8149   8130     1  180.0000771  6.0668000  2
   8097   8100   8149   8130     1  180.0000771  1.4644000  4
   8100   8149   8130   8131     1  0.0000000  1.2552000  3
   8100   8149   8130   8129     1  0.0000000  1.2552000  3
   8101   8100   8149   8130     1  180.0000771  6.0668000  2
   8101   8100   8149   8130     1  180.0000771  1.4644000  4
   8102   8103   8105   8106     1  180.0000771  0.8368000  1
   8102   8103   8105   8106     1  180.0000771  1.0460000  2
   8102   8103   8105   8106     1  0.0000000  0.7531200  3
   8102   8103   8105   8112     1  0.0000000  0.6508444  3
   8102   8120   8107   8111     1  0.0000000  1.6038667  3
   8102   8120   8107   8106     1  180.0000771  0.4184000  2
   8102   8120   8107   8106     1  0.0000000  1.6024720  3
   8103   8105   8106   8107     1  180.0000771  0.8368000  1
   8103   8105   8106   8107     1  180.0000771  1.0460000  2
   8103   8105   8106   8107     1  0.0000000  0.7531200  3
   8103   8105   8106   8125     1  0.0000000  0.6508444  3
   8103   8102   8113   8118     1  0.0000000  0.6508444  3
   8103   8102   8120   8107     1  180.0000771  0.4184000  2
   8103   8102   8120   8107     1  0.0000000  1.6024720  3
   8105   8106   8107   8111     1  0.0000000  0.6508444  3
   8105   8106   8107   8120     1  0.0000000  0.6508444  3
   8105   8103   8102   8113     1  180.0000771  0.8368000  1
   8105   8103   8102   8113     1  180.0000771  1.0460000  2
   8105   8103   8102   8113     1  0.0000000  0.7531200  3
   8105   8103   8102   8120     1  0.0000000  0.6508444  3
   8106   8105   8103   8123     1  0.0000000  0.6508444  3
   8107   8120   8102   8113     1  180.0000771  0.4184000  2
   8107   8120   8102   8113     1  0.0000000  1.6024720  3
   8107   8106   8105   8112     1  0.0000000  0.6508444  3
   8111   8107   8106   8125     1  0.0000000  0.6508444  3
   8112   8105   8106   8125     1  0.0000000  0.6508444  3
   8112   8105   8103   8123     1  0.0000000  4.9162000  2
   8112   8105   8103   8123     1  0.0000000  0.6024960  3
   8113   8102   8103   8123     1  0.0000000  0.6508444  3
   8118   8113   8102   8120     1  0.0000000  4.9162000  2
   8118   8113   8102   8120     1  0.0000000  0.6024960  3
   8120   8107   8106   8125     1  0.0000000  0.6508444  3
   8120   8102   8103   8123     1  0.0000000  4.9162000  2
   8120   8102   8103   8123     1  0.0000000  0.6024960  3
   8126   8127   8129   8130     1  180.0000771  0.8368000  1
   8126   8127   8129   8130     1  180.0000771  1.0460000  2
   8126   8127   8129   8130     1  0.0000000  0.7531200  3
   8126   8127   8129   8136     1  0.0000000  0.6508444  3
   8126   8144   8131   8135     1  0.0000000  1.6038667  3
   8126   8144   8131   8130     1  180.0000771  0.4184000  2
   8126   8144   8131   8130     1  0.0000000  1.6024720  3
   8127   8129   8130   8131     1  180.0000771  0.8368000  1
   8127   8129   8130   8131     1  180.0000771  1.0460000  2
   8127   8129   8130   8131     1  0.0000000  0.7531200  3
   8127   8129   8130   8149     1  0.0000000  0.6508444  3
   8127   8126   8137   8142     1  0.0000000  0.6508444  3
   8127   8126   8144   8131     1  180.0000771  0.4184000  2
   8127   8126   8144   8131     1  0.0000000  1.6024720  3
   8129   8130   8131   8135     1  0.0000000  0.6508444  3
   8129   8130   8131   8144     1  0.0000000  0.6508444  3
   8129   8127   8126   8137     1  180.0000771  0.8368000  1
   8129   8127   8126   8137     1  180.0000771  1.0460000  2
   8129   8127   8126   8137     1  0.0000000  0.7531200  3
   8129   8127   8126   8144     1  0.0000000  0.6508444  3
   8130   8129   8127   8147     1  0.0000000  0.6508444  3
   8131   8144   8126   8137     1  180.0000771  0.4184000  2
   8131   8144   8126   8137     1  0.0000000  1.6024720  3
   8131   8130   8129   8136     1  0.0000000  0.6508444  3
   8135   8131   8130   8149     1  0.0000000  0.6508444  3
   8136   8129   8130   8149     1  0.0000000  0.6508444  3
   8136   8129   8127   8147     1  0.0000000  4.9162000  2
   8136   8129   8127   8147     1  0.0000000  0.6024960  3
   8137   8126   8127   8147     1  0.0000000  0.6508444  3
   8142   8137   8126   8144     1  0.0000000  4.9162000  2
   8142   8137   8126   8144     1  0.0000000  0.6024960  3
   8144   8131   8130   8149     1  0.0000000  0.6508444  3
   8144   8126   8127   8147     1  0.0000000  4.9162000  2
   8144   8126   8127   8147     1  0.0000000  0.6024960  3
   8151   8153   8155   8159     1  0.0000000  0.6508444  3
   8153   8155   8159   8160     1  0.0000000  0.6508444  3
   8153   8155   8159   8161     1  0.0000000  0.6508444  3
   8155   8159   8160   8171     1  0.0000000  0.6508444  3
   8155   8159   8161   8163     1  0.0000000  0.6508444  3
   8159   8160   8171   8174     1  0.0000000  0.6508444  3
   8159   8161   8163   8167     1  0.0000000  0.6508444  3
   8160   8159   8161   8163     1  0.0000000  0.6508444  3
   8160   8171   8174   8175     1  180.0000771  0.0000000  2
   8160   8171   8174   8223     1  180.0000771  0.0000000  2
   8161   8159   8160   8171     1  0.0000000  0.6508444  3
   8161   8163   8167   8168     1  180.0000771  0.0000000  2
   8161   8163   8167   8199     1  180.0000771  0.0000000  2
   8163   8167   8199   8180     1  180.0000771  6.0668000  2
   8163   8167   8199   8180     1  180.0000771  1.4644000  4
   8167   8199   8180   8179     1  0.0000000  1.2552000  3
   8167   8199   8180   8181     1  0.0000000  1.2552000  3
   8168   8167   8199   8180     1  180.0000771  6.0668000  2
   8168   8167   8199   8180     1  180.0000771  1.4644000  4
   8171   8174   8223   8204     1  180.0000771  6.0668000  2
   8171   8174   8223   8204     1  180.0000771  1.4644000  4
   8174   8223   8204   8203     1  0.0000000  1.2552000  3
   8174   8223   8204   8205     1  0.0000000  1.2552000  3
   8175   8174   8223   8204     1  180.0000771  6.0668000  2
   8175   8174   8223   8204     1  180.0000771  1.4644000  4
   8176   8177   8179   8180     1  180.0000771  0.8368000  1
   8176   8177   8179   8180     1  180.0000771  1.0460000  2
   8176   8177   8179   8180     1  0.0000000  0.7531200  3
   8176   8177   8179   8186     1  0.0000000  0.6508444  3
   8176   8194   8181   8180     1  180.0000771  0.4184000  2
   8176   8194   8181   8180     1  0.0000000  1.6024720  3
   8176   8194   8181   8185     1  0.0000000  1.6038667  3
   8177   8176   8187   8192     1  0.0000000  0.6508444  3
   8177   8176   8194   8181     1  180.0000771  0.4184000  2
   8177   8176   8194   8181     1  0.0000000  1.6024720  3
   8177   8179   8180   8181     1  180.0000771  0.8368000  1
   8177   8179   8180   8181     1  180.0000771  1.0460000  2
   8177   8179   8180   8181     1  0.0000000  0.7531200  3
   8177   8179   8180   8199     1  0.0000000  0.6508444  3
   8179   8177   8176   8187     1  180.0000771  0.8368000  1
   8179   8177   8176   8187     1  180.0000771  1.0460000  2
   8179   8177   8176   8187     1  0.0000000  0.7531200  3
   8179   8177   8176   8194     1  0.0000000  0.6508444  3
   8179   8180   8181   8185     1  0.0000000  0.6508444  3
   8179   8180   8181   8194     1  0.0000000  0.6508444  3
   8180   8179   8177   8197     1  0.0000000  0.6508444  3
   8181   8180   8179   8186     1  0.0000000  0.6508444  3
   8181   8194   8176   8187     1  180.0000771  0.4184000  2
   8181   8194   8176   8187     1  0.0000000  1.6024720  3
   8185   8181   8180   8199     1  0.0000000  0.6508444  3
   8186   8179   8177   8197     1  0.0000000  4.9162000  2
   8186   8179   8177   8197     1  0.0000000  0.6024960  3
   8186   8179   8180   8199     1  0.0000000  0.6508444  3
   8187   8176   8177   8197     1  0.0000000  0.6508444  3
   8192   8187   8176   8194     1  0.0000000  4.9162000  2
   8192   8187   8176   8194     1  0.0000000  0.6024960  3
   8194   8176   8177   8197     1  0.0000000  4.9162000  2
   8194   8176   8177   8197     1  0.0000000  0.6024960  3
   8194   8181   8180   8199     1  0.0000000  0.6508444  3
   8200   8201   8203   8204     1  180.0000771  0.8368000  1
   8200   8201   8203   8204     1  180.0000771  1.0460000  2
   8200   8201   8203   8204     1  0.0000000  0.7531200  3
   8200   8201   8203   8210     1  0.0000000  0.6508444  3
   8200   8218   8205   8204     1  180.0000771  0.4184000  2
   8200   8218   8205   8204     1  0.0000000  1.6024720  3
   8200   8218   8205   8209     1  0.0000000  1.6038667  3
   8201   8200   8211   8216     1  0.0000000  0.6508444  3
   8201   8200   8218   8205     1  180.0000771  0.4184000  2
   8201   8200   8218   8205     1  0.0000000  1.6024720  3
   8201   8203   8204   8205     1  180.0000771  0.8368000  1
   8201   8203   8204   8205     1  180.0000771  1.0460000  2
   8201   8203   8204   8205     1  0.0000000  0.7531200  3
   8201   8203   8204   8223     1  0.0000000  0.6508444  3
   8203   8201   8200   8211     1  180.0000771  0.8368000  1
   8203   8201   8200   8211     1  180.0000771  1.0460000  2
   8203   8201   8200   8211     1  0.0000000  0.7531200  3
   8203   8201   8200   8218     1  0.0000000  0.6508444  3
   8203   8204   8205   8209     1  0.0000000  0.6508444  3
   8203   8204   8205   8218     1  0.0000000  0.6508444  3
   8204   8203   8201   8221     1  0.0000000  0.6508444  3
   8205   8204   8203   8210     1  0.0000000  0.6508444  3
   8205   8218   8200   8211     1  180.0000771  0.4184000  2
   8205   8218   8200   8211     1  0.0000000  1.6024720  3
   8209   8205   8204   8223     1  0.0000000  0.6508444  3
   8210   8203   8201   8221     1  0.0000000  4.9162000  2
   8210   8203   8201   8221     1  0.0000000  0.6024960  3
   8210   8203   8204   8223     1  0.0000000  0.6508444  3
   8211   8200   8201   8221     1  0.0000000  0.6508444  3
   8216   8211   8200   8218     1  0.0000000  4.9162000  2
   8216   8211   8200   8218     1  0.0000000  0.6024960  3
   8218   8200   8201   8221     1  0.0000000  4.9162000  2
   8218   8200   8201   8221     1  0.0000000  0.6024960  3
   8218   8205   8204   8223     1  0.0000000  0.6508444  3
   8225   8227   8229   8233     1  0.0000000  0.6508444  3
   8227   8229   8233   8234     1  0.0000000  0.6508444  3
   8227   8229   8233   8235     1  0.0000000  0.6508444  3
   8229   8233   8234   8245     1  0.0000000  0.6508444  3
   8229   8233   8235   8237     1  0.0000000  0.6508444  3
   8233   8234   8245   8248     1  0.0000000  0.6508444  3
   8233   8235   8237   8241     1  0.0000000  0.6508444  3
   8234   8245   8248   8249     1  180.0000771  0.0000000  2
   8234   8245   8248   8297     1  180.0000771  0.0000000  2
   8234   8233   8235   8237     1  0.0000000  0.6508444  3
   8235   8237   8241   8242     1  180.0000771  0.0000000  2
   8235   8237   8241   8273     1  180.0000771  0.0000000  2
   8235   8233   8234   8245     1  0.0000000  0.6508444  3
   8237   8241   8273   8254     1  180.0000771  6.0668000  2
   8237   8241   8273   8254     1  180.0000771  1.4644000  4
   8241   8273   8254   8255     1  0.0000000  1.2552000  3
   8241   8273   8254   8253     1  0.0000000  1.2552000  3
   8242   8241   8273   8254     1  180.0000771  6.0668000  2
   8242   8241   8273   8254     1  180.0000771  1.4644000  4
   8245   8248   8297   8278     1  180.0000771  6.0668000  2
   8245   8248   8297   8278     1  180.0000771  1.4644000  4
   8248   8297   8278   8279     1  0.0000000  1.2552000  3
   8248   8297   8278   8277     1  0.0000000  1.2552000  3
   8249   8248   8297   8278     1  180.0000771  6.0668000  2
   8249   8248   8297   8278     1  180.0000771  1.4644000  4
   8250   8251   8253   8254     1  180.0000771  0.8368000  1
   8250   8251   8253   8254     1  180.0000771  1.0460000  2
   8250   8251   8253   8254     1  0.0000000  0.7531200  3
   8250   8251   8253   8260     1  0.0000000  0.6508444  3
   8250   8268   8255   8259     1  0.0000000  1.6038667  3
   8250   8268   8255   8254     1  180.0000771  0.4184000  2
   8250   8268   8255   8254     1  0.0000000  1.6024720  3
   8251   8253   8254   8255     1  180.0000771  0.8368000  1
   8251   8253   8254   8255     1  180.0000771  1.0460000  2
   8251   8253   8254   8255     1  0.0000000  0.7531200  3
   8251   8253   8254   8273     1  0.0000000  0.6508444  3
   8251   8250   8261   8266     1  0.0000000  0.6508444  3
   8251   8250   8268   8255     1  180.0000771  0.4184000  2
   8251   8250   8268   8255     1  0.0000000  1.6024720  3
   8253   8254   8255   8259     1  0.0000000  0.6508444  3
   8253   8254   8255   8268     1  0.0000000  0.6508444  3
   8253   8251   8250   8261     1  180.0000771  0.8368000  1
   8253   8251   8250   8261     1  180.0000771  1.0460000  2
   8253   8251   8250   8261     1  0.0000000  0.7531200  3
   8253   8251   8250   8268     1  0.0000000  0.6508444  3
   8254   8253   8251   8271     1  0.0000000  0.6508444  3
   8255   8268   8250   8261     1  180.0000771  0.4184000  2
   8255   8268   8250   8261     1  0.0000000  1.6024720  3
   8255   8254   8253   8260     1  0.0000000  0.6508444  3
   8259   8255   8254   8273     1  0.0000000  0.6508444  3
   8260   8253   8254   8273     1  0.0000000  0.6508444  3
   8260   8253   8251   8271     1  0.0000000  4.9162000  2
   8260   8253   8251   8271     1  0.0000000  0.6024960  3
   8261   8250   8251   8271     1  0.0000000  0.6508444  3
   8266   8261   8250   8268     1  0.0000000  4.9162000  2
   8266   8261   8250   8268     1  0.0000000  0.6024960  3
   8268   8255   8254   8273     1  0.0000000  0.6508444  3
   8268   8250   8251   8271     1  0.0000000  4.9162000  2
   8268   8250   8251   8271     1  0.0000000  0.6024960  3
   8274   8275   8277   8278     1  180.0000771  0.8368000  1
   8274   8275   8277   8278     1  180.0000771  1.0460000  2
   8274   8275   8277   8278     1  0.0000000  0.7531200  3
   8274   8275   8277   8284     1  0.0000000  0.6508444  3
   8274   8292   8279   8283     1  0.0000000  1.6038667  3
   8274   8292   8279   8278     1  180.0000771  0.4184000  2
   8274   8292   8279   8278     1  0.0000000  1.6024720  3
   8275   8277   8278   8279     1  180.0000771  0.8368000  1
   8275   8277   8278   8279     1  180.0000771  1.0460000  2
   8275   8277   8278   8279     1  0.0000000  0.7531200  3
   8275   8277   8278   8297     1  0.0000000  0.6508444  3
   8275   8274   8285   8290     1  0.0000000  0.6508444  3
   8275   8274   8292   8279     1  180.0000771  0.4184000  2
   8275   8274   8292   8279     1  0.0000000  1.6024720  3
   8277   8278   8279   8283     1  0.0000000  0.6508444  3
   8277   8278   8279   8292     1  0.0000000  0.6508444  3
   8277   8275   8274   8285     1  180.0000771  0.8368000  1
   8277   8275   8274   8285     1  180.0000771  1.0460000  2
   8277   8275   8274   8285     1  0.0000000  0.7531200  3
   8277   8275   8274   8292     1  0.0000000  0.6508444  3
   8278   8277   8275   8295     1  0.0000000  0.6508444  3
   8279   8292   8274   8285     1  180.0000771  0.4184000  2
   8279   8292   8274   8285     1  0.0000000  1.6024720  3
   8279   8278   8277   8284     1  0.0000000  0.6508444  3
   8283   8279   8278   8297     1  0.0000000  0.6508444  3
   8284   8277   8278   8297     1  0.0000000  0.6508444  3
   8284   8277   8275   8295     1  0.0000000  4.9162000  2
   8284   8277   8275   8295     1  0.0000000  0.6024960  3
   8285   8274   8275   8295     1  0.0000000  0.6508444  3
   8290   8285   8274   8292     1  0.0000000  4.9162000  2
   8290   8285   8274   8292     1  0.0000000  0.6024960  3
   8292   8279   8278   8297     1  0.0000000  0.6508444  3
   8292   8274   8275   8295     1  0.0000000  4.9162000  2
   8292   8274   8275   8295     1  0.0000000  0.6024960  3
   8299   8301   8303   8307     1  0.0000000  0.6508444  3
   8301   8303   8307   8308     1  0.0000000  0.6508444  3
   8301   8303   8307   8309     1  0.0000000  0.6508444  3
   8303   8307   8308   8319     1  0.0000000  0.6508444  3
   8303   8307   8309   8311     1  0.0000000  0.6508444  3
   8307   8308   8319   8322     1  0.0000000  0.6508444  3
   8307   8309   8311   8315     1  0.0000000  0.6508444  3
   8308   8307   8309   8311     1  0.0000000  0.6508444  3
   8308   8319   8322   8323     1  180.0000771  0.0000000  2
   8308   8319   8322   8371     1  180.0000771  0.0000000  2
   8309   8307   8308   8319     1  0.0000000  0.6508444  3
   8309   8311   8315   8316     1  180.0000771  0.0000000  2
   8309   8311   8315   8347     1  180.0000771  0.0000000  2
   8311   8315   8347   8328     1  180.0000771  6.0668000  2
   8311   8315   8347   8328     1  180.0000771  1.4644000  4
   8315   8347   8328   8327     1  0.0000000  1.2552000  3
   8315   8347   8328   8329     1  0.0000000  1.2552000  3
   8316   8315   8347   8328     1  180.0000771  6.0668000  2
   8316   8315   8347   8328     1  180.0000771  1.4644000  4
   8319   8322   8371   8352     1  180.0000771  6.0668000  2
   8319   8322   8371   8352     1  180.0000771  1.4644000  4
   8322   8371   8352   8351     1  0.0000000  1.2552000  3
   8322   8371   8352   8353     1  0.0000000  1.2552000  3
   8323   8322   8371   8352     1  180.0000771  6.0668000  2
   8323   8322   8371   8352     1  180.0000771  1.4644000  4
   8324   8325   8327   8328     1  180.0000771  0.8368000  1
   8324   8325   8327   8328     1  180.0000771  1.0460000  2
   8324   8325   8327   8328     1  0.0000000  0.7531200  3
   8324   8325   8327   8334     1  0.0000000  0.6508444  3
   8324   8342   8329   8328     1  180.0000771  0.4184000  2
   8324   8342   8329   8328     1  0.0000000  1.6024720  3
   8324   8342   8329   8333     1  0.0000000  1.6038667  3
   8325   8324   8335   8340     1  0.0000000  0.6508444  3
   8325   8324   8342   8329     1  180.0000771  0.4184000  2
   8325   8324   8342   8329     1  0.0000000  1.6024720  3
   8325   8327   8328   8329     1  180.0000771  0.8368000  1
   8325   8327   8328   8329     1  180.0000771  1.0460000  2
   8325   8327   8328   8329     1  0.0000000  0.7531200  3
   8325   8327   8328   8347     1  0.0000000  0.6508444  3
   8327   8325   8324   8335     1  180.0000771  0.8368000  1
   8327   8325   8324   8335     1  180.0000771  1.0460000  2
   8327   8325   8324   8335     1  0.0000000  0.7531200  3
   8327   8325   8324   8342     1  0.0000000  0.6508444  3
   8327   8328   8329   8333     1  0.0000000  0.6508444  3
   8327   8328   8329   8342     1  0.0000000  0.6508444  3
   8328   8327   8325   8345     1  0.0000000  0.6508444  3
   8329   8328   8327   8334     1  0.0000000  0.6508444  3
   8329   8342   8324   8335     1  180.0000771  0.4184000  2
   8329   8342   8324   8335     1  0.0000000  1.6024720  3
   8333   8329   8328   8347     1  0.0000000  0.6508444  3
   8334   8327   8325   8345     1  0.0000000  4.9162000  2
   8334   8327   8325   8345     1  0.0000000  0.6024960  3
   8334   8327   8328   8347     1  0.0000000  0.6508444  3
   8335   8324   8325   8345     1  0.0000000  0.6508444  3
   8340   8335   8324   8342     1  0.0000000  4.9162000  2
   8340   8335   8324   8342     1  0.0000000  0.6024960  3
   8342   8324   8325   8345     1  0.0000000  4.9162000  2
   8342   8324   8325   8345     1  0.0000000  0.6024960  3
   8342   8329   8328   8347     1  0.0000000  0.6508444  3
   8348   8349   8351   8352     1  180.0000771  0.8368000  1
   8348   8349   8351   8352     1  180.0000771  1.0460000  2
   8348   8349   8351   8352     1  0.0000000  0.7531200  3
   8348   8349   8351   8358     1  0.0000000  0.6508444  3
   8348   8366   8353   8352     1  180.0000771  0.4184000  2
   8348   8366   8353   8352     1  0.0000000  1.6024720  3
   8348   8366   8353   8357     1  0.0000000  1.6038667  3
   8349   8348   8359   8364     1  0.0000000  0.6508444  3
   8349   8348   8366   8353     1  180.0000771  0.4184000  2
   8349   8348   8366   8353     1  0.0000000  1.6024720  3
   8349   8351   8352   8353     1  180.0000771  0.8368000  1
   8349   8351   8352   8353     1  180.0000771  1.0460000  2
   8349   8351   8352   8353     1  0.0000000  0.7531200  3
   8349   8351   8352   8371     1  0.0000000  0.6508444  3
   8351   8349   8348   8359     1  180.0000771  0.8368000  1
   8351   8349   8348   8359     1  180.0000771  1.0460000  2
   8351   8349   8348   8359     1  0.0000000  0.7531200  3
   8351   8349   8348   8366     1  0.0000000  0.6508444  3
   8351   8352   8353   8357     1  0.0000000  0.6508444  3
   8351   8352   8353   8366     1  0.0000000  0.6508444  3
   8352   8351   8349   8369     1  0.0000000  0.6508444  3
   8353   8352   8351   8358     1  0.0000000  0.6508444  3
   8353   8366   8348   8359     1  180.0000771  0.4184000  2
   8353   8366   8348   8359     1  0.0000000  1.6024720  3
   8357   8353   8352   8371     1  0.0000000  0.6508444  3
   8358   8351   8349   8369     1  0.0000000  4.9162000  2
   8358   8351   8349   8369     1  0.0000000  0.6024960  3
   8358   8351   8352   8371     1  0.0000000  0.6508444  3
   8359   8348   8349   8369     1  0.0000000  0.6508444  3
   8364   8359   8348   8366     1  0.0000000  4.9162000  2
   8364   8359   8348   8366     1  0.0000000  0.6024960  3
   8366   8348   8349   8369     1  0.0000000  4.9162000  2
   8366   8348   8349   8369     1  0.0000000  0.6024960  3
   8366   8353   8352   8371     1  0.0000000  0.6508444  3
   8373   8375   8377   8381     1  0.0000000  0.6508444  3
   8375   8377   8381   8382     1  0.0000000  0.6508444  3
   8375   8377   8381   8383     1  0.0000000  0.6508444  3
   8377   8381   8382   8393     1  0.0000000  0.6508444  3
   8377   8381   8383   8385     1  0.0000000  0.6508444  3
   8381   8382   8393   8396     1  0.0000000  0.6508444  3
   8381   8383   8385   8389     1  0.0000000  0.6508444  3
   8382   8393   8396   8397     1  180.0000771  0.0000000  2
   8382   8393   8396   8445     1  180.0000771  0.0000000  2
   8382   8381   8383   8385     1  0.0000000  0.6508444  3
   8383   8385   8389   8390     1  180.0000771  0.0000000  2
   8383   8385   8389   8421     1  180.0000771  0.0000000  2
   8383   8381   8382   8393     1  0.0000000  0.6508444  3
   8385   8389   8421   8402     1  180.0000771  6.0668000  2
   8385   8389   8421   8402     1  180.0000771  1.4644000  4
   8389   8421   8402   8403     1  0.0000000  1.2552000  3
   8389   8421   8402   8401     1  0.0000000  1.2552000  3
   8390   8389   8421   8402     1  180.0000771  6.0668000  2
   8390   8389   8421   8402     1  180.0000771  1.4644000  4
   8393   8396   8445   8426     1  180.0000771  6.0668000  2
   8393   8396   8445   8426     1  180.0000771  1.4644000  4
   8396   8445   8426   8427     1  0.0000000  1.2552000  3
   8396   8445   8426   8425     1  0.0000000  1.2552000  3
   8397   8396   8445   8426     1  180.0000771  6.0668000  2
   8397   8396   8445   8426     1  180.0000771  1.4644000  4
   8398   8399   8401   8402     1  180.0000771  0.8368000  1
   8398   8399   8401   8402     1  180.0000771  1.0460000  2
   8398   8399   8401   8402     1  0.0000000  0.7531200  3
   8398   8399   8401   8408     1  0.0000000  0.6508444  3
   8398   8416   8403   8407     1  0.0000000  1.6038667  3
   8398   8416   8403   8402     1  180.0000771  0.4184000  2
   8398   8416   8403   8402     1  0.0000000  1.6024720  3
   8399   8401   8402   8403     1  180.0000771  0.8368000  1
   8399   8401   8402   8403     1  180.0000771  1.0460000  2
   8399   8401   8402   8403     1  0.0000000  0.7531200  3
   8399   8401   8402   8421     1  0.0000000  0.6508444  3
   8399   8398   8409   8414     1  0.0000000  0.6508444  3
   8399   8398   8416   8403     1  180.0000771  0.4184000  2
   8399   8398   8416   8403     1  0.0000000  1.6024720  3
   8401   8402   8403   8407     1  0.0000000  0.6508444  3
   8401   8402   8403   8416     1  0.0000000  0.6508444  3
   8401   8399   8398   8409     1  180.0000771  0.8368000  1
   8401   8399   8398   8409     1  180.0000771  1.0460000  2
   8401   8399   8398   8409     1  0.0000000  0.7531200  3
   8401   8399   8398   8416     1  0.0000000  0.6508444  3
   8402   8401   8399   8419     1  0.0000000  0.6508444  3
   8403   8416   8398   8409     1  180.0000771  0.4184000  2
   8403   8416   8398   8409     1  0.0000000  1.6024720  3
   8403   8402   8401   8408     1  0.0000000  0.6508444  3
   8407   8403   8402   8421     1  0.0000000  0.6508444  3
   8408   8401   8402   8421     1  0.0000000  0.6508444  3
   8408   8401   8399   8419     1  0.0000000  4.9162000  2
   8408   8401   8399   8419     1  0.0000000  0.6024960  3
   8409   8398   8399   8419     1  0.0000000  0.6508444  3
   8414   8409   8398   8416     1  0.0000000  4.9162000  2
   8414   8409   8398   8416     1  0.0000000  0.6024960  3
   8416   8403   8402   8421     1  0.0000000  0.6508444  3
   8416   8398   8399   8419     1  0.0000000  4.9162000  2
   8416   8398   8399   8419     1  0.0000000  0.6024960  3
   8422   8423   8425   8426     1  180.0000771  0.8368000  1
   8422   8423   8425   8426     1  180.0000771  1.0460000  2
   8422   8423   8425   8426     1  0.0000000  0.7531200  3
   8422   8423   8425   8432     1  0.0000000  0.6508444  3
   8422   8440   8427   8431     1  0.0000000  1.6038667  3
   8422   8440   8427   8426     1  180.0000771  0.4184000  2
   8422   8440   8427   8426     1  0.0000000  1.6024720  3
   8423   8425   8426   8427     1  180.0000771  0.8368000  1
   8423   8425   8426   8427     1  180.0000771  1.0460000  2
   8423   8425   8426   8427     1  0.0000000  0.7531200  3
   8423   8425   8426   8445     1  0.0000000  0.6508444  3
   8423   8422   8433   8438     1  0.0000000  0.6508444  3
   8423   8422   8440   8427     1  180.0000771  0.4184000  2
   8423   8422   8440   8427     1  0.0000000  1.6024720  3
   8425   8426   8427   8431     1  0.0000000  0.6508444  3
   8425   8426   8427   8440     1  0.0000000  0.6508444  3
   8425   8423   8422   8433     1  180.0000771  0.8368000  1
   8425   8423   8422   8433     1  180.0000771  1.0460000  2
   8425   8423   8422   8433     1  0.0000000  0.7531200  3
   8425   8423   8422   8440     1  0.0000000  0.6508444  3
   8426   8425   8423   8443     1  0.0000000  0.6508444  3
   8427   8440   8422   8433     1  180.0000771  0.4184000  2
   8427   8440   8422   8433     1  0.0000000  1.6024720  3
   8427   8426   8425   8432     1  0.0000000  0.6508444  3
   8431   8427   8426   8445     1  0.0000000  0.6508444  3
   8432   8425   8426   8445     1  0.0000000  0.6508444  3
   8432   8425   8423   8443     1  0.0000000  4.9162000  2
   8432   8425   8423   8443     1  0.0000000  0.6024960  3
   8433   8422   8423   8443     1  0.0000000  0.6508444  3
   8438   8433   8422   8440     1  0.0000000  4.9162000  2
   8438   8433   8422   8440     1  0.0000000  0.6024960  3
   8440   8427   8426   8445     1  0.0000000  0.6508444  3
   8440   8422   8423   8443     1  0.0000000  4.9162000  2
   8440   8422   8423   8443     1  0.0000000  0.6024960  3
   8447   8449   8451   8455     1  0.0000000  0.6508444  3
   8449   8451   8455   8456     1  0.0000000  0.6508444  3
   8449   8451   8455   8457     1  0.0000000  0.6508444  3
   8451   8455   8456   8467     1  0.0000000  0.6508444  3
   8451   8455   8457   8459     1  0.0000000  0.6508444  3
   8455   8456   8467   8470     1  0.0000000  0.6508444  3
   8455   8457   8459   8463     1  0.0000000  0.6508444  3
   8456   8455   8457   8459     1  0.0000000  0.6508444  3
   8456   8467   8470   8471     1  180.0000771  0.0000000  2
   8456   8467   8470   8519     1  180.0000771  0.0000000  2
   8457   8455   8456   8467     1  0.0000000  0.6508444  3
   8457   8459   8463   8464     1  180.0000771  0.0000000  2
   8457   8459   8463   8495     1  180.0000771  0.0000000  2
   8459   8463   8495   8476     1  180.0000771  6.0668000  2
   8459   8463   8495   8476     1  180.0000771  1.4644000  4
   8463   8495   8476   8475     1  0.0000000  1.2552000  3
   8463   8495   8476   8477     1  0.0000000  1.2552000  3
   8464   8463   8495   8476     1  180.0000771  6.0668000  2
   8464   8463   8495   8476     1  180.0000771  1.4644000  4
   8467   8470   8519   8500     1  180.0000771  6.0668000  2
   8467   8470   8519   8500     1  180.0000771  1.4644000  4
   8470   8519   8500   8499     1  0.0000000  1.2552000  3
   8470   8519   8500   8501     1  0.0000000  1.2552000  3
   8471   8470   8519   8500     1  180.0000771  6.0668000  2
   8471   8470   8519   8500     1  180.0000771  1.4644000  4
   8472   8473   8475   8476     1  180.0000771  0.8368000  1
   8472   8473   8475   8476     1  180.0000771  1.0460000  2
   8472   8473   8475   8476     1  0.0000000  0.7531200  3
   8472   8473   8475   8482     1  0.0000000  0.6508444  3
   8472   8490   8477   8476     1  180.0000771  0.4184000  2
   8472   8490   8477   8476     1  0.0000000  1.6024720  3
   8472   8490   8477   8481     1  0.0000000  1.6038667  3
   8473   8472   8483   8488     1  0.0000000  0.6508444  3
   8473   8472   8490   8477     1  180.0000771  0.4184000  2
   8473   8472   8490   8477     1  0.0000000  1.6024720  3
   8473   8475   8476   8477     1  180.0000771  0.8368000  1
   8473   8475   8476   8477     1  180.0000771  1.0460000  2
   8473   8475   8476   8477     1  0.0000000  0.7531200  3
   8473   8475   8476   8495     1  0.0000000  0.6508444  3
   8475   8473   8472   8483     1  180.0000771  0.8368000  1
   8475   8473   8472   8483     1  180.0000771  1.0460000  2
   8475   8473   8472   8483     1  0.0000000  0.7531200  3
   8475   8473   8472   8490     1  0.0000000  0.6508444  3
   8475   8476   8477   8481     1  0.0000000  0.6508444  3
   8475   8476   8477   8490     1  0.0000000  0.6508444  3
   8476   8475   8473   8493     1  0.0000000  0.6508444  3
   8477   8476   8475   8482     1  0.0000000  0.6508444  3
   8477   8490   8472   8483     1  180.0000771  0.4184000  2
   8477   8490   8472   8483     1  0.0000000  1.6024720  3
   8481   8477   8476   8495     1  0.0000000  0.6508444  3
   8482   8475   8473   8493     1  0.0000000  4.9162000  2
   8482   8475   8473   8493     1  0.0000000  0.6024960  3
   8482   8475   8476   8495     1  0.0000000  0.6508444  3
   8483   8472   8473   8493     1  0.0000000  0.6508444  3
   8488   8483   8472   8490     1  0.0000000  4.9162000  2
   8488   8483   8472   8490     1  0.0000000  0.6024960  3
   8490   8472   8473   8493     1  0.0000000  4.9162000  2
   8490   8472   8473   8493     1  0.0000000  0.6024960  3
   8490   8477   8476   8495     1  0.0000000  0.6508444  3
   8496   8497   8499   8500     1  180.0000771  0.8368000  1
   8496   8497   8499   8500     1  180.0000771  1.0460000  2
   8496   8497   8499   8500     1  0.0000000  0.7531200  3
   8496   8497   8499   8506     1  0.0000000  0.6508444  3
   8496   8514   8501   8500     1  180.0000771  0.4184000  2
   8496   8514   8501   8500     1  0.0000000  1.6024720  3
   8496   8514   8501   8505     1  0.0000000  1.6038667  3
   8497   8496   8507   8512     1  0.0000000  0.6508444  3
   8497   8496   8514   8501     1  180.0000771  0.4184000  2
   8497   8496   8514   8501     1  0.0000000  1.6024720  3
   8497   8499   8500   8501     1  180.0000771  0.8368000  1
   8497   8499   8500   8501     1  180.0000771  1.0460000  2
   8497   8499   8500   8501     1  0.0000000  0.7531200  3
   8497   8499   8500   8519     1  0.0000000  0.6508444  3
   8499   8497   8496   8507     1  180.0000771  0.8368000  1
   8499   8497   8496   8507     1  180.0000771  1.0460000  2
   8499   8497   8496   8507     1  0.0000000  0.7531200  3
   8499   8497   8496   8514     1  0.0000000  0.6508444  3
   8499   8500   8501   8505     1  0.0000000  0.6508444  3
   8499   8500   8501   8514     1  0.0000000  0.6508444  3
   8500   8499   8497   8517     1  0.0000000  0.6508444  3
   8501   8500   8499   8506     1  0.0000000  0.6508444  3
   8501   8514   8496   8507     1  180.0000771  0.4184000  2
   8501   8514   8496   8507     1  0.0000000  1.6024720  3
   8505   8501   8500   8519     1  0.0000000  0.6508444  3
   8506   8499   8497   8517     1  0.0000000  4.9162000  2
   8506   8499   8497   8517     1  0.0000000  0.6024960  3
   8506   8499   8500   8519     1  0.0000000  0.6508444  3
   8507   8496   8497   8517     1  0.0000000  0.6508444  3
   8512   8507   8496   8514     1  0.0000000  4.9162000  2
   8512   8507   8496   8514     1  0.0000000  0.6024960  3
   8514   8496   8497   8517     1  0.0000000  4.9162000  2
   8514   8496   8497   8517     1  0.0000000  0.6024960  3
   8514   8501   8500   8519     1  0.0000000  0.6508444  3
   8521   8523   8525   8529     1  0.0000000  0.6508444  3
   8523   8525   8529   8530     1  0.0000000  0.6508444  3
   8523   8525   8529   8531     1  0.0000000  0.6508444  3
   8525   8529   8530   8541     1  0.0000000  0.6508444  3
   8525   8529   8531   8533     1  0.0000000  0.6508444  3
   8529   8530   8541   8544     1  0.0000000  0.6508444  3
   8529   8531   8533   8537     1  0.0000000  0.6508444  3
   8530   8541   8544   8545     1  180.0000771  0.0000000  2
   8530   8541   8544   8593     1  180.0000771  0.0000000  2
   8530   8529   8531   8533     1  0.0000000  0.6508444  3
   8531   8533   8537   8538     1  180.0000771  0.0000000  2
   8531   8533   8537   8569     1  180.0000771  0.0000000  2
   8531   8529   8530   8541     1  0.0000000  0.6508444  3
   8533   8537   8569   8550     1  180.0000771  6.0668000  2
   8533   8537   8569   8550     1  180.0000771  1.4644000  4
   8537   8569   8550   8551     1  0.0000000  1.2552000  3
   8537   8569   8550   8549     1  0.0000000  1.2552000  3
   8538   8537   8569   8550     1  180.0000771  6.0668000  2
   8538   8537   8569   8550     1  180.0000771  1.4644000  4
   8541   8544   8593   8574     1  180.0000771  6.0668000  2
   8541   8544   8593   8574     1  180.0000771  1.4644000  4
   8544   8593   8574   8575     1  0.0000000  1.2552000  3
   8544   8593   8574   8573     1  0.0000000  1.2552000  3
   8545   8544   8593   8574     1  180.0000771  6.0668000  2
   8545   8544   8593   8574     1  180.0000771  1.4644000  4
   8546   8547   8549   8550     1  180.0000771  0.8368000  1
   8546   8547   8549   8550     1  180.0000771  1.0460000  2
   8546   8547   8549   8550     1  0.0000000  0.7531200  3
   8546   8547   8549   8556     1  0.0000000  0.6508444  3
   8546   8564   8551   8555     1  0.0000000  1.6038667  3
   8546   8564   8551   8550     1  180.0000771  0.4184000  2
   8546   8564   8551   8550     1  0.0000000  1.6024720  3
   8547   8549   8550   8551     1  180.0000771  0.8368000  1
   8547   8549   8550   8551     1  180.0000771  1.0460000  2
   8547   8549   8550   8551     1  0.0000000  0.7531200  3
   8547   8549   8550   8569     1  0.0000000  0.6508444  3
   8547   8546   8557   8562     1  0.0000000  0.6508444  3
   8547   8546   8564   8551     1  180.0000771  0.4184000  2
   8547   8546   8564   8551     1  0.0000000  1.6024720  3
   8549   8550   8551   8555     1  0.0000000  0.6508444  3
   8549   8550   8551   8564     1  0.0000000  0.6508444  3
   8549   8547   8546   8557     1  180.0000771  0.8368000  1
   8549   8547   8546   8557     1  180.0000771  1.0460000  2
   8549   8547   8546   8557     1  0.0000000  0.7531200  3
   8549   8547   8546   8564     1  0.0000000  0.6508444  3
   8550   8549   8547   8567     1  0.0000000  0.6508444  3
   8551   8564   8546   8557     1  180.0000771  0.4184000  2
   8551   8564   8546   8557     1  0.0000000  1.6024720  3
   8551   8550   8549   8556     1  0.0000000  0.6508444  3
   8555   8551   8550   8569     1  0.0000000  0.6508444  3
   8556   8549   8550   8569     1  0.0000000  0.6508444  3
   8556   8549   8547   8567     1  0.0000000  4.9162000  2
   8556   8549   8547   8567     1  0.0000000  0.6024960  3
   8557   8546   8547   8567     1  0.0000000  0.6508444  3
   8562   8557   8546   8564     1  0.0000000  4.9162000  2
   8562   8557   8546   8564     1  0.0000000  0.6024960  3
   8564   8551   8550   8569     1  0.0000000  0.6508444  3
   8564   8546   8547   8567     1  0.0000000  4.9162000  2
   8564   8546   8547   8567     1  0.0000000  0.6024960  3
   8570   8571   8573   8574     1  180.0000771  0.8368000  1
   8570   8571   8573   8574     1  180.0000771  1.0460000  2
   8570   8571   8573   8574     1  0.0000000  0.7531200  3
   8570   8571   8573   8580     1  0.0000000  0.6508444  3
   8570   8588   8575   8579     1  0.0000000  1.6038667  3
   8570   8588   8575   8574     1  180.0000771  0.4184000  2
   8570   8588   8575   8574     1  0.0000000  1.6024720  3
   8571   8573   8574   8575     1  180.0000771  0.8368000  1
   8571   8573   8574   8575     1  180.0000771  1.0460000  2
   8571   8573   8574   8575     1  0.0000000  0.7531200  3
   8571   8573   8574   8593     1  0.0000000  0.6508444  3
   8571   8570   8581   8586     1  0.0000000  0.6508444  3
   8571   8570   8588   8575     1  180.0000771  0.4184000  2
   8571   8570   8588   8575     1  0.0000000  1.6024720  3
   8573   8574   8575   8579     1  0.0000000  0.6508444  3
   8573   8574   8575   8588     1  0.0000000  0.6508444  3
   8573   8571   8570   8581     1  180.0000771  0.8368000  1
   8573   8571   8570   8581     1  180.0000771  1.0460000  2
   8573   8571   8570   8581     1  0.0000000  0.7531200  3
   8573   8571   8570   8588     1  0.0000000  0.6508444  3
   8574   8573   8571   8591     1  0.0000000  0.6508444  3
   8575   8588   8570   8581     1  180.0000771  0.4184000  2
   8575   8588   8570   8581     1  0.0000000  1.6024720  3
   8575   8574   8573   8580     1  0.0000000  0.6508444  3
   8579   8575   8574   8593     1  0.0000000  0.6508444  3
   8580   8573   8574   8593     1  0.0000000  0.6508444  3
   8580   8573   8571   8591     1  0.0000000  4.9162000  2
   8580   8573   8571   8591     1  0.0000000  0.6024960  3
   8581   8570   8571   8591     1  0.0000000  0.6508444  3
   8586   8581   8570   8588     1  0.0000000  4.9162000  2
   8586   8581   8570   8588     1  0.0000000  0.6024960  3
   8588   8575   8574   8593     1  0.0000000  0.6508444  3
   8588   8570   8571   8591     1  0.0000000  4.9162000  2
   8588   8570   8571   8591     1  0.0000000  0.6024960  3
   8595   8597   8599   8603     1  0.0000000  0.6508444  3
   8597   8599   8603   8604     1  0.0000000  0.6508444  3
   8597   8599   8603   8605     1  0.0000000  0.6508444  3
   8599   8603   8604   8615     1  0.0000000  0.6508444  3
   8599   8603   8605   8607     1  0.0000000  0.6508444  3
   8603   8604   8615   8618     1  0.0000000  0.6508444  3
   8603   8605   8607   8611     1  0.0000000  0.6508444  3
   8604   8603   8605   8607     1  0.0000000  0.6508444  3
   8604   8615   8618   8619     1  180.0000771  0.0000000  2
   8604   8615   8618   8667     1  180.0000771  0.0000000  2
   8605   8603   8604   8615     1  0.0000000  0.6508444  3
   8605   8607   8611   8612     1  180.0000771  0.0000000  2
   8605   8607   8611   8643     1  180.0000771  0.0000000  2
   8607   8611   8643   8624     1  180.0000771  6.0668000  2
   8607   8611   8643   8624     1  180.0000771  1.4644000  4
   8611   8643   8624   8623     1  0.0000000  1.2552000  3
   8611   8643   8624   8625     1  0.0000000  1.2552000  3
   8612   8611   8643   8624     1  180.0000771  6.0668000  2
   8612   8611   8643   8624     1  180.0000771  1.4644000  4
   8615   8618   8667   8648     1  180.0000771  6.0668000  2
   8615   8618   8667   8648     1  180.0000771  1.4644000  4
   8618   8667   8648   8647     1  0.0000000  1.2552000  3
   8618   8667   8648   8649     1  0.0000000  1.2552000  3
   8619   8618   8667   8648     1  180.0000771  6.0668000  2
   8619   8618   8667   8648     1  180.0000771  1.4644000  4
   8620   8621   8623   8624     1  180.0000771  0.8368000  1
   8620   8621   8623   8624     1  180.0000771  1.0460000  2
   8620   8621   8623   8624     1  0.0000000  0.7531200  3
   8620   8621   8623   8630     1  0.0000000  0.6508444  3
   8620   8638   8625   8624     1  180.0000771  0.4184000  2
   8620   8638   8625   8624     1  0.0000000  1.6024720  3
   8620   8638   8625   8629     1  0.0000000  1.6038667  3
   8621   8620   8631   8636     1  0.0000000  0.6508444  3
   8621   8620   8638   8625     1  180.0000771  0.4184000  2
   8621   8620   8638   8625     1  0.0000000  1.6024720  3
   8621   8623   8624   8625     1  180.0000771  0.8368000  1
   8621   8623   8624   8625     1  180.0000771  1.0460000  2
   8621   8623   8624   8625     1  0.0000000  0.7531200  3
   8621   8623   8624   8643     1  0.0000000  0.6508444  3
   8623   8621   8620   8631     1  180.0000771  0.8368000  1
   8623   8621   8620   8631     1  180.0000771  1.0460000  2
   8623   8621   8620   8631     1  0.0000000  0.7531200  3
   8623   8621   8620   8638     1  0.0000000  0.6508444  3
   8623   8624   8625   8629     1  0.0000000  0.6508444  3
   8623   8624   8625   8638     1  0.0000000  0.6508444  3
   8624   8623   8621   8641     1  0.0000000  0.6508444  3
   8625   8624   8623   8630     1  0.0000000  0.6508444  3
   8625   8638   8620   8631     1  180.0000771  0.4184000  2
   8625   8638   8620   8631     1  0.0000000  1.6024720  3
   8629   8625   8624   8643     1  0.0000000  0.6508444  3
   8630   8623   8621   8641     1  0.0000000  4.9162000  2
   8630   8623   8621   8641     1  0.0000000  0.6024960  3
   8630   8623   8624   8643     1  0.0000000  0.6508444  3
   8631   8620   8621   8641     1  0.0000000  0.6508444  3
   8636   8631   8620   8638     1  0.0000000  4.9162000  2
   8636   8631   8620   8638     1  0.0000000  0.6024960  3
   8638   8620   8621   8641     1  0.0000000  4.9162000  2
   8638   8620   8621   8641     1  0.0000000  0.6024960  3
   8638   8625   8624   8643     1  0.0000000  0.6508444  3
   8644   8645   8647   8648     1  180.0000771  0.8368000  1
   8644   8645   8647   8648     1  180.0000771  1.0460000  2
   8644   8645   8647   8648     1  0.0000000  0.7531200  3
   8644   8645   8647   8654     1  0.0000000  0.6508444  3
   8644   8662   8649   8648     1  180.0000771  0.4184000  2
   8644   8662   8649   8648     1  0.0000000  1.6024720  3
   8644   8662   8649   8653     1  0.0000000  1.6038667  3
   8645   8644   8655   8660     1  0.0000000  0.6508444  3
   8645   8644   8662   8649     1  180.0000771  0.4184000  2
   8645   8644   8662   8649     1  0.0000000  1.6024720  3
   8645   8647   8648   8649     1  180.0000771  0.8368000  1
   8645   8647   8648   8649     1  180.0000771  1.0460000  2
   8645   8647   8648   8649     1  0.0000000  0.7531200  3
   8645   8647   8648   8667     1  0.0000000  0.6508444  3
   8647   8645   8644   8655     1  180.0000771  0.8368000  1
   8647   8645   8644   8655     1  180.0000771  1.0460000  2
   8647   8645   8644   8655     1  0.0000000  0.7531200  3
   8647   8645   8644   8662     1  0.0000000  0.6508444  3
   8647   8648   8649   8653     1  0.0000000  0.6508444  3
   8647   8648   8649   8662     1  0.0000000  0.6508444  3
   8648   8647   8645   8665     1  0.0000000  0.6508444  3
   8649   8648   8647   8654     1  0.0000000  0.6508444  3
   8649   8662   8644   8655     1  180.0000771  0.4184000  2
   8649   8662   8644   8655     1  0.0000000  1.6024720  3
   8653   8649   8648   8667     1  0.0000000  0.6508444  3
   8654   8647   8645   8665     1  0.0000000  4.9162000  2
   8654   8647   8645   8665     1  0.0000000  0.6024960  3
   8654   8647   8648   8667     1  0.0000000  0.6508444  3
   8655   8644   8645   8665     1  0.0000000  0.6508444  3
   8660   8655   8644   8662     1  0.0000000  4.9162000  2
   8660   8655   8644   8662     1  0.0000000  0.6024960  3
   8662   8644   8645   8665     1  0.0000000  4.9162000  2
   8662   8644   8645   8665     1  0.0000000  0.6024960  3
   8662   8649   8648   8667     1  0.0000000  0.6508444  3
   8669   8671   8673   8677     1  0.0000000  0.6508444  3
   8671   8673   8677   8678     1  0.0000000  0.6508444  3
   8671   8673   8677   8679     1  0.0000000  0.6508444  3
   8673   8677   8678   8689     1  0.0000000  0.6508444  3
   8673   8677   8679   8681     1  0.0000000  0.6508444  3
   8677   8678   8689   8692     1  0.0000000  0.6508444  3
   8677   8679   8681   8685     1  0.0000000  0.6508444  3
   8678   8689   8692   8693     1  180.0000771  0.0000000  2
   8678   8689   8692   8741     1  180.0000771  0.0000000  2
   8678   8677   8679   8681     1  0.0000000  0.6508444  3
   8679   8681   8685   8686     1  180.0000771  0.0000000  2
   8679   8681   8685   8717     1  180.0000771  0.0000000  2
   8679   8677   8678   8689     1  0.0000000  0.6508444  3
   8681   8685   8717   8698     1  180.0000771  6.0668000  2
   8681   8685   8717   8698     1  180.0000771  1.4644000  4
   8685   8717   8698   8699     1  0.0000000  1.2552000  3
   8685   8717   8698   8697     1  0.0000000  1.2552000  3
   8686   8685   8717   8698     1  180.0000771  6.0668000  2
   8686   8685   8717   8698     1  180.0000771  1.4644000  4
   8689   8692   8741   8722     1  180.0000771  6.0668000  2
   8689   8692   8741   8722     1  180.0000771  1.4644000  4
   8692   8741   8722   8723     1  0.0000000  1.2552000  3
   8692   8741   8722   8721     1  0.0000000  1.2552000  3
   8693   8692   8741   8722     1  180.0000771  6.0668000  2
   8693   8692   8741   8722     1  180.0000771  1.4644000  4
   8694   8695   8697   8698     1  180.0000771  0.8368000  1
   8694   8695   8697   8698     1  180.0000771  1.0460000  2
   8694   8695   8697   8698     1  0.0000000  0.7531200  3
   8694   8695   8697   8704     1  0.0000000  0.6508444  3
   8694   8712   8699   8703     1  0.0000000  1.6038667  3
   8694   8712   8699   8698     1  180.0000771  0.4184000  2
   8694   8712   8699   8698     1  0.0000000  1.6024720  3
   8695   8697   8698   8699     1  180.0000771  0.8368000  1
   8695   8697   8698   8699     1  180.0000771  1.0460000  2
   8695   8697   8698   8699     1  0.0000000  0.7531200  3
   8695   8697   8698   8717     1  0.0000000  0.6508444  3
   8695   8694   8705   8710     1  0.0000000  0.6508444  3
   8695   8694   8712   8699     1  180.0000771  0.4184000  2
   8695   8694   8712   8699     1  0.0000000  1.6024720  3
   8697   8698   8699   8703     1  0.0000000  0.6508444  3
   8697   8698   8699   8712     1  0.0000000  0.6508444  3
   8697   8695   8694   8705     1  180.0000771  0.8368000  1
   8697   8695   8694   8705     1  180.0000771  1.0460000  2
   8697   8695   8694   8705     1  0.0000000  0.7531200  3
   8697   8695   8694   8712     1  0.0000000  0.6508444  3
   8698   8697   8695   8715     1  0.0000000  0.6508444  3
   8699   8712   8694   8705     1  180.0000771  0.4184000  2
   8699   8712   8694   8705     1  0.0000000  1.6024720  3
   8699   8698   8697   8704     1  0.0000000  0.6508444  3
   8703   8699   8698   8717     1  0.0000000  0.6508444  3
   8704   8697   8698   8717     1  0.0000000  0.6508444  3
   8704   8697   8695   8715     1  0.0000000  4.9162000  2
   8704   8697   8695   8715     1  0.0000000  0.6024960  3
   8705   8694   8695   8715     1  0.0000000  0.6508444  3
   8710   8705   8694   8712     1  0.0000000  4.9162000  2
   8710   8705   8694   8712     1  0.0000000  0.6024960  3
   8712   8699   8698   8717     1  0.0000000  0.6508444  3
   8712   8694   8695   8715     1  0.0000000  4.9162000  2
   8712   8694   8695   8715     1  0.0000000  0.6024960  3
   8718   8719   8721   8722     1  180.0000771  0.8368000  1
   8718   8719   8721   8722     1  180.0000771  1.0460000  2
   8718   8719   8721   8722     1  0.0000000  0.7531200  3
   8718   8719   8721   8728     1  0.0000000  0.6508444  3
   8718   8736   8723   8727     1  0.0000000  1.6038667  3
   8718   8736   8723   8722     1  180.0000771  0.4184000  2
   8718   8736   8723   8722     1  0.0000000  1.6024720  3
   8719   8721   8722   8723     1  180.0000771  0.8368000  1
   8719   8721   8722   8723     1  180.0000771  1.0460000  2
   8719   8721   8722   8723     1  0.0000000  0.7531200  3
   8719   8721   8722   8741     1  0.0000000  0.6508444  3
   8719   8718   8729   8734     1  0.0000000  0.6508444  3
   8719   8718   8736   8723     1  180.0000771  0.4184000  2
   8719   8718   8736   8723     1  0.0000000  1.6024720  3
   8721   8722   8723   8727     1  0.0000000  0.6508444  3
   8721   8722   8723   8736     1  0.0000000  0.6508444  3
   8721   8719   8718   8729     1  180.0000771  0.8368000  1
   8721   8719   8718   8729     1  180.0000771  1.0460000  2
   8721   8719   8718   8729     1  0.0000000  0.7531200  3
   8721   8719   8718   8736     1  0.0000000  0.6508444  3
   8722   8721   8719   8739     1  0.0000000  0.6508444  3
   8723   8736   8718   8729     1  180.0000771  0.4184000  2
   8723   8736   8718   8729     1  0.0000000  1.6024720  3
   8723   8722   8721   8728     1  0.0000000  0.6508444  3
   8727   8723   8722   8741     1  0.0000000  0.6508444  3
   8728   8721   8722   8741     1  0.0000000  0.6508444  3
   8728   8721   8719   8739     1  0.0000000  4.9162000  2
   8728   8721   8719   8739     1  0.0000000  0.6024960  3
   8729   8718   8719   8739     1  0.0000000  0.6508444  3
   8734   8729   8718   8736     1  0.0000000  4.9162000  2
   8734   8729   8718   8736     1  0.0000000  0.6024960  3
   8736   8723   8722   8741     1  0.0000000  0.6508444  3
   8736   8718   8719   8739     1  0.0000000  4.9162000  2
   8736   8718   8719   8739     1  0.0000000  0.6024960  3
   8743   8745   8747   8751     1  0.0000000  0.6508444  3
   8745   8747   8751   8752     1  0.0000000  0.6508444  3
   8745   8747   8751   8753     1  0.0000000  0.6508444  3
   8747   8751   8752   8763     1  0.0000000  0.6508444  3
   8747   8751   8753   8755     1  0.0000000  0.6508444  3
   8751   8752   8763   8766     1  0.0000000  0.6508444  3
   8751   8753   8755   8759     1  0.0000000  0.6508444  3
   8752   8751   8753   8755     1  0.0000000  0.6508444  3
   8752   8763   8766   8767     1  180.0000771  0.0000000  2
   8752   8763   8766   8815     1  180.0000771  0.0000000  2
   8753   8751   8752   8763     1  0.0000000  0.6508444  3
   8753   8755   8759   8760     1  180.0000771  0.0000000  2
   8753   8755   8759   8791     1  180.0000771  0.0000000  2
   8755   8759   8791   8772     1  180.0000771  6.0668000  2
   8755   8759   8791   8772     1  180.0000771  1.4644000  4
   8759   8791   8772   8771     1  0.0000000  1.2552000  3
   8759   8791   8772   8773     1  0.0000000  1.2552000  3
   8760   8759   8791   8772     1  180.0000771  6.0668000  2
   8760   8759   8791   8772     1  180.0000771  1.4644000  4
   8763   8766   8815   8796     1  180.0000771  6.0668000  2
   8763   8766   8815   8796     1  180.0000771  1.4644000  4
   8766   8815   8796   8795     1  0.0000000  1.2552000  3
   8766   8815   8796   8797     1  0.0000000  1.2552000  3
   8767   8766   8815   8796     1  180.0000771  6.0668000  2
   8767   8766   8815   8796     1  180.0000771  1.4644000  4
   8768   8769   8771   8772     1  180.0000771  0.8368000  1
   8768   8769   8771   8772     1  180.0000771  1.0460000  2
   8768   8769   8771   8772     1  0.0000000  0.7531200  3
   8768   8769   8771   8778     1  0.0000000  0.6508444  3
   8768   8786   8773   8772     1  180.0000771  0.4184000  2
   8768   8786   8773   8772     1  0.0000000  1.6024720  3
   8768   8786   8773   8777     1  0.0000000  1.6038667  3
   8769   8768   8779   8784     1  0.0000000  0.6508444  3
   8769   8768   8786   8773     1  180.0000771  0.4184000  2
   8769   8768   8786   8773     1  0.0000000  1.6024720  3
   8769   8771   8772   8773     1  180.0000771  0.8368000  1
   8769   8771   8772   8773     1  180.0000771  1.0460000  2
   8769   8771   8772   8773     1  0.0000000  0.7531200  3
   8769   8771   8772   8791     1  0.0000000  0.6508444  3
   8771   8769   8768   8779     1  180.0000771  0.8368000  1
   8771   8769   8768   8779     1  180.0000771  1.0460000  2
   8771   8769   8768   8779     1  0.0000000  0.7531200  3
   8771   8769   8768   8786     1  0.0000000  0.6508444  3
   8771   8772   8773   8777     1  0.0000000  0.6508444  3
   8771   8772   8773   8786     1  0.0000000  0.6508444  3
   8772   8771   8769   8789     1  0.0000000  0.6508444  3
   8773   8772   8771   8778     1  0.0000000  0.6508444  3
   8773   8786   8768   8779     1  180.0000771  0.4184000  2
   8773   8786   8768   8779     1  0.0000000  1.6024720  3
   8777   8773   8772   8791     1  0.0000000  0.6508444  3
   8778   8771   8769   8789     1  0.0000000  4.9162000  2
   8778   8771   8769   8789     1  0.0000000  0.6024960  3
   8778   8771   8772   8791     1  0.0000000  0.6508444  3
   8779   8768   8769   8789     1  0.0000000  0.6508444  3
   8784   8779   8768   8786     1  0.0000000  4.9162000  2
   8784   8779   8768   8786     1  0.0000000  0.6024960  3
   8786   8768   8769   8789     1  0.0000000  4.9162000  2
   8786   8768   8769   8789     1  0.0000000  0.6024960  3
   8786   8773   8772   8791     1  0.0000000  0.6508444  3
   8792   8793   8795   8796     1  180.0000771  0.8368000  1
   8792   8793   8795   8796     1  180.0000771  1.0460000  2
   8792   8793   8795   8796     1  0.0000000  0.7531200  3
   8792   8793   8795   8802     1  0.0000000  0.6508444  3
   8792   8810   8797   8796     1  180.0000771  0.4184000  2
   8792   8810   8797   8796     1  0.0000000  1.6024720  3
   8792   8810   8797   8801     1  0.0000000  1.6038667  3
   8793   8792   8803   8808     1  0.0000000  0.6508444  3
   8793   8792   8810   8797     1  180.0000771  0.4184000  2
   8793   8792   8810   8797     1  0.0000000  1.6024720  3
   8793   8795   8796   8797     1  180.0000771  0.8368000  1
   8793   8795   8796   8797     1  180.0000771  1.0460000  2
   8793   8795   8796   8797     1  0.0000000  0.7531200  3
   8793   8795   8796   8815     1  0.0000000  0.6508444  3
   8795   8793   8792   8803     1  180.0000771  0.8368000  1
   8795   8793   8792   8803     1  180.0000771  1.0460000  2
   8795   8793   8792   8803     1  0.0000000  0.7531200  3
   8795   8793   8792   8810     1  0.0000000  0.6508444  3
   8795   8796   8797   8801     1  0.0000000  0.6508444  3
   8795   8796   8797   8810     1  0.0000000  0.6508444  3
   8796   8795   8793   8813     1  0.0000000  0.6508444  3
   8797   8796   8795   8802     1  0.0000000  0.6508444  3
   8797   8810   8792   8803     1  180.0000771  0.4184000  2
   8797   8810   8792   8803     1  0.0000000  1.6024720  3
   8801   8797   8796   8815     1  0.0000000  0.6508444  3
   8802   8795   8793   8813     1  0.0000000  4.9162000  2
   8802   8795   8793   8813     1  0.0000000  0.6024960  3
   8802   8795   8796   8815     1  0.0000000  0.6508444  3
   8803   8792   8793   8813     1  0.0000000  0.6508444  3
   8808   8803   8792   8810     1  0.0000000  4.9162000  2
   8808   8803   8792   8810     1  0.0000000  0.6024960  3
   8810   8792   8793   8813     1  0.0000000  4.9162000  2
   8810   8792   8793   8813     1  0.0000000  0.6024960  3
   8810   8797   8796   8815     1  0.0000000  0.6508444  3
   8817   8819   8821   8825     1  0.0000000  0.6508444  3
   8819   8821   8825   8826     1  0.0000000  0.6508444  3
   8819   8821   8825   8827     1  0.0000000  0.6508444  3
   8821   8825   8826   8837     1  0.0000000  0.6508444  3
   8821   8825   8827   8829     1  0.0000000  0.6508444  3
   8825   8826   8837   8840     1  0.0000000  0.6508444  3
   8825   8827   8829   8833     1  0.0000000  0.6508444  3
   8826   8837   8840   8841     1  180.0000771  0.0000000  2
   8826   8837   8840   8889     1  180.0000771  0.0000000  2
   8826   8825   8827   8829     1  0.0000000  0.6508444  3
   8827   8829   8833   8834     1  180.0000771  0.0000000  2
   8827   8829   8833   8865     1  180.0000771  0.0000000  2
   8827   8825   8826   8837     1  0.0000000  0.6508444  3
   8829   8833   8865   8846     1  180.0000771  6.0668000  2
   8829   8833   8865   8846     1  180.0000771  1.4644000  4
   8833   8865   8846   8847     1  0.0000000  1.2552000  3
   8833   8865   8846   8845     1  0.0000000  1.2552000  3
   8834   8833   8865   8846     1  180.0000771  6.0668000  2
   8834   8833   8865   8846     1  180.0000771  1.4644000  4
   8837   8840   8889   8870     1  180.0000771  6.0668000  2
   8837   8840   8889   8870     1  180.0000771  1.4644000  4
   8840   8889   8870   8871     1  0.0000000  1.2552000  3
   8840   8889   8870   8869     1  0.0000000  1.2552000  3
   8841   8840   8889   8870     1  180.0000771  6.0668000  2
   8841   8840   8889   8870     1  180.0000771  1.4644000  4
   8842   8843   8845   8846     1  180.0000771  0.8368000  1
   8842   8843   8845   8846     1  180.0000771  1.0460000  2
   8842   8843   8845   8846     1  0.0000000  0.7531200  3
   8842   8843   8845   8852     1  0.0000000  0.6508444  3
   8842   8860   8847   8851     1  0.0000000  1.6038667  3
   8842   8860   8847   8846     1  180.0000771  0.4184000  2
   8842   8860   8847   8846     1  0.0000000  1.6024720  3
   8843   8845   8846   8847     1  180.0000771  0.8368000  1
   8843   8845   8846   8847     1  180.0000771  1.0460000  2
   8843   8845   8846   8847     1  0.0000000  0.7531200  3
   8843   8845   8846   8865     1  0.0000000  0.6508444  3
   8843   8842   8853   8858     1  0.0000000  0.6508444  3
   8843   8842   8860   8847     1  180.0000771  0.4184000  2
   8843   8842   8860   8847     1  0.0000000  1.6024720  3
   8845   8846   8847   8851     1  0.0000000  0.6508444  3
   8845   8846   8847   8860     1  0.0000000  0.6508444  3
   8845   8843   8842   8853     1  180.0000771  0.8368000  1
   8845   8843   8842   8853     1  180.0000771  1.0460000  2
   8845   8843   8842   8853     1  0.0000000  0.7531200  3
   8845   8843   8842   8860     1  0.0000000  0.6508444  3
   8846   8845   8843   8863     1  0.0000000  0.6508444  3
   8847   8860   8842   8853     1  180.0000771  0.4184000  2
   8847   8860   8842   8853     1  0.0000000  1.6024720  3
   8847   8846   8845   8852     1  0.0000000  0.6508444  3
   8851   8847   8846   8865     1  0.0000000  0.6508444  3
   8852   8845   8846   8865     1  0.0000000  0.6508444  3
   8852   8845   8843   8863     1  0.0000000  4.9162000  2
   8852   8845   8843   8863     1  0.0000000  0.6024960  3
   8853   8842   8843   8863     1  0.0000000  0.6508444  3
   8858   8853   8842   8860     1  0.0000000  4.9162000  2
   8858   8853   8842   8860     1  0.0000000  0.6024960  3
   8860   8847   8846   8865     1  0.0000000  0.6508444  3
   8860   8842   8843   8863     1  0.0000000  4.9162000  2
   8860   8842   8843   8863     1  0.0000000  0.6024960  3
   8866   8867   8869   8870     1  180.0000771  0.8368000  1
   8866   8867   8869   8870     1  180.0000771  1.0460000  2
   8866   8867   8869   8870     1  0.0000000  0.7531200  3
   8866   8867   8869   8876     1  0.0000000  0.6508444  3
   8866   8884   8871   8875     1  0.0000000  1.6038667  3
   8866   8884   8871   8870     1  180.0000771  0.4184000  2
   8866   8884   8871   8870     1  0.0000000  1.6024720  3
   8867   8869   8870   8871     1  180.0000771  0.8368000  1
   8867   8869   8870   8871     1  180.0000771  1.0460000  2
   8867   8869   8870   8871     1  0.0000000  0.7531200  3
   8867   8869   8870   8889     1  0.0000000  0.6508444  3
   8867   8866   8877   8882     1  0.0000000  0.6508444  3
   8867   8866   8884   8871     1  180.0000771  0.4184000  2
   8867   8866   8884   8871     1  0.0000000  1.6024720  3
   8869   8870   8871   8875     1  0.0000000  0.6508444  3
   8869   8870   8871   8884     1  0.0000000  0.6508444  3
   8869   8867   8866   8877     1  180.0000771  0.8368000  1
   8869   8867   8866   8877     1  180.0000771  1.0460000  2
   8869   8867   8866   8877     1  0.0000000  0.7531200  3
   8869   8867   8866   8884     1  0.0000000  0.6508444  3
   8870   8869   8867   8887     1  0.0000000  0.6508444  3
   8871   8884   8866   8877     1  180.0000771  0.4184000  2
   8871   8884   8866   8877     1  0.0000000  1.6024720  3
   8871   8870   8869   8876     1  0.0000000  0.6508444  3
   8875   8871   8870   8889     1  0.0000000  0.6508444  3
   8876   8869   8870   8889     1  0.0000000  0.6508444  3
   8876   8869   8867   8887     1  0.0000000  4.9162000  2
   8876   8869   8867   8887     1  0.0000000  0.6024960  3
   8877   8866   8867   8887     1  0.0000000  0.6508444  3
   8882   8877   8866   8884     1  0.0000000  4.9162000  2
   8882   8877   8866   8884     1  0.0000000  0.6024960  3
   8884   8871   8870   8889     1  0.0000000  0.6508444  3
   8884   8866   8867   8887     1  0.0000000  4.9162000  2
   8884   8866   8867   8887     1  0.0000000  0.6024960  3
   8891   8893   8895   8899     1  0.0000000  0.6508444  3
   8893   8895   8899   8900     1  0.0000000  0.6508444  3
   8893   8895   8899   8901     1  0.0000000  0.6508444  3
   8895   8899   8900   8911     1  0.0000000  0.6508444  3
   8895   8899   8901   8903     1  0.0000000  0.6508444  3
   8899   8900   8911   8914     1  0.0000000  0.6508444  3
   8899   8901   8903   8907     1  0.0000000  0.6508444  3
   8900   8899   8901   8903     1  0.0000000  0.6508444  3
   8900   8911   8914   8915     1  180.0000771  0.0000000  2
   8900   8911   8914   8963     1  180.0000771  0.0000000  2
   8901   8899   8900   8911     1  0.0000000  0.6508444  3
   8901   8903   8907   8908     1  180.0000771  0.0000000  2
   8901   8903   8907   8939     1  180.0000771  0.0000000  2
   8903   8907   8939   8920     1  180.0000771  6.0668000  2
   8903   8907   8939   8920     1  180.0000771  1.4644000  4
   8907   8939   8920   8919     1  0.0000000  1.2552000  3
   8907   8939   8920   8921     1  0.0000000  1.2552000  3
   8908   8907   8939   8920     1  180.0000771  6.0668000  2
   8908   8907   8939   8920     1  180.0000771  1.4644000  4
   8911   8914   8963   8944     1  180.0000771  6.0668000  2
   8911   8914   8963   8944     1  180.0000771  1.4644000  4
   8914   8963   8944   8943     1  0.0000000  1.2552000  3
   8914   8963   8944   8945     1  0.0000000  1.2552000  3
   8915   8914   8963   8944     1  180.0000771  6.0668000  2
   8915   8914   8963   8944     1  180.0000771  1.4644000  4
   8916   8917   8919   8920     1  180.0000771  0.8368000  1
   8916   8917   8919   8920     1  180.0000771  1.0460000  2
   8916   8917   8919   8920     1  0.0000000  0.7531200  3
   8916   8917   8919   8926     1  0.0000000  0.6508444  3
   8916   8934   8921   8920     1  180.0000771  0.4184000  2
   8916   8934   8921   8920     1  0.0000000  1.6024720  3
   8916   8934   8921   8925     1  0.0000000  1.6038667  3
   8917   8916   8927   8932     1  0.0000000  0.6508444  3
   8917   8916   8934   8921     1  180.0000771  0.4184000  2
   8917   8916   8934   8921     1  0.0000000  1.6024720  3
   8917   8919   8920   8921     1  180.0000771  0.8368000  1
   8917   8919   8920   8921     1  180.0000771  1.0460000  2
   8917   8919   8920   8921     1  0.0000000  0.7531200  3
   8917   8919   8920   8939     1  0.0000000  0.6508444  3
   8919   8917   8916   8927     1  180.0000771  0.8368000  1
   8919   8917   8916   8927     1  180.0000771  1.0460000  2
   8919   8917   8916   8927     1  0.0000000  0.7531200  3
   8919   8917   8916   8934     1  0.0000000  0.6508444  3
   8919   8920   8921   8925     1  0.0000000  0.6508444  3
   8919   8920   8921   8934     1  0.0000000  0.6508444  3
   8920   8919   8917   8937     1  0.0000000  0.6508444  3
   8921   8920   8919   8926     1  0.0000000  0.6508444  3
   8921   8934   8916   8927     1  180.0000771  0.4184000  2
   8921   8934   8916   8927     1  0.0000000  1.6024720  3
   8925   8921   8920   8939     1  0.0000000  0.6508444  3
   8926   8919   8917   8937     1  0.0000000  4.9162000  2
   8926   8919   8917   8937     1  0.0000000  0.6024960  3
   8926   8919   8920   8939     1  0.0000000  0.6508444  3
   8927   8916   8917   8937     1  0.0000000  0.6508444  3
   8932   8927   8916   8934     1  0.0000000  4.9162000  2
   8932   8927   8916   8934     1  0.0000000  0.6024960  3
   8934   8916   8917   8937     1  0.0000000  4.9162000  2
   8934   8916   8917   8937     1  0.0000000  0.6024960  3
   8934   8921   8920   8939     1  0.0000000  0.6508444  3
   8940   8941   8943   8944     1  180.0000771  0.8368000  1
   8940   8941   8943   8944     1  180.0000771  1.0460000  2
   8940   8941   8943   8944     1  0.0000000  0.7531200  3
   8940   8941   8943   8950     1  0.0000000  0.6508444  3
   8940   8958   8945   8944     1  180.0000771  0.4184000  2
   8940   8958   8945   8944     1  0.0000000  1.6024720  3
   8940   8958   8945   8949     1  0.0000000  1.6038667  3
   8941   8940   8951   8956     1  0.0000000  0.6508444  3
   8941   8940   8958   8945     1  180.0000771  0.4184000  2
   8941   8940   8958   8945     1  0.0000000  1.6024720  3
   8941   8943   8944   8945     1  180.0000771  0.8368000  1
   8941   8943   8944   8945     1  180.0000771  1.0460000  2
   8941   8943   8944   8945     1  0.0000000  0.7531200  3
   8941   8943   8944   8963     1  0.0000000  0.6508444  3
   8943   8941   8940   8951     1  180.0000771  0.8368000  1
   8943   8941   8940   8951     1  180.0000771  1.0460000  2
   8943   8941   8940   8951     1  0.0000000  0.7531200  3
   8943   8941   8940   8958     1  0.0000000  0.6508444  3
   8943   8944   8945   8949     1  0.0000000  0.6508444  3
   8943   8944   8945   8958     1  0.0000000  0.6508444  3
   8944   8943   8941   8961     1  0.0000000  0.6508444  3
   8945   8944   8943   8950     1  0.0000000  0.6508444  3
   8945   8958   8940   8951     1  180.0000771  0.4184000  2
   8945   8958   8940   8951     1  0.0000000  1.6024720  3
   8949   8945   8944   8963     1  0.0000000  0.6508444  3
   8950   8943   8941   8961     1  0.0000000  4.9162000  2
   8950   8943   8941   8961     1  0.0000000  0.6024960  3
   8950   8943   8944   8963     1  0.0000000  0.6508444  3
   8951   8940   8941   8961     1  0.0000000  0.6508444  3
   8956   8951   8940   8958     1  0.0000000  4.9162000  2
   8956   8951   8940   8958     1  0.0000000  0.6024960  3
   8958   8940   8941   8961     1  0.0000000  4.9162000  2
   8958   8940   8941   8961     1  0.0000000  0.6024960  3
   8958   8945   8944   8963     1  0.0000000  0.6508444  3
   8965   8967   8969   8973     1  0.0000000  0.6508444  3
   8967   8969   8973   8974     1  0.0000000  0.6508444  3
   8967   8969   8973   8975     1  0.0000000  0.6508444  3
   8969   8973   8974   8985     1  0.0000000  0.6508444  3
   8969   8973   8975   8977     1  0.0000000  0.6508444  3
   8973   8974   8985   8988     1  0.0000000  0.6508444  3
   8973   8975   8977   8981     1  0.0000000  0.6508444  3
   8974   8985   8988   8989     1  180.0000771  0.0000000  2
   8974   8985   8988   9037     1  180.0000771  0.0000000  2
   8974   8973   8975   8977     1  0.0000000  0.6508444  3
   8975   8977   8981   8982     1  180.0000771  0.0000000  2
   8975   8977   8981   9013     1  180.0000771  0.0000000  2
   8975   8973   8974   8985     1  0.0000000  0.6508444  3
   8977   8981   9013   8994     1  180.0000771  6.0668000  2
   8977   8981   9013   8994     1  180.0000771  1.4644000  4
   8981   9013   8994   8995     1  0.0000000  1.2552000  3
   8981   9013   8994   8993     1  0.0000000  1.2552000  3
   8982   8981   9013   8994     1  180.0000771  6.0668000  2
   8982   8981   9013   8994     1  180.0000771  1.4644000  4
   8985   8988   9037   9018     1  180.0000771  6.0668000  2
   8985   8988   9037   9018     1  180.0000771  1.4644000  4
   8988   9037   9018   9019     1  0.0000000  1.2552000  3
   8988   9037   9018   9017     1  0.0000000  1.2552000  3
   8989   8988   9037   9018     1  180.0000771  6.0668000  2
   8989   8988   9037   9018     1  180.0000771  1.4644000  4
   8990   8991   8993   8994     1  180.0000771  0.8368000  1
   8990   8991   8993   8994     1  180.0000771  1.0460000  2
   8990   8991   8993   8994     1  0.0000000  0.7531200  3
   8990   8991   8993   9000     1  0.0000000  0.6508444  3
   8990   9008   8995   8999     1  0.0000000  1.6038667  3
   8990   9008   8995   8994     1  180.0000771  0.4184000  2
   8990   9008   8995   8994     1  0.0000000  1.6024720  3
   8991   8993   8994   8995     1  180.0000771  0.8368000  1
   8991   8993   8994   8995     1  180.0000771  1.0460000  2
   8991   8993   8994   8995     1  0.0000000  0.7531200  3
   8991   8993   8994   9013     1  0.0000000  0.6508444  3
   8991   8990   9001   9006     1  0.0000000  0.6508444  3
   8991   8990   9008   8995     1  180.0000771  0.4184000  2
   8991   8990   9008   8995     1  0.0000000  1.6024720  3
   8993   8994   8995   8999     1  0.0000000  0.6508444  3
   8993   8994   8995   9008     1  0.0000000  0.6508444  3
   8993   8991   8990   9001     1  180.0000771  0.8368000  1
   8993   8991   8990   9001     1  180.0000771  1.0460000  2
   8993   8991   8990   9001     1  0.0000000  0.7531200  3
   8993   8991   8990   9008     1  0.0000000  0.6508444  3
   8994   8993   8991   9011     1  0.0000000  0.6508444  3
   8995   9008   8990   9001     1  180.0000771  0.4184000  2
   8995   9008   8990   9001     1  0.0000000  1.6024720  3
   8995   8994   8993   9000     1  0.0000000  0.6508444  3
   8999   8995   8994   9013     1  0.0000000  0.6508444  3
   9000   8993   8994   9013     1  0.0000000  0.6508444  3
   9000   8993   8991   9011     1  0.0000000  4.9162000  2
   9000   8993   8991   9011     1  0.0000000  0.6024960  3
   9001   8990   8991   9011     1  0.0000000  0.6508444  3
   9006   9001   8990   9008     1  0.0000000  4.9162000  2
   9006   9001   8990   9008     1  0.0000000  0.6024960  3
   9008   8995   8994   9013     1  0.0000000  0.6508444  3
   9008   8990   8991   9011     1  0.0000000  4.9162000  2
   9008   8990   8991   9011     1  0.0000000  0.6024960  3
   9014   9015   9017   9018     1  180.0000771  0.8368000  1
   9014   9015   9017   9018     1  180.0000771  1.0460000  2
   9014   9015   9017   9018     1  0.0000000  0.7531200  3
   9014   9015   9017   9024     1  0.0000000  0.6508444  3
   9014   9032   9019   9023     1  0.0000000  1.6038667  3
   9014   9032   9019   9018     1  180.0000771  0.4184000  2
   9014   9032   9019   9018     1  0.0000000  1.6024720  3
   9015   9017   9018   9019     1  180.0000771  0.8368000  1
   9015   9017   9018   9019     1  180.0000771  1.0460000  2
   9015   9017   9018   9019     1  0.0000000  0.7531200  3
   9015   9017   9018   9037     1  0.0000000  0.6508444  3
   9015   9014   9025   9030     1  0.0000000  0.6508444  3
   9015   9014   9032   9019     1  180.0000771  0.4184000  2
   9015   9014   9032   9019     1  0.0000000  1.6024720  3
   9017   9018   9019   9023     1  0.0000000  0.6508444  3
   9017   9018   9019   9032     1  0.0000000  0.6508444  3
   9017   9015   9014   9025     1  180.0000771  0.8368000  1
   9017   9015   9014   9025     1  180.0000771  1.0460000  2
   9017   9015   9014   9025     1  0.0000000  0.7531200  3
   9017   9015   9014   9032     1  0.0000000  0.6508444  3
   9018   9017   9015   9035     1  0.0000000  0.6508444  3
   9019   9032   9014   9025     1  180.0000771  0.4184000  2
   9019   9032   9014   9025     1  0.0000000  1.6024720  3
   9019   9018   9017   9024     1  0.0000000  0.6508444  3
   9023   9019   9018   9037     1  0.0000000  0.6508444  3
   9024   9017   9018   9037     1  0.0000000  0.6508444  3
   9024   9017   9015   9035     1  0.0000000  4.9162000  2
   9024   9017   9015   9035     1  0.0000000  0.6024960  3
   9025   9014   9015   9035     1  0.0000000  0.6508444  3
   9030   9025   9014   9032     1  0.0000000  4.9162000  2
   9030   9025   9014   9032     1  0.0000000  0.6024960  3
   9032   9019   9018   9037     1  0.0000000  0.6508444  3
   9032   9014   9015   9035     1  0.0000000  4.9162000  2
   9032   9014   9015   9035     1  0.0000000  0.6024960  3
   9039   9041   9043   9047     1  0.0000000  0.6508444  3
   9041   9043   9047   9048     1  0.0000000  0.6508444  3
   9041   9043   9047   9049     1  0.0000000  0.6508444  3
   9043   9047   9048   9059     1  0.0000000  0.6508444  3
   9043   9047   9049   9051     1  0.0000000  0.6508444  3
   9047   9048   9059   9062     1  0.0000000  0.6508444  3
   9047   9049   9051   9055     1  0.0000000  0.6508444  3
   9048   9047   9049   9051     1  0.0000000  0.6508444  3
   9048   9059   9062   9063     1  180.0000771  0.0000000  2
   9048   9059   9062   9111     1  180.0000771  0.0000000  2
   9049   9047   9048   9059     1  0.0000000  0.6508444  3
   9049   9051   9055   9056     1  180.0000771  0.0000000  2
   9049   9051   9055   9087     1  180.0000771  0.0000000  2
   9051   9055   9087   9068     1  180.0000771  6.0668000  2
   9051   9055   9087   9068     1  180.0000771  1.4644000  4
   9055   9087   9068   9067     1  0.0000000  1.2552000  3
   9055   9087   9068   9069     1  0.0000000  1.2552000  3
   9056   9055   9087   9068     1  180.0000771  6.0668000  2
   9056   9055   9087   9068     1  180.0000771  1.4644000  4
   9059   9062   9111   9092     1  180.0000771  6.0668000  2
   9059   9062   9111   9092     1  180.0000771  1.4644000  4
   9062   9111   9092   9091     1  0.0000000  1.2552000  3
   9062   9111   9092   9093     1  0.0000000  1.2552000  3
   9063   9062   9111   9092     1  180.0000771  6.0668000  2
   9063   9062   9111   9092     1  180.0000771  1.4644000  4
   9064   9065   9067   9068     1  180.0000771  0.8368000  1
   9064   9065   9067   9068     1  180.0000771  1.0460000  2
   9064   9065   9067   9068     1  0.0000000  0.7531200  3
   9064   9065   9067   9074     1  0.0000000  0.6508444  3
   9064   9082   9069   9068     1  180.0000771  0.4184000  2
   9064   9082   9069   9068     1  0.0000000  1.6024720  3
   9064   9082   9069   9073     1  0.0000000  1.6038667  3
   9065   9064   9075   9080     1  0.0000000  0.6508444  3
   9065   9064   9082   9069     1  180.0000771  0.4184000  2
   9065   9064   9082   9069     1  0.0000000  1.6024720  3
   9065   9067   9068   9069     1  180.0000771  0.8368000  1
   9065   9067   9068   9069     1  180.0000771  1.0460000  2
   9065   9067   9068   9069     1  0.0000000  0.7531200  3
   9065   9067   9068   9087     1  0.0000000  0.6508444  3
   9067   9065   9064   9075     1  180.0000771  0.8368000  1
   9067   9065   9064   9075     1  180.0000771  1.0460000  2
   9067   9065   9064   9075     1  0.0000000  0.7531200  3
   9067   9065   9064   9082     1  0.0000000  0.6508444  3
   9067   9068   9069   9073     1  0.0000000  0.6508444  3
   9067   9068   9069   9082     1  0.0000000  0.6508444  3
   9068   9067   9065   9085     1  0.0000000  0.6508444  3
   9069   9068   9067   9074     1  0.0000000  0.6508444  3
   9069   9082   9064   9075     1  180.0000771  0.4184000  2
   9069   9082   9064   9075     1  0.0000000  1.6024720  3
   9073   9069   9068   9087     1  0.0000000  0.6508444  3
   9074   9067   9065   9085     1  0.0000000  4.9162000  2
   9074   9067   9065   9085     1  0.0000000  0.6024960  3
   9074   9067   9068   9087     1  0.0000000  0.6508444  3
   9075   9064   9065   9085     1  0.0000000  0.6508444  3
   9080   9075   9064   9082     1  0.0000000  4.9162000  2
   9080   9075   9064   9082     1  0.0000000  0.6024960  3
   9082   9064   9065   9085     1  0.0000000  4.9162000  2
   9082   9064   9065   9085     1  0.0000000  0.6024960  3
   9082   9069   9068   9087     1  0.0000000  0.6508444  3
   9088   9089   9091   9092     1  180.0000771  0.8368000  1
   9088   9089   9091   9092     1  180.0000771  1.0460000  2
   9088   9089   9091   9092     1  0.0000000  0.7531200  3
   9088   9089   9091   9098     1  0.0000000  0.6508444  3
   9088   9106   9093   9092     1  180.0000771  0.4184000  2
   9088   9106   9093   9092     1  0.0000000  1.6024720  3
   9088   9106   9093   9097     1  0.0000000  1.6038667  3
   9089   9088   9099   9104     1  0.0000000  0.6508444  3
   9089   9088   9106   9093     1  180.0000771  0.4184000  2
   9089   9088   9106   9093     1  0.0000000  1.6024720  3
   9089   9091   9092   9093     1  180.0000771  0.8368000  1
   9089   9091   9092   9093     1  180.0000771  1.0460000  2
   9089   9091   9092   9093     1  0.0000000  0.7531200  3
   9089   9091   9092   9111     1  0.0000000  0.6508444  3
   9091   9089   9088   9099     1  180.0000771  0.8368000  1
   9091   9089   9088   9099     1  180.0000771  1.0460000  2
   9091   9089   9088   9099     1  0.0000000  0.7531200  3
   9091   9089   9088   9106     1  0.0000000  0.6508444  3
   9091   9092   9093   9097     1  0.0000000  0.6508444  3
   9091   9092   9093   9106     1  0.0000000  0.6508444  3
   9092   9091   9089   9109     1  0.0000000  0.6508444  3
   9093   9092   9091   9098     1  0.0000000  0.6508444  3
   9093   9106   9088   9099     1  180.0000771  0.4184000  2
   9093   9106   9088   9099     1  0.0000000  1.6024720  3
   9097   9093   9092   9111     1  0.0000000  0.6508444  3
   9098   9091   9089   9109     1  0.0000000  4.9162000  2
   9098   9091   9089   9109     1  0.0000000  0.6024960  3
   9098   9091   9092   9111     1  0.0000000  0.6508444  3
   9099   9088   9089   9109     1  0.0000000  0.6508444  3
   9104   9099   9088   9106     1  0.0000000  4.9162000  2
   9104   9099   9088   9106     1  0.0000000  0.6024960  3
   9106   9088   9089   9109     1  0.0000000  4.9162000  2
   9106   9088   9089   9109     1  0.0000000  0.6024960  3
   9106   9093   9092   9111     1  0.0000000  0.6508444  3
   9113   9115   9117   9121     1  0.0000000  0.6508444  3
   9115   9117   9121   9122     1  0.0000000  0.6508444  3
   9115   9117   9121   9123     1  0.0000000  0.6508444  3
   9117   9121   9122   9133     1  0.0000000  0.6508444  3
   9117   9121   9123   9125     1  0.0000000  0.6508444  3
   9121   9122   9133   9136     1  0.0000000  0.6508444  3
   9121   9123   9125   9129     1  0.0000000  0.6508444  3
   9122   9133   9136   9137     1  180.0000771  0.0000000  2
   9122   9133   9136   9185     1  180.0000771  0.0000000  2
   9122   9121   9123   9125     1  0.0000000  0.6508444  3
   9123   9125   9129   9130     1  180.0000771  0.0000000  2
   9123   9125   9129   9161     1  180.0000771  0.0000000  2
   9123   9121   9122   9133     1  0.0000000  0.6508444  3
   9125   9129   9161   9142     1  180.0000771  6.0668000  2
   9125   9129   9161   9142     1  180.0000771  1.4644000  4
   9129   9161   9142   9143     1  0.0000000  1.2552000  3
   9129   9161   9142   9141     1  0.0000000  1.2552000  3
   9130   9129   9161   9142     1  180.0000771  6.0668000  2
   9130   9129   9161   9142     1  180.0000771  1.4644000  4
   9133   9136   9185   9166     1  180.0000771  6.0668000  2
   9133   9136   9185   9166     1  180.0000771  1.4644000  4
   9136   9185   9166   9167     1  0.0000000  1.2552000  3
   9136   9185   9166   9165     1  0.0000000  1.2552000  3
   9137   9136   9185   9166     1  180.0000771  6.0668000  2
   9137   9136   9185   9166     1  180.0000771  1.4644000  4
   9138   9139   9141   9142     1  180.0000771  0.8368000  1
   9138   9139   9141   9142     1  180.0000771  1.0460000  2
   9138   9139   9141   9142     1  0.0000000  0.7531200  3
   9138   9139   9141   9148     1  0.0000000  0.6508444  3
   9138   9156   9143   9147     1  0.0000000  1.6038667  3
   9138   9156   9143   9142     1  180.0000771  0.4184000  2
   9138   9156   9143   9142     1  0.0000000  1.6024720  3
   9139   9141   9142   9143     1  180.0000771  0.8368000  1
   9139   9141   9142   9143     1  180.0000771  1.0460000  2
   9139   9141   9142   9143     1  0.0000000  0.7531200  3
   9139   9141   9142   9161     1  0.0000000  0.6508444  3
   9139   9138   9149   9154     1  0.0000000  0.6508444  3
   9139   9138   9156   9143     1  180.0000771  0.4184000  2
   9139   9138   9156   9143     1  0.0000000  1.6024720  3
   9141   9142   9143   9147     1  0.0000000  0.6508444  3
   9141   9142   9143   9156     1  0.0000000  0.6508444  3
   9141   9139   9138   9149     1  180.0000771  0.8368000  1
   9141   9139   9138   9149     1  180.0000771  1.0460000  2
   9141   9139   9138   9149     1  0.0000000  0.7531200  3
   9141   9139   9138   9156     1  0.0000000  0.6508444  3
   9142   9141   9139   9159     1  0.0000000  0.6508444  3
   9143   9156   9138   9149     1  180.0000771  0.4184000  2
   9143   9156   9138   9149     1  0.0000000  1.6024720  3
   9143   9142   9141   9148     1  0.0000000  0.6508444  3
   9147   9143   9142   9161     1  0.0000000  0.6508444  3
   9148   9141   9142   9161     1  0.0000000  0.6508444  3
   9148   9141   9139   9159     1  0.0000000  4.9162000  2
   9148   9141   9139   9159     1  0.0000000  0.6024960  3
   9149   9138   9139   9159     1  0.0000000  0.6508444  3
   9154   9149   9138   9156     1  0.0000000  4.9162000  2
   9154   9149   9138   9156     1  0.0000000  0.6024960  3
   9156   9143   9142   9161     1  0.0000000  0.6508444  3
   9156   9138   9139   9159     1  0.0000000  4.9162000  2
   9156   9138   9139   9159     1  0.0000000  0.6024960  3
   9162   9163   9165   9166     1  180.0000771  0.8368000  1
   9162   9163   9165   9166     1  180.0000771  1.0460000  2
   9162   9163   9165   9166     1  0.0000000  0.7531200  3
   9162   9163   9165   9172     1  0.0000000  0.6508444  3
   9162   9180   9167   9171     1  0.0000000  1.6038667  3
   9162   9180   9167   9166     1  180.0000771  0.4184000  2
   9162   9180   9167   9166     1  0.0000000  1.6024720  3
   9163   9165   9166   9167     1  180.0000771  0.8368000  1
   9163   9165   9166   9167     1  180.0000771  1.0460000  2
   9163   9165   9166   9167     1  0.0000000  0.7531200  3
   9163   9165   9166   9185     1  0.0000000  0.6508444  3
   9163   9162   9173   9178     1  0.0000000  0.6508444  3
   9163   9162   9180   9167     1  180.0000771  0.4184000  2
   9163   9162   9180   9167     1  0.0000000  1.6024720  3
   9165   9166   9167   9171     1  0.0000000  0.6508444  3
   9165   9166   9167   9180     1  0.0000000  0.6508444  3
   9165   9163   9162   9173     1  180.0000771  0.8368000  1
   9165   9163   9162   9173     1  180.0000771  1.0460000  2
   9165   9163   9162   9173     1  0.0000000  0.7531200  3
   9165   9163   9162   9180     1  0.0000000  0.6508444  3
   9166   9165   9163   9183     1  0.0000000  0.6508444  3
   9167   9180   9162   9173     1  180.0000771  0.4184000  2
   9167   9180   9162   9173     1  0.0000000  1.6024720  3
   9167   9166   9165   9172     1  0.0000000  0.6508444  3
   9171   9167   9166   9185     1  0.0000000  0.6508444  3
   9172   9165   9166   9185     1  0.0000000  0.6508444  3
   9172   9165   9163   9183     1  0.0000000  4.9162000  2
   9172   9165   9163   9183     1  0.0000000  0.6024960  3
   9173   9162   9163   9183     1  0.0000000  0.6508444  3
   9178   9173   9162   9180     1  0.0000000  4.9162000  2
   9178   9173   9162   9180     1  0.0000000  0.6024960  3
   9180   9167   9166   9185     1  0.0000000  0.6508444  3
   9180   9162   9163   9183     1  0.0000000  4.9162000  2
   9180   9162   9163   9183     1  0.0000000  0.6024960  3
   9187   9189   9191   9195     1  0.0000000  0.6508444  3
   9189   9191   9195   9196     1  0.0000000  0.6508444  3
   9189   9191   9195   9197     1  0.0000000  0.6508444  3
   9191   9195   9196   9207     1  0.0000000  0.6508444  3
   9191   9195   9197   9199     1  0.0000000  0.6508444  3
   9195   9196   9207   9210     1  0.0000000  0.6508444  3
   9195   9197   9199   9203     1  0.0000000  0.6508444  3
   9196   9195   9197   9199     1  0.0000000  0.6508444  3
   9196   9207   9210   9211     1  180.0000771  0.0000000  2
   9196   9207   9210   9259     1  180.0000771  0.0000000  2
   9197   9195   9196   9207     1  0.0000000  0.6508444  3
   9197   9199   9203   9204     1  180.0000771  0.0000000  2
   9197   9199   9203   9235     1  180.0000771  0.0000000  2
   9199   9203   9235   9216     1  180.0000771  6.0668000  2
   9199   9203   9235   9216     1  180.0000771  1.4644000  4
   9203   9235   9216   9215     1  0.0000000  1.2552000  3
   9203   9235   9216   9217     1  0.0000000  1.2552000  3
   9204   9203   9235   9216     1  180.0000771  6.0668000  2
   9204   9203   9235   9216     1  180.0000771  1.4644000  4
   9207   9210   9259   9240     1  180.0000771  6.0668000  2
   9207   9210   9259   9240     1  180.0000771  1.4644000  4
   9210   9259   9240   9239     1  0.0000000  1.2552000  3
   9210   9259   9240   9241     1  0.0000000  1.2552000  3
   9211   9210   9259   9240     1  180.0000771  6.0668000  2
   9211   9210   9259   9240     1  180.0000771  1.4644000  4
   9212   9213   9215   9216     1  180.0000771  0.8368000  1
   9212   9213   9215   9216     1  180.0000771  1.0460000  2
   9212   9213   9215   9216     1  0.0000000  0.7531200  3
   9212   9213   9215   9222     1  0.0000000  0.6508444  3
   9212   9230   9217   9216     1  180.0000771  0.4184000  2
   9212   9230   9217   9216     1  0.0000000  1.6024720  3
   9212   9230   9217   9221     1  0.0000000  1.6038667  3
   9213   9212   9223   9228     1  0.0000000  0.6508444  3
   9213   9212   9230   9217     1  180.0000771  0.4184000  2
   9213   9212   9230   9217     1  0.0000000  1.6024720  3
   9213   9215   9216   9217     1  180.0000771  0.8368000  1
   9213   9215   9216   9217     1  180.0000771  1.0460000  2
   9213   9215   9216   9217     1  0.0000000  0.7531200  3
   9213   9215   9216   9235     1  0.0000000  0.6508444  3
   9215   9213   9212   9223     1  180.0000771  0.8368000  1
   9215   9213   9212   9223     1  180.0000771  1.0460000  2
   9215   9213   9212   9223     1  0.0000000  0.7531200  3
   9215   9213   9212   9230     1  0.0000000  0.6508444  3
   9215   9216   9217   9221     1  0.0000000  0.6508444  3
   9215   9216   9217   9230     1  0.0000000  0.6508444  3
   9216   9215   9213   9233     1  0.0000000  0.6508444  3
   9217   9216   9215   9222     1  0.0000000  0.6508444  3
   9217   9230   9212   9223     1  180.0000771  0.4184000  2
   9217   9230   9212   9223     1  0.0000000  1.6024720  3
   9221   9217   9216   9235     1  0.0000000  0.6508444  3
   9222   9215   9213   9233     1  0.0000000  4.9162000  2
   9222   9215   9213   9233     1  0.0000000  0.6024960  3
   9222   9215   9216   9235     1  0.0000000  0.6508444  3
   9223   9212   9213   9233     1  0.0000000  0.6508444  3
   9228   9223   9212   9230     1  0.0000000  4.9162000  2
   9228   9223   9212   9230     1  0.0000000  0.6024960  3
   9230   9212   9213   9233     1  0.0000000  4.9162000  2
   9230   9212   9213   9233     1  0.0000000  0.6024960  3
   9230   9217   9216   9235     1  0.0000000  0.6508444  3
   9236   9237   9239   9240     1  180.0000771  0.8368000  1
   9236   9237   9239   9240     1  180.0000771  1.0460000  2
   9236   9237   9239   9240     1  0.0000000  0.7531200  3
   9236   9237   9239   9246     1  0.0000000  0.6508444  3
   9236   9254   9241   9240     1  180.0000771  0.4184000  2
   9236   9254   9241   9240     1  0.0000000  1.6024720  3
   9236   9254   9241   9245     1  0.0000000  1.6038667  3
   9237   9236   9247   9252     1  0.0000000  0.6508444  3
   9237   9236   9254   9241     1  180.0000771  0.4184000  2
   9237   9236   9254   9241     1  0.0000000  1.6024720  3
   9237   9239   9240   9241     1  180.0000771  0.8368000  1
   9237   9239   9240   9241     1  180.0000771  1.0460000  2
   9237   9239   9240   9241     1  0.0000000  0.7531200  3
   9237   9239   9240   9259     1  0.0000000  0.6508444  3
   9239   9237   9236   9247     1  180.0000771  0.8368000  1
   9239   9237   9236   9247     1  180.0000771  1.0460000  2
   9239   9237   9236   9247     1  0.0000000  0.7531200  3
   9239   9237   9236   9254     1  0.0000000  0.6508444  3
   9239   9240   9241   9245     1  0.0000000  0.6508444  3
   9239   9240   9241   9254     1  0.0000000  0.6508444  3
   9240   9239   9237   9257     1  0.0000000  0.6508444  3
   9241   9240   9239   9246     1  0.0000000  0.6508444  3
   9241   9254   9236   9247     1  180.0000771  0.4184000  2
   9241   9254   9236   9247     1  0.0000000  1.6024720  3
   9245   9241   9240   9259     1  0.0000000  0.6508444  3
   9246   9239   9237   9257     1  0.0000000  4.9162000  2
   9246   9239   9237   9257     1  0.0000000  0.6024960  3
   9246   9239   9240   9259     1  0.0000000  0.6508444  3
   9247   9236   9237   9257     1  0.0000000  0.6508444  3
   9252   9247   9236   9254     1  0.0000000  4.9162000  2
   9252   9247   9236   9254     1  0.0000000  0.6024960  3
   9254   9236   9237   9257     1  0.0000000  4.9162000  2
   9254   9236   9237   9257     1  0.0000000  0.6024960  3
   9254   9241   9240   9259     1  0.0000000  0.6508444  3
   9261   9263   9265   9269     1  0.0000000  0.6508444  3
   9263   9265   9269   9270     1  0.0000000  0.6508444  3
   9263   9265   9269   9271     1  0.0000000  0.6508444  3
   9265   9269   9270   9281     1  0.0000000  0.6508444  3
   9265   9269   9271   9273     1  0.0000000  0.6508444  3
   9269   9270   9281   9284     1  0.0000000  0.6508444  3
   9269   9271   9273   9277     1  0.0000000  0.6508444  3
   9270   9281   9284   9285     1  180.0000771  0.0000000  2
   9270   9281   9284   9333     1  180.0000771  0.0000000  2
   9270   9269   9271   9273     1  0.0000000  0.6508444  3
   9271   9273   9277   9278     1  180.0000771  0.0000000  2
   9271   9273   9277   9309     1  180.0000771  0.0000000  2
   9271   9269   9270   9281     1  0.0000000  0.6508444  3
   9273   9277   9309   9290     1  180.0000771  6.0668000  2
   9273   9277   9309   9290     1  180.0000771  1.4644000  4
   9277   9309   9290   9291     1  0.0000000  1.2552000  3
   9277   9309   9290   9289     1  0.0000000  1.2552000  3
   9278   9277   9309   9290     1  180.0000771  6.0668000  2
   9278   9277   9309   9290     1  180.0000771  1.4644000  4
   9281   9284   9333   9314     1  180.0000771  6.0668000  2
   9281   9284   9333   9314     1  180.0000771  1.4644000  4
   9284   9333   9314   9315     1  0.0000000  1.2552000  3
   9284   9333   9314   9313     1  0.0000000  1.2552000  3
   9285   9284   9333   9314     1  180.0000771  6.0668000  2
   9285   9284   9333   9314     1  180.0000771  1.4644000  4
   9286   9287   9289   9290     1  180.0000771  0.8368000  1
   9286   9287   9289   9290     1  180.0000771  1.0460000  2
   9286   9287   9289   9290     1  0.0000000  0.7531200  3
   9286   9287   9289   9296     1  0.0000000  0.6508444  3
   9286   9304   9291   9295     1  0.0000000  1.6038667  3
   9286   9304   9291   9290     1  180.0000771  0.4184000  2
   9286   9304   9291   9290     1  0.0000000  1.6024720  3
   9287   9289   9290   9291     1  180.0000771  0.8368000  1
   9287   9289   9290   9291     1  180.0000771  1.0460000  2
   9287   9289   9290   9291     1  0.0000000  0.7531200  3
   9287   9289   9290   9309     1  0.0000000  0.6508444  3
   9287   9286   9297   9302     1  0.0000000  0.6508444  3
   9287   9286   9304   9291     1  180.0000771  0.4184000  2
   9287   9286   9304   9291     1  0.0000000  1.6024720  3
   9289   9290   9291   9295     1  0.0000000  0.6508444  3
   9289   9290   9291   9304     1  0.0000000  0.6508444  3
   9289   9287   9286   9297     1  180.0000771  0.8368000  1
   9289   9287   9286   9297     1  180.0000771  1.0460000  2
   9289   9287   9286   9297     1  0.0000000  0.7531200  3
   9289   9287   9286   9304     1  0.0000000  0.6508444  3
   9290   9289   9287   9307     1  0.0000000  0.6508444  3
   9291   9304   9286   9297     1  180.0000771  0.4184000  2
   9291   9304   9286   9297     1  0.0000000  1.6024720  3
   9291   9290   9289   9296     1  0.0000000  0.6508444  3
   9295   9291   9290   9309     1  0.0000000  0.6508444  3
   9296   9289   9290   9309     1  0.0000000  0.6508444  3
   9296   9289   9287   9307     1  0.0000000  4.9162000  2
   9296   9289   9287   9307     1  0.0000000  0.6024960  3
   9297   9286   9287   9307     1  0.0000000  0.6508444  3
   9302   9297   9286   9304     1  0.0000000  4.9162000  2
   9302   9297   9286   9304     1  0.0000000  0.6024960  3
   9304   9291   9290   9309     1  0.0000000  0.6508444  3
   9304   9286   9287   9307     1  0.0000000  4.9162000  2
   9304   9286   9287   9307     1  0.0000000  0.6024960  3
   9310   9311   9313   9314     1  180.0000771  0.8368000  1
   9310   9311   9313   9314     1  180.0000771  1.0460000  2
   9310   9311   9313   9314     1  0.0000000  0.7531200  3
   9310   9311   9313   9320     1  0.0000000  0.6508444  3
   9310   9328   9315   9319     1  0.0000000  1.6038667  3
   9310   9328   9315   9314     1  180.0000771  0.4184000  2
   9310   9328   9315   9314     1  0.0000000  1.6024720  3
   9311   9313   9314   9315     1  180.0000771  0.8368000  1
   9311   9313   9314   9315     1  180.0000771  1.0460000  2
   9311   9313   9314   9315     1  0.0000000  0.7531200  3
   9311   9313   9314   9333     1  0.0000000  0.6508444  3
   9311   9310   9321   9326     1  0.0000000  0.6508444  3
   9311   9310   9328   9315     1  180.0000771  0.4184000  2
   9311   9310   9328   9315     1  0.0000000  1.6024720  3
   9313   9314   9315   9319     1  0.0000000  0.6508444  3
   9313   9314   9315   9328     1  0.0000000  0.6508444  3
   9313   9311   9310   9321     1  180.0000771  0.8368000  1
   9313   9311   9310   9321     1  180.0000771  1.0460000  2
   9313   9311   9310   9321     1  0.0000000  0.7531200  3
   9313   9311   9310   9328     1  0.0000000  0.6508444  3
   9314   9313   9311   9331     1  0.0000000  0.6508444  3
   9315   9328   9310   9321     1  180.0000771  0.4184000  2
   9315   9328   9310   9321     1  0.0000000  1.6024720  3
   9315   9314   9313   9320     1  0.0000000  0.6508444  3
   9319   9315   9314   9333     1  0.0000000  0.6508444  3
   9320   9313   9314   9333     1  0.0000000  0.6508444  3
   9320   9313   9311   9331     1  0.0000000  4.9162000  2
   9320   9313   9311   9331     1  0.0000000  0.6024960  3
   9321   9310   9311   9331     1  0.0000000  0.6508444  3
   9326   9321   9310   9328     1  0.0000000  4.9162000  2
   9326   9321   9310   9328     1  0.0000000  0.6024960  3
   9328   9315   9314   9333     1  0.0000000  0.6508444  3
   9328   9310   9311   9331     1  0.0000000  4.9162000  2
   9328   9310   9311   9331     1  0.0000000  0.6024960  3
   9335   9337   9339   9343     1  0.0000000  0.6508444  3
   9337   9339   9343   9344     1  0.0000000  0.6508444  3
   9337   9339   9343   9345     1  0.0000000  0.6508444  3
   9339   9343   9344   9355     1  0.0000000  0.6508444  3
   9339   9343   9345   9347     1  0.0000000  0.6508444  3
   9343   9344   9355   9358     1  0.0000000  0.6508444  3
   9343   9345   9347   9351     1  0.0000000  0.6508444  3
   9344   9343   9345   9347     1  0.0000000  0.6508444  3
   9344   9355   9358   9359     1  180.0000771  0.0000000  2
   9344   9355   9358   9407     1  180.0000771  0.0000000  2
   9345   9343   9344   9355     1  0.0000000  0.6508444  3
   9345   9347   9351   9352     1  180.0000771  0.0000000  2
   9345   9347   9351   9383     1  180.0000771  0.0000000  2
   9347   9351   9383   9364     1  180.0000771  6.0668000  2
   9347   9351   9383   9364     1  180.0000771  1.4644000  4
   9351   9383   9364   9363     1  0.0000000  1.2552000  3
   9351   9383   9364   9365     1  0.0000000  1.2552000  3
   9352   9351   9383   9364     1  180.0000771  6.0668000  2
   9352   9351   9383   9364     1  180.0000771  1.4644000  4
   9355   9358   9407   9388     1  180.0000771  6.0668000  2
   9355   9358   9407   9388     1  180.0000771  1.4644000  4
   9358   9407   9388   9387     1  0.0000000  1.2552000  3
   9358   9407   9388   9389     1  0.0000000  1.2552000  3
   9359   9358   9407   9388     1  180.0000771  6.0668000  2
   9359   9358   9407   9388     1  180.0000771  1.4644000  4
   9360   9361   9363   9364     1  180.0000771  0.8368000  1
   9360   9361   9363   9364     1  180.0000771  1.0460000  2
   9360   9361   9363   9364     1  0.0000000  0.7531200  3
   9360   9361   9363   9370     1  0.0000000  0.6508444  3
   9360   9378   9365   9364     1  180.0000771  0.4184000  2
   9360   9378   9365   9364     1  0.0000000  1.6024720  3
   9360   9378   9365   9369     1  0.0000000  1.6038667  3
   9361   9360   9371   9376     1  0.0000000  0.6508444  3
   9361   9360   9378   9365     1  180.0000771  0.4184000  2
   9361   9360   9378   9365     1  0.0000000  1.6024720  3
   9361   9363   9364   9365     1  180.0000771  0.8368000  1
   9361   9363   9364   9365     1  180.0000771  1.0460000  2
   9361   9363   9364   9365     1  0.0000000  0.7531200  3
   9361   9363   9364   9383     1  0.0000000  0.6508444  3
   9363   9361   9360   9371     1  180.0000771  0.8368000  1
   9363   9361   9360   9371     1  180.0000771  1.0460000  2
   9363   9361   9360   9371     1  0.0000000  0.7531200  3
   9363   9361   9360   9378     1  0.0000000  0.6508444  3
   9363   9364   9365   9369     1  0.0000000  0.6508444  3
   9363   9364   9365   9378     1  0.0000000  0.6508444  3
   9364   9363   9361   9381     1  0.0000000  0.6508444  3
   9365   9364   9363   9370     1  0.0000000  0.6508444  3
   9365   9378   9360   9371     1  180.0000771  0.4184000  2
   9365   9378   9360   9371     1  0.0000000  1.6024720  3
   9369   9365   9364   9383     1  0.0000000  0.6508444  3
   9370   9363   9361   9381     1  0.0000000  4.9162000  2
   9370   9363   9361   9381     1  0.0000000  0.6024960  3
   9370   9363   9364   9383     1  0.0000000  0.6508444  3
   9371   9360   9361   9381     1  0.0000000  0.6508444  3
   9376   9371   9360   9378     1  0.0000000  4.9162000  2
   9376   9371   9360   9378     1  0.0000000  0.6024960  3
   9378   9360   9361   9381     1  0.0000000  4.9162000  2
   9378   9360   9361   9381     1  0.0000000  0.6024960  3
   9378   9365   9364   9383     1  0.0000000  0.6508444  3
   9384   9385   9387   9388     1  180.0000771  0.8368000  1
   9384   9385   9387   9388     1  180.0000771  1.0460000  2
   9384   9385   9387   9388     1  0.0000000  0.7531200  3
   9384   9385   9387   9394     1  0.0000000  0.6508444  3
   9384   9402   9389   9388     1  180.0000771  0.4184000  2
   9384   9402   9389   9388     1  0.0000000  1.6024720  3
   9384   9402   9389   9393     1  0.0000000  1.6038667  3
   9385   9384   9395   9400     1  0.0000000  0.6508444  3
   9385   9384   9402   9389     1  180.0000771  0.4184000  2
   9385   9384   9402   9389     1  0.0000000  1.6024720  3
   9385   9387   9388   9389     1  180.0000771  0.8368000  1
   9385   9387   9388   9389     1  180.0000771  1.0460000  2
   9385   9387   9388   9389     1  0.0000000  0.7531200  3
   9385   9387   9388   9407     1  0.0000000  0.6508444  3
   9387   9385   9384   9395     1  180.0000771  0.8368000  1
   9387   9385   9384   9395     1  180.0000771  1.0460000  2
   9387   9385   9384   9395     1  0.0000000  0.7531200  3
   9387   9385   9384   9402     1  0.0000000  0.6508444  3
   9387   9388   9389   9393     1  0.0000000  0.6508444  3
   9387   9388   9389   9402     1  0.0000000  0.6508444  3
   9388   9387   9385   9405     1  0.0000000  0.6508444  3
   9389   9388   9387   9394     1  0.0000000  0.6508444  3
   9389   9402   9384   9395     1  180.0000771  0.4184000  2
   9389   9402   9384   9395     1  0.0000000  1.6024720  3
   9393   9389   9388   9407     1  0.0000000  0.6508444  3
   9394   9387   9385   9405     1  0.0000000  4.9162000  2
   9394   9387   9385   9405     1  0.0000000  0.6024960  3
   9394   9387   9388   9407     1  0.0000000  0.6508444  3
   9395   9384   9385   9405     1  0.0000000  0.6508444  3
   9400   9395   9384   9402     1  0.0000000  4.9162000  2
   9400   9395   9384   9402     1  0.0000000  0.6024960  3
   9402   9384   9385   9405     1  0.0000000  4.9162000  2
   9402   9384   9385   9405     1  0.0000000  0.6024960  3
   9402   9389   9388   9407     1  0.0000000  0.6508444  3
   9409   9411   9413   9417     1  0.0000000  0.6508444  3
   9411   9413   9417   9418     1  0.0000000  0.6508444  3
   9411   9413   9417   9419     1  0.0000000  0.6508444  3
   9413   9417   9418   9429     1  0.0000000  0.6508444  3
   9413   9417   9419   9421     1  0.0000000  0.6508444  3
   9417   9418   9429   9432     1  0.0000000  0.6508444  3
   9417   9419   9421   9425     1  0.0000000  0.6508444  3
   9418   9429   9432   9433     1  180.0000771  0.0000000  2
   9418   9429   9432   9481     1  180.0000771  0.0000000  2
   9418   9417   9419   9421     1  0.0000000  0.6508444  3
   9419   9421   9425   9426     1  180.0000771  0.0000000  2
   9419   9421   9425   9457     1  180.0000771  0.0000000  2
   9419   9417   9418   9429     1  0.0000000  0.6508444  3
   9421   9425   9457   9438     1  180.0000771  6.0668000  2
   9421   9425   9457   9438     1  180.0000771  1.4644000  4
   9425   9457   9438   9439     1  0.0000000  1.2552000  3
   9425   9457   9438   9437     1  0.0000000  1.2552000  3
   9426   9425   9457   9438     1  180.0000771  6.0668000  2
   9426   9425   9457   9438     1  180.0000771  1.4644000  4
   9429   9432   9481   9462     1  180.0000771  6.0668000  2
   9429   9432   9481   9462     1  180.0000771  1.4644000  4
   9432   9481   9462   9463     1  0.0000000  1.2552000  3
   9432   9481   9462   9461     1  0.0000000  1.2552000  3
   9433   9432   9481   9462     1  180.0000771  6.0668000  2
   9433   9432   9481   9462     1  180.0000771  1.4644000  4
   9434   9435   9437   9438     1  180.0000771  0.8368000  1
   9434   9435   9437   9438     1  180.0000771  1.0460000  2
   9434   9435   9437   9438     1  0.0000000  0.7531200  3
   9434   9435   9437   9444     1  0.0000000  0.6508444  3
   9434   9452   9439   9443     1  0.0000000  1.6038667  3
   9434   9452   9439   9438     1  180.0000771  0.4184000  2
   9434   9452   9439   9438     1  0.0000000  1.6024720  3
   9435   9437   9438   9439     1  180.0000771  0.8368000  1
   9435   9437   9438   9439     1  180.0000771  1.0460000  2
   9435   9437   9438   9439     1  0.0000000  0.7531200  3
   9435   9437   9438   9457     1  0.0000000  0.6508444  3
   9435   9434   9445   9450     1  0.0000000  0.6508444  3
   9435   9434   9452   9439     1  180.0000771  0.4184000  2
   9435   9434   9452   9439     1  0.0000000  1.6024720  3
   9437   9438   9439   9443     1  0.0000000  0.6508444  3
   9437   9438   9439   9452     1  0.0000000  0.6508444  3
   9437   9435   9434   9445     1  180.0000771  0.8368000  1
   9437   9435   9434   9445     1  180.0000771  1.0460000  2
   9437   9435   9434   9445     1  0.0000000  0.7531200  3
   9437   9435   9434   9452     1  0.0000000  0.6508444  3
   9438   9437   9435   9455     1  0.0000000  0.6508444  3
   9439   9452   9434   9445     1  180.0000771  0.4184000  2
   9439   9452   9434   9445     1  0.0000000  1.6024720  3
   9439   9438   9437   9444     1  0.0000000  0.6508444  3
   9443   9439   9438   9457     1  0.0000000  0.6508444  3
   9444   9437   9438   9457     1  0.0000000  0.6508444  3
   9444   9437   9435   9455     1  0.0000000  4.9162000  2
   9444   9437   9435   9455     1  0.0000000  0.6024960  3
   9445   9434   9435   9455     1  0.0000000  0.6508444  3
   9450   9445   9434   9452     1  0.0000000  4.9162000  2
   9450   9445   9434   9452     1  0.0000000  0.6024960  3
   9452   9439   9438   9457     1  0.0000000  0.6508444  3
   9452   9434   9435   9455     1  0.0000000  4.9162000  2
   9452   9434   9435   9455     1  0.0000000  0.6024960  3
   9458   9459   9461   9462     1  180.0000771  0.8368000  1
   9458   9459   9461   9462     1  180.0000771  1.0460000  2
   9458   9459   9461   9462     1  0.0000000  0.7531200  3
   9458   9459   9461   9468     1  0.0000000  0.6508444  3
   9458   9476   9463   9467     1  0.0000000  1.6038667  3
   9458   9476   9463   9462     1  180.0000771  0.4184000  2
   9458   9476   9463   9462     1  0.0000000  1.6024720  3
   9459   9461   9462   9463     1  180.0000771  0.8368000  1
   9459   9461   9462   9463     1  180.0000771  1.0460000  2
   9459   9461   9462   9463     1  0.0000000  0.7531200  3
   9459   9461   9462   9481     1  0.0000000  0.6508444  3
   9459   9458   9469   9474     1  0.0000000  0.6508444  3
   9459   9458   9476   9463     1  180.0000771  0.4184000  2
   9459   9458   9476   9463     1  0.0000000  1.6024720  3
   9461   9462   9463   9467     1  0.0000000  0.6508444  3
   9461   9462   9463   9476     1  0.0000000  0.6508444  3
   9461   9459   9458   9469     1  180.0000771  0.8368000  1
   9461   9459   9458   9469     1  180.0000771  1.0460000  2
   9461   9459   9458   9469     1  0.0000000  0.7531200  3
   9461   9459   9458   9476     1  0.0000000  0.6508444  3
   9462   9461   9459   9479     1  0.0000000  0.6508444  3
   9463   9476   9458   9469     1  180.0000771  0.4184000  2
   9463   9476   9458   9469     1  0.0000000  1.6024720  3
   9463   9462   9461   9468     1  0.0000000  0.6508444  3
   9467   9463   9462   9481     1  0.0000000  0.6508444  3
   9468   9461   9462   9481     1  0.0000000  0.6508444  3
   9468   9461   9459   9479     1  0.0000000  4.9162000  2
   9468   9461   9459   9479     1  0.0000000  0.6024960  3
   9469   9458   9459   9479     1  0.0000000  0.6508444  3
   9474   9469   9458   9476     1  0.0000000  4.9162000  2
   9474   9469   9458   9476     1  0.0000000  0.6024960  3
   9476   9463   9462   9481     1  0.0000000  0.6508444  3
   9476   9458   9459   9479     1  0.0000000  4.9162000  2
   9476   9458   9459   9479     1  0.0000000  0.6024960  3
   9483   9485   9487   9491     1  0.0000000  0.6508444  3
   9485   9487   9491   9492     1  0.0000000  0.6508444  3
   9485   9487   9491   9493     1  0.0000000  0.6508444  3
   9487   9491   9492   9503     1  0.0000000  0.6508444  3
   9487   9491   9493   9495     1  0.0000000  0.6508444  3
   9491   9492   9503   9506     1  0.0000000  0.6508444  3
   9491   9493   9495   9499     1  0.0000000  0.6508444  3
   9492   9491   9493   9495     1  0.0000000  0.6508444  3
   9492   9503   9506   9507     1  180.0000771  0.0000000  2
   9492   9503   9506   9555     1  180.0000771  0.0000000  2
   9493   9491   9492   9503     1  0.0000000  0.6508444  3
   9493   9495   9499   9500     1  180.0000771  0.0000000  2
   9493   9495   9499   9531     1  180.0000771  0.0000000  2
   9495   9499   9531   9512     1  180.0000771  6.0668000  2
   9495   9499   9531   9512     1  180.0000771  1.4644000  4
   9499   9531   9512   9511     1  0.0000000  1.2552000  3
   9499   9531   9512   9513     1  0.0000000  1.2552000  3
   9500   9499   9531   9512     1  180.0000771  6.0668000  2
   9500   9499   9531   9512     1  180.0000771  1.4644000  4
   9503   9506   9555   9536     1  180.0000771  6.0668000  2
   9503   9506   9555   9536     1  180.0000771  1.4644000  4
   9506   9555   9536   9535     1  0.0000000  1.2552000  3
   9506   9555   9536   9537     1  0.0000000  1.2552000  3
   9507   9506   9555   9536     1  180.0000771  6.0668000  2
   9507   9506   9555   9536     1  180.0000771  1.4644000  4
   9508   9509   9511   9512     1  180.0000771  0.8368000  1
   9508   9509   9511   9512     1  180.0000771  1.0460000  2
   9508   9509   9511   9512     1  0.0000000  0.7531200  3
   9508   9509   9511   9518     1  0.0000000  0.6508444  3
   9508   9526   9513   9512     1  180.0000771  0.4184000  2
   9508   9526   9513   9512     1  0.0000000  1.6024720  3
   9508   9526   9513   9517     1  0.0000000  1.6038667  3
   9509   9508   9519   9524     1  0.0000000  0.6508444  3
   9509   9508   9526   9513     1  180.0000771  0.4184000  2
   9509   9508   9526   9513     1  0.0000000  1.6024720  3
   9509   9511   9512   9513     1  180.0000771  0.8368000  1
   9509   9511   9512   9513     1  180.0000771  1.0460000  2
   9509   9511   9512   9513     1  0.0000000  0.7531200  3
   9509   9511   9512   9531     1  0.0000000  0.6508444  3
   9511   9509   9508   9519     1  180.0000771  0.8368000  1
   9511   9509   9508   9519     1  180.0000771  1.0460000  2
   9511   9509   9508   9519     1  0.0000000  0.7531200  3
   9511   9509   9508   9526     1  0.0000000  0.6508444  3
   9511   9512   9513   9517     1  0.0000000  0.6508444  3
   9511   9512   9513   9526     1  0.0000000  0.6508444  3
   9512   9511   9509   9529     1  0.0000000  0.6508444  3
   9513   9512   9511   9518     1  0.0000000  0.6508444  3
   9513   9526   9508   9519     1  180.0000771  0.4184000  2
   9513   9526   9508   9519     1  0.0000000  1.6024720  3
   9517   9513   9512   9531     1  0.0000000  0.6508444  3
   9518   9511   9509   9529     1  0.0000000  4.9162000  2
   9518   9511   9509   9529     1  0.0000000  0.6024960  3
   9518   9511   9512   9531     1  0.0000000  0.6508444  3
   9519   9508   9509   9529     1  0.0000000  0.6508444  3
   9524   9519   9508   9526     1  0.0000000  4.9162000  2
   9524   9519   9508   9526     1  0.0000000  0.6024960  3
   9526   9508   9509   9529     1  0.0000000  4.9162000  2
   9526   9508   9509   9529     1  0.0000000  0.6024960  3
   9526   9513   9512   9531     1  0.0000000  0.6508444  3
   9532   9533   9535   9536     1  180.0000771  0.8368000  1
   9532   9533   9535   9536     1  180.0000771  1.0460000  2
   9532   9533   9535   9536     1  0.0000000  0.7531200  3
   9532   9533   9535   9542     1  0.0000000  0.6508444  3
   9532   9550   9537   9536     1  180.0000771  0.4184000  2
   9532   9550   9537   9536     1  0.0000000  1.6024720  3
   9532   9550   9537   9541     1  0.0000000  1.6038667  3
   9533   9532   9543   9548     1  0.0000000  0.6508444  3
   9533   9532   9550   9537     1  180.0000771  0.4184000  2
   9533   9532   9550   9537     1  0.0000000  1.6024720  3
   9533   9535   9536   9537     1  180.0000771  0.8368000  1
   9533   9535   9536   9537     1  180.0000771  1.0460000  2
   9533   9535   9536   9537     1  0.0000000  0.7531200  3
   9533   9535   9536   9555     1  0.0000000  0.6508444  3
   9535   9533   9532   9543     1  180.0000771  0.8368000  1
   9535   9533   9532   9543     1  180.0000771  1.0460000  2
   9535   9533   9532   9543     1  0.0000000  0.7531200  3
   9535   9533   9532   9550     1  0.0000000  0.6508444  3
   9535   9536   9537   9541     1  0.0000000  0.6508444  3
   9535   9536   9537   9550     1  0.0000000  0.6508444  3
   9536   9535   9533   9553     1  0.0000000  0.6508444  3
   9537   9536   9535   9542     1  0.0000000  0.6508444  3
   9537   9550   9532   9543     1  180.0000771  0.4184000  2
   9537   9550   9532   9543     1  0.0000000  1.6024720  3
   9541   9537   9536   9555     1  0.0000000  0.6508444  3
   9542   9535   9533   9553     1  0.0000000  4.9162000  2
   9542   9535   9533   9553     1  0.0000000  0.6024960  3
   9542   9535   9536   9555     1  0.0000000  0.6508444  3
   9543   9532   9533   9553     1  0.0000000  0.6508444  3
   9548   9543   9532   9550     1  0.0000000  4.9162000  2
   9548   9543   9532   9550     1  0.0000000  0.6024960  3
   9550   9532   9533   9553     1  0.0000000  4.9162000  2
   9550   9532   9533   9553     1  0.0000000  0.6024960  3
   9550   9537   9536   9555     1  0.0000000  0.6508444  3
   9557   9559   9561   9565     1  0.0000000  0.6508444  3
   9559   9561   9565   9566     1  0.0000000  0.6508444  3
   9559   9561   9565   9567     1  0.0000000  0.6508444  3
   9561   9565   9566   9577     1  0.0000000  0.6508444  3
   9561   9565   9567   9569     1  0.0000000  0.6508444  3
   9565   9566   9577   9580     1  0.0000000  0.6508444  3
   9565   9567   9569   9573     1  0.0000000  0.6508444  3
   9566   9577   9580   9581     1  180.0000771  0.0000000  2
   9566   9577   9580   9629     1  180.0000771  0.0000000  2
   9566   9565   9567   9569     1  0.0000000  0.6508444  3
   9567   9569   9573   9574     1  180.0000771  0.0000000  2
   9567   9569   9573   9605     1  180.0000771  0.0000000  2
   9567   9565   9566   9577     1  0.0000000  0.6508444  3
   9569   9573   9605   9586     1  180.0000771  6.0668000  2
   9569   9573   9605   9586     1  180.0000771  1.4644000  4
   9573   9605   9586   9587     1  0.0000000  1.2552000  3
   9573   9605   9586   9585     1  0.0000000  1.2552000  3
   9574   9573   9605   9586     1  180.0000771  6.0668000  2
   9574   9573   9605   9586     1  180.0000771  1.4644000  4
   9577   9580   9629   9610     1  180.0000771  6.0668000  2
   9577   9580   9629   9610     1  180.0000771  1.4644000  4
   9580   9629   9610   9611     1  0.0000000  1.2552000  3
   9580   9629   9610   9609     1  0.0000000  1.2552000  3
   9581   9580   9629   9610     1  180.0000771  6.0668000  2
   9581   9580   9629   9610     1  180.0000771  1.4644000  4
   9582   9583   9585   9586     1  180.0000771  0.8368000  1
   9582   9583   9585   9586     1  180.0000771  1.0460000  2
   9582   9583   9585   9586     1  0.0000000  0.7531200  3
   9582   9583   9585   9592     1  0.0000000  0.6508444  3
   9582   9600   9587   9591     1  0.0000000  1.6038667  3
   9582   9600   9587   9586     1  180.0000771  0.4184000  2
   9582   9600   9587   9586     1  0.0000000  1.6024720  3
   9583   9585   9586   9587     1  180.0000771  0.8368000  1
   9583   9585   9586   9587     1  180.0000771  1.0460000  2
   9583   9585   9586   9587     1  0.0000000  0.7531200  3
   9583   9585   9586   9605     1  0.0000000  0.6508444  3
   9583   9582   9593   9598     1  0.0000000  0.6508444  3
   9583   9582   9600   9587     1  180.0000771  0.4184000  2
   9583   9582   9600   9587     1  0.0000000  1.6024720  3
   9585   9586   9587   9591     1  0.0000000  0.6508444  3
   9585   9586   9587   9600     1  0.0000000  0.6508444  3
   9585   9583   9582   9593     1  180.0000771  0.8368000  1
   9585   9583   9582   9593     1  180.0000771  1.0460000  2
   9585   9583   9582   9593     1  0.0000000  0.7531200  3
   9585   9583   9582   9600     1  0.0000000  0.6508444  3
   9586   9585   9583   9603     1  0.0000000  0.6508444  3
   9587   9600   9582   9593     1  180.0000771  0.4184000  2
   9587   9600   9582   9593     1  0.0000000  1.6024720  3
   9587   9586   9585   9592     1  0.0000000  0.6508444  3
   9591   9587   9586   9605     1  0.0000000  0.6508444  3
   9592   9585   9586   9605     1  0.0000000  0.6508444  3
   9592   9585   9583   9603     1  0.0000000  4.9162000  2
   9592   9585   9583   9603     1  0.0000000  0.6024960  3
   9593   9582   9583   9603     1  0.0000000  0.6508444  3
   9598   9593   9582   9600     1  0.0000000  4.9162000  2
   9598   9593   9582   9600     1  0.0000000  0.6024960  3
   9600   9587   9586   9605     1  0.0000000  0.6508444  3
   9600   9582   9583   9603     1  0.0000000  4.9162000  2
   9600   9582   9583   9603     1  0.0000000  0.6024960  3
   9606   9607   9609   9610     1  180.0000771  0.8368000  1
   9606   9607   9609   9610     1  180.0000771  1.0460000  2
   9606   9607   9609   9610     1  0.0000000  0.7531200  3
   9606   9607   9609   9616     1  0.0000000  0.6508444  3
   9606   9624   9611   9615     1  0.0000000  1.6038667  3
   9606   9624   9611   9610     1  180.0000771  0.4184000  2
   9606   9624   9611   9610     1  0.0000000  1.6024720  3
   9607   9609   9610   9611     1  180.0000771  0.8368000  1
   9607   9609   9610   9611     1  180.0000771  1.0460000  2
   9607   9609   9610   9611     1  0.0000000  0.7531200  3
   9607   9609   9610   9629     1  0.0000000  0.6508444  3
   9607   9606   9617   9622     1  0.0000000  0.6508444  3
   9607   9606   9624   9611     1  180.0000771  0.4184000  2
   9607   9606   9624   9611     1  0.0000000  1.6024720  3
   9609   9610   9611   9615     1  0.0000000  0.6508444  3
   9609   9610   9611   9624     1  0.0000000  0.6508444  3
   9609   9607   9606   9617     1  180.0000771  0.8368000  1
   9609   9607   9606   9617     1  180.0000771  1.0460000  2
   9609   9607   9606   9617     1  0.0000000  0.7531200  3
   9609   9607   9606   9624     1  0.0000000  0.6508444  3
   9610   9609   9607   9627     1  0.0000000  0.6508444  3
   9611   9624   9606   9617     1  180.0000771  0.4184000  2
   9611   9624   9606   9617     1  0.0000000  1.6024720  3
   9611   9610   9609   9616     1  0.0000000  0.6508444  3
   9615   9611   9610   9629     1  0.0000000  0.6508444  3
   9616   9609   9610   9629     1  0.0000000  0.6508444  3
   9616   9609   9607   9627     1  0.0000000  4.9162000  2
   9616   9609   9607   9627     1  0.0000000  0.6024960  3
   9617   9606   9607   9627     1  0.0000000  0.6508444  3
   9622   9617   9606   9624     1  0.0000000  4.9162000  2
   9622   9617   9606   9624     1  0.0000000  0.6024960  3
   9624   9611   9610   9629     1  0.0000000  0.6508444  3
   9624   9606   9607   9627     1  0.0000000  4.9162000  2
   9624   9606   9607   9627     1  0.0000000  0.6024960  3
   9631   9633   9635   9639     1  0.0000000  0.6508444  3
   9633   9635   9639   9640     1  0.0000000  0.6508444  3
   9633   9635   9639   9641     1  0.0000000  0.6508444  3
   9635   9639   9640   9651     1  0.0000000  0.6508444  3
   9635   9639   9641   9643     1  0.0000000  0.6508444  3
   9639   9640   9651   9654     1  0.0000000  0.6508444  3
   9639   9641   9643   9647     1  0.0000000  0.6508444  3
   9640   9639   9641   9643     1  0.0000000  0.6508444  3
   9640   9651   9654   9655     1  180.0000771  0.0000000  2
   9640   9651   9654   9703     1  180.0000771  0.0000000  2
   9641   9639   9640   9651     1  0.0000000  0.6508444  3
   9641   9643   9647   9648     1  180.0000771  0.0000000  2
   9641   9643   9647   9679     1  180.0000771  0.0000000  2
   9643   9647   9679   9660     1  180.0000771  6.0668000  2
   9643   9647   9679   9660     1  180.0000771  1.4644000  4
   9647   9679   9660   9659     1  0.0000000  1.2552000  3
   9647   9679   9660   9661     1  0.0000000  1.2552000  3
   9648   9647   9679   9660     1  180.0000771  6.0668000  2
   9648   9647   9679   9660     1  180.0000771  1.4644000  4
   9651   9654   9703   9684     1  180.0000771  6.0668000  2
   9651   9654   9703   9684     1  180.0000771  1.4644000  4
   9654   9703   9684   9683     1  0.0000000  1.2552000  3
   9654   9703   9684   9685     1  0.0000000  1.2552000  3
   9655   9654   9703   9684     1  180.0000771  6.0668000  2
   9655   9654   9703   9684     1  180.0000771  1.4644000  4
   9656   9657   9659   9660     1  180.0000771  0.8368000  1
   9656   9657   9659   9660     1  180.0000771  1.0460000  2
   9656   9657   9659   9660     1  0.0000000  0.7531200  3
   9656   9657   9659   9666     1  0.0000000  0.6508444  3
   9656   9674   9661   9660     1  180.0000771  0.4184000  2
   9656   9674   9661   9660     1  0.0000000  1.6024720  3
   9656   9674   9661   9665     1  0.0000000  1.6038667  3
   9657   9656   9667   9672     1  0.0000000  0.6508444  3
   9657   9656   9674   9661     1  180.0000771  0.4184000  2
   9657   9656   9674   9661     1  0.0000000  1.6024720  3
   9657   9659   9660   9661     1  180.0000771  0.8368000  1
   9657   9659   9660   9661     1  180.0000771  1.0460000  2
   9657   9659   9660   9661     1  0.0000000  0.7531200  3
   9657   9659   9660   9679     1  0.0000000  0.6508444  3
   9659   9657   9656   9667     1  180.0000771  0.8368000  1
   9659   9657   9656   9667     1  180.0000771  1.0460000  2
   9659   9657   9656   9667     1  0.0000000  0.7531200  3
   9659   9657   9656   9674     1  0.0000000  0.6508444  3
   9659   9660   9661   9665     1  0.0000000  0.6508444  3
   9659   9660   9661   9674     1  0.0000000  0.6508444  3
   9660   9659   9657   9677     1  0.0000000  0.6508444  3
   9661   9660   9659   9666     1  0.0000000  0.6508444  3
   9661   9674   9656   9667     1  180.0000771  0.4184000  2
   9661   9674   9656   9667     1  0.0000000  1.6024720  3
   9665   9661   9660   9679     1  0.0000000  0.6508444  3
   9666   9659   9657   9677     1  0.0000000  4.9162000  2
   9666   9659   9657   9677     1  0.0000000  0.6024960  3
   9666   9659   9660   9679     1  0.0000000  0.6508444  3
   9667   9656   9657   9677     1  0.0000000  0.6508444  3
   9672   9667   9656   9674     1  0.0000000  4.9162000  2
   9672   9667   9656   9674     1  0.0000000  0.6024960  3
   9674   9656   9657   9677     1  0.0000000  4.9162000  2
   9674   9656   9657   9677     1  0.0000000  0.6024960  3
   9674   9661   9660   9679     1  0.0000000  0.6508444  3
   9680   9681   9683   9684     1  180.0000771  0.8368000  1
   9680   9681   9683   9684     1  180.0000771  1.0460000  2
   9680   9681   9683   9684     1  0.0000000  0.7531200  3
   9680   9681   9683   9690     1  0.0000000  0.6508444  3
   9680   9698   9685   9684     1  180.0000771  0.4184000  2
   9680   9698   9685   9684     1  0.0000000  1.6024720  3
   9680   9698   9685   9689     1  0.0000000  1.6038667  3
   9681   9680   9691   9696     1  0.0000000  0.6508444  3
   9681   9680   9698   9685     1  180.0000771  0.4184000  2
   9681   9680   9698   9685     1  0.0000000  1.6024720  3
   9681   9683   9684   9685     1  180.0000771  0.8368000  1
   9681   9683   9684   9685     1  180.0000771  1.0460000  2
   9681   9683   9684   9685     1  0.0000000  0.7531200  3
   9681   9683   9684   9703     1  0.0000000  0.6508444  3
   9683   9681   9680   9691     1  180.0000771  0.8368000  1
   9683   9681   9680   9691     1  180.0000771  1.0460000  2
   9683   9681   9680   9691     1  0.0000000  0.7531200  3
   9683   9681   9680   9698     1  0.0000000  0.6508444  3
   9683   9684   9685   9689     1  0.0000000  0.6508444  3
   9683   9684   9685   9698     1  0.0000000  0.6508444  3
   9684   9683   9681   9701     1  0.0000000  0.6508444  3
   9685   9684   9683   9690     1  0.0000000  0.6508444  3
   9685   9698   9680   9691     1  180.0000771  0.4184000  2
   9685   9698   9680   9691     1  0.0000000  1.6024720  3
   9689   9685   9684   9703     1  0.0000000  0.6508444  3
   9690   9683   9681   9701     1  0.0000000  4.9162000  2
   9690   9683   9681   9701     1  0.0000000  0.6024960  3
   9690   9683   9684   9703     1  0.0000000  0.6508444  3
   9691   9680   9681   9701     1  0.0000000  0.6508444  3
   9696   9691   9680   9698     1  0.0000000  4.9162000  2
   9696   9691   9680   9698     1  0.0000000  0.6024960  3
   9698   9680   9681   9701     1  0.0000000  4.9162000  2
   9698   9680   9681   9701     1  0.0000000  0.6024960  3
   9698   9685   9684   9703     1  0.0000000  0.6508444  3
   9705   9707   9709   9713     1  0.0000000  0.6508444  3
   9707   9709   9713   9714     1  0.0000000  0.6508444  3
   9707   9709   9713   9715     1  0.0000000  0.6508444  3
   9709   9713   9714   9725     1  0.0000000  0.6508444  3
   9709   9713   9715   9717     1  0.0000000  0.6508444  3
   9713   9714   9725   9728     1  0.0000000  0.6508444  3
   9713   9715   9717   9721     1  0.0000000  0.6508444  3
   9714   9725   9728   9729     1  180.0000771  0.0000000  2
   9714   9725   9728   9777     1  180.0000771  0.0000000  2
   9714   9713   9715   9717     1  0.0000000  0.6508444  3
   9715   9717   9721   9722     1  180.0000771  0.0000000  2
   9715   9717   9721   9753     1  180.0000771  0.0000000  2
   9715   9713   9714   9725     1  0.0000000  0.6508444  3
   9717   9721   9753   9734     1  180.0000771  6.0668000  2
   9717   9721   9753   9734     1  180.0000771  1.4644000  4
   9721   9753   9734   9735     1  0.0000000  1.2552000  3
   9721   9753   9734   9733     1  0.0000000  1.2552000  3
   9722   9721   9753   9734     1  180.0000771  6.0668000  2
   9722   9721   9753   9734     1  180.0000771  1.4644000  4
   9725   9728   9777   9758     1  180.0000771  6.0668000  2
   9725   9728   9777   9758     1  180.0000771  1.4644000  4
   9728   9777   9758   9759     1  0.0000000  1.2552000  3
   9728   9777   9758   9757     1  0.0000000  1.2552000  3
   9729   9728   9777   9758     1  180.0000771  6.0668000  2
   9729   9728   9777   9758     1  180.0000771  1.4644000  4
   9730   9731   9733   9734     1  180.0000771  0.8368000  1
   9730   9731   9733   9734     1  180.0000771  1.0460000  2
   9730   9731   9733   9734     1  0.0000000  0.7531200  3
   9730   9731   9733   9740     1  0.0000000  0.6508444  3
   9730   9748   9735   9739     1  0.0000000  1.6038667  3
   9730   9748   9735   9734     1  180.0000771  0.4184000  2
   9730   9748   9735   9734     1  0.0000000  1.6024720  3
   9731   9733   9734   9735     1  180.0000771  0.8368000  1
   9731   9733   9734   9735     1  180.0000771  1.0460000  2
   9731   9733   9734   9735     1  0.0000000  0.7531200  3
   9731   9733   9734   9753     1  0.0000000  0.6508444  3
   9731   9730   9741   9746     1  0.0000000  0.6508444  3
   9731   9730   9748   9735     1  180.0000771  0.4184000  2
   9731   9730   9748   9735     1  0.0000000  1.6024720  3
   9733   9734   9735   9739     1  0.0000000  0.6508444  3
   9733   9734   9735   9748     1  0.0000000  0.6508444  3
   9733   9731   9730   9741     1  180.0000771  0.8368000  1
   9733   9731   9730   9741     1  180.0000771  1.0460000  2
   9733   9731   9730   9741     1  0.0000000  0.7531200  3
   9733   9731   9730   9748     1  0.0000000  0.6508444  3
   9734   9733   9731   9751     1  0.0000000  0.6508444  3
   9735   9748   9730   9741     1  180.0000771  0.4184000  2
   9735   9748   9730   9741     1  0.0000000  1.6024720  3
   9735   9734   9733   9740     1  0.0000000  0.6508444  3
   9739   9735   9734   9753     1  0.0000000  0.6508444  3
   9740   9733   9734   9753     1  0.0000000  0.6508444  3
   9740   9733   9731   9751     1  0.0000000  4.9162000  2
   9740   9733   9731   9751     1  0.0000000  0.6024960  3
   9741   9730   9731   9751     1  0.0000000  0.6508444  3
   9746   9741   9730   9748     1  0.0000000  4.9162000  2
   9746   9741   9730   9748     1  0.0000000  0.6024960  3
   9748   9735   9734   9753     1  0.0000000  0.6508444  3
   9748   9730   9731   9751     1  0.0000000  4.9162000  2
   9748   9730   9731   9751     1  0.0000000  0.6024960  3
   9754   9755   9757   9758     1  180.0000771  0.8368000  1
   9754   9755   9757   9758     1  180.0000771  1.0460000  2
   9754   9755   9757   9758     1  0.0000000  0.7531200  3
   9754   9755   9757   9764     1  0.0000000  0.6508444  3
   9754   9772   9759   9763     1  0.0000000  1.6038667  3
   9754   9772   9759   9758     1  180.0000771  0.4184000  2
   9754   9772   9759   9758     1  0.0000000  1.6024720  3
   9755   9757   9758   9759     1  180.0000771  0.8368000  1
   9755   9757   9758   9759     1  180.0000771  1.0460000  2
   9755   9757   9758   9759     1  0.0000000  0.7531200  3
   9755   9757   9758   9777     1  0.0000000  0.6508444  3
   9755   9754   9765   9770     1  0.0000000  0.6508444  3
   9755   9754   9772   9759     1  180.0000771  0.4184000  2
   9755   9754   9772   9759     1  0.0000000  1.6024720  3
   9757   9758   9759   9763     1  0.0000000  0.6508444  3
   9757   9758   9759   9772     1  0.0000000  0.6508444  3
   9757   9755   9754   9765     1  180.0000771  0.8368000  1
   9757   9755   9754   9765     1  180.0000771  1.0460000  2
   9757   9755   9754   9765     1  0.0000000  0.7531200  3
   9757   9755   9754   9772     1  0.0000000  0.6508444  3
   9758   9757   9755   9775     1  0.0000000  0.6508444  3
   9759   9772   9754   9765     1  180.0000771  0.4184000  2
   9759   9772   9754   9765     1  0.0000000  1.6024720  3
   9759   9758   9757   9764     1  0.0000000  0.6508444  3
   9763   9759   9758   9777     1  0.0000000  0.6508444  3
   9764   9757   9758   9777     1  0.0000000  0.6508444  3
   9764   9757   9755   9775     1  0.0000000  4.9162000  2
   9764   9757   9755   9775     1  0.0000000  0.6024960  3
   9765   9754   9755   9775     1  0.0000000  0.6508444  3
   9770   9765   9754   9772     1  0.0000000  4.9162000  2
   9770   9765   9754   9772     1  0.0000000  0.6024960  3
   9772   9759   9758   9777     1  0.0000000  0.6508444  3
   9772   9754   9755   9775     1  0.0000000  4.9162000  2
   9772   9754   9755   9775     1  0.0000000  0.6024960  3
   9779   9781   9783   9787     1  0.0000000  0.6508444  3
   9781   9783   9787   9788     1  0.0000000  0.6508444  3
   9781   9783   9787   9789     1  0.0000000  0.6508444  3
   9783   9787   9788   9799     1  0.0000000  0.6508444  3
   9783   9787   9789   9791     1  0.0000000  0.6508444  3
   9787   9788   9799   9802     1  0.0000000  0.6508444  3
   9787   9789   9791   9795     1  0.0000000  0.6508444  3
   9788   9787   9789   9791     1  0.0000000  0.6508444  3
   9788   9799   9802   9803     1  180.0000771  0.0000000  2
   9788   9799   9802   9851     1  180.0000771  0.0000000  2
   9789   9787   9788   9799     1  0.0000000  0.6508444  3
   9789   9791   9795   9796     1  180.0000771  0.0000000  2
   9789   9791   9795   9827     1  180.0000771  0.0000000  2
   9791   9795   9827   9808     1  180.0000771  6.0668000  2
   9791   9795   9827   9808     1  180.0000771  1.4644000  4
   9795   9827   9808   9807     1  0.0000000  1.2552000  3
   9795   9827   9808   9809     1  0.0000000  1.2552000  3
   9796   9795   9827   9808     1  180.0000771  6.0668000  2
   9796   9795   9827   9808     1  180.0000771  1.4644000  4
   9799   9802   9851   9832     1  180.0000771  6.0668000  2
   9799   9802   9851   9832     1  180.0000771  1.4644000  4
   9802   9851   9832   9831     1  0.0000000  1.2552000  3
   9802   9851   9832   9833     1  0.0000000  1.2552000  3
   9803   9802   9851   9832     1  180.0000771  6.0668000  2
   9803   9802   9851   9832     1  180.0000771  1.4644000  4
   9804   9805   9807   9808     1  180.0000771  0.8368000  1
   9804   9805   9807   9808     1  180.0000771  1.0460000  2
   9804   9805   9807   9808     1  0.0000000  0.7531200  3
   9804   9805   9807   9814     1  0.0000000  0.6508444  3
   9804   9822   9809   9808     1  180.0000771  0.4184000  2
   9804   9822   9809   9808     1  0.0000000  1.6024720  3
   9804   9822   9809   9813     1  0.0000000  1.6038667  3
   9805   9804   9815   9820     1  0.0000000  0.6508444  3
   9805   9804   9822   9809     1  180.0000771  0.4184000  2
   9805   9804   9822   9809     1  0.0000000  1.6024720  3
   9805   9807   9808   9809     1  180.0000771  0.8368000  1
   9805   9807   9808   9809     1  180.0000771  1.0460000  2
   9805   9807   9808   9809     1  0.0000000  0.7531200  3
   9805   9807   9808   9827     1  0.0000000  0.6508444  3
   9807   9805   9804   9815     1  180.0000771  0.8368000  1
   9807   9805   9804   9815     1  180.0000771  1.0460000  2
   9807   9805   9804   9815     1  0.0000000  0.7531200  3
   9807   9805   9804   9822     1  0.0000000  0.6508444  3
   9807   9808   9809   9813     1  0.0000000  0.6508444  3
   9807   9808   9809   9822     1  0.0000000  0.6508444  3
   9808   9807   9805   9825     1  0.0000000  0.6508444  3
   9809   9808   9807   9814     1  0.0000000  0.6508444  3
   9809   9822   9804   9815     1  180.0000771  0.4184000  2
   9809   9822   9804   9815     1  0.0000000  1.6024720  3
   9813   9809   9808   9827     1  0.0000000  0.6508444  3
   9814   9807   9805   9825     1  0.0000000  4.9162000  2
   9814   9807   9805   9825     1  0.0000000  0.6024960  3
   9814   9807   9808   9827     1  0.0000000  0.6508444  3
   9815   9804   9805   9825     1  0.0000000  0.6508444  3
   9820   9815   9804   9822     1  0.0000000  4.9162000  2
   9820   9815   9804   9822     1  0.0000000  0.6024960  3
   9822   9804   9805   9825     1  0.0000000  4.9162000  2
   9822   9804   9805   9825     1  0.0000000  0.6024960  3
   9822   9809   9808   9827     1  0.0000000  0.6508444  3
   9828   9829   9831   9832     1  180.0000771  0.8368000  1
   9828   9829   9831   9832     1  180.0000771  1.0460000  2
   9828   9829   9831   9832     1  0.0000000  0.7531200  3
   9828   9829   9831   9838     1  0.0000000  0.6508444  3
   9828   9846   9833   9832     1  180.0000771  0.4184000  2
   9828   9846   9833   9832     1  0.0000000  1.6024720  3
   9828   9846   9833   9837     1  0.0000000  1.6038667  3
   9829   9828   9839   9844     1  0.0000000  0.6508444  3
   9829   9828   9846   9833     1  180.0000771  0.4184000  2
   9829   9828   9846   9833     1  0.0000000  1.6024720  3
   9829   9831   9832   9833     1  180.0000771  0.8368000  1
   9829   9831   9832   9833     1  180.0000771  1.0460000  2
   9829   9831   9832   9833     1  0.0000000  0.7531200  3
   9829   9831   9832   9851     1  0.0000000  0.6508444  3
   9831   9829   9828   9839     1  180.0000771  0.8368000  1
   9831   9829   9828   9839     1  180.0000771  1.0460000  2
   9831   9829   9828   9839     1  0.0000000  0.7531200  3
   9831   9829   9828   9846     1  0.0000000  0.6508444  3
   9831   9832   9833   9837     1  0.0000000  0.6508444  3
   9831   9832   9833   9846     1  0.0000000  0.6508444  3
   9832   9831   9829   9849     1  0.0000000  0.6508444  3
   9833   9832   9831   9838     1  0.0000000  0.6508444  3
   9833   9846   9828   9839     1  180.0000771  0.4184000  2
   9833   9846   9828   9839     1  0.0000000  1.6024720  3
   9837   9833   9832   9851     1  0.0000000  0.6508444  3
   9838   9831   9829   9849     1  0.0000000  4.9162000  2
   9838   9831   9829   9849     1  0.0000000  0.6024960  3
   9838   9831   9832   9851     1  0.0000000  0.6508444  3
   9839   9828   9829   9849     1  0.0000000  0.6508444  3
   9844   9839   9828   9846     1  0.0000000  4.9162000  2
   9844   9839   9828   9846     1  0.0000000  0.6024960  3
   9846   9828   9829   9849     1  0.0000000  4.9162000  2
   9846   9828   9829   9849     1  0.0000000  0.6024960  3
   9846   9833   9832   9851     1  0.0000000  0.6508444  3
   9853   9855   9857   9861     1  0.0000000  0.6508444  3
   9855   9857   9861   9862     1  0.0000000  0.6508444  3
   9855   9857   9861   9863     1  0.0000000  0.6508444  3
   9857   9861   9862   9873     1  0.0000000  0.6508444  3
   9857   9861   9863   9865     1  0.0000000  0.6508444  3
   9861   9862   9873   9876     1  0.0000000  0.6508444  3
   9861   9863   9865   9869     1  0.0000000  0.6508444  3
   9862   9873   9876   9877     1  180.0000771  0.0000000  2
   9862   9873   9876   9925     1  180.0000771  0.0000000  2
   9862   9861   9863   9865     1  0.0000000  0.6508444  3
   9863   9865   9869   9870     1  180.0000771  0.0000000  2
   9863   9865   9869   9901     1  180.0000771  0.0000000  2
   9863   9861   9862   9873     1  0.0000000  0.6508444  3
   9865   9869   9901   9882     1  180.0000771  6.0668000  2
   9865   9869   9901   9882     1  180.0000771  1.4644000  4
   9869   9901   9882   9883     1  0.0000000  1.2552000  3
   9869   9901   9882   9881     1  0.0000000  1.2552000  3
   9870   9869   9901   9882     1  180.0000771  6.0668000  2
   9870   9869   9901   9882     1  180.0000771  1.4644000  4
   9873   9876   9925   9906     1  180.0000771  6.0668000  2
   9873   9876   9925   9906     1  180.0000771  1.4644000  4
   9876   9925   9906   9907     1  0.0000000  1.2552000  3
   9876   9925   9906   9905     1  0.0000000  1.2552000  3
   9877   9876   9925   9906     1  180.0000771  6.0668000  2
   9877   9876   9925   9906     1  180.0000771  1.4644000  4
   9878   9879   9881   9882     1  180.0000771  0.8368000  1
   9878   9879   9881   9882     1  180.0000771  1.0460000  2
   9878   9879   9881   9882     1  0.0000000  0.7531200  3
   9878   9879   9881   9888     1  0.0000000  0.6508444  3
   9878   9896   9883   9887     1  0.0000000  1.6038667  3
   9878   9896   9883   9882     1  180.0000771  0.4184000  2
   9878   9896   9883   9882     1  0.0000000  1.6024720  3
   9879   9881   9882   9883     1  180.0000771  0.8368000  1
   9879   9881   9882   9883     1  180.0000771  1.0460000  2
   9879   9881   9882   9883     1  0.0000000  0.7531200  3
   9879   9881   9882   9901     1  0.0000000  0.6508444  3
   9879   9878   9889   9894     1  0.0000000  0.6508444  3
   9879   9878   9896   9883     1  180.0000771  0.4184000  2
   9879   9878   9896   9883     1  0.0000000  1.6024720  3
   9881   9882   9883   9887     1  0.0000000  0.6508444  3
   9881   9882   9883   9896     1  0.0000000  0.6508444  3
   9881   9879   9878   9889     1  180.0000771  0.8368000  1
   9881   9879   9878   9889     1  180.0000771  1.0460000  2
   9881   9879   9878   9889     1  0.0000000  0.7531200  3
   9881   9879   9878   9896     1  0.0000000  0.6508444  3
   9882   9881   9879   9899     1  0.0000000  0.6508444  3
   9883   9896   9878   9889     1  180.0000771  0.4184000  2
   9883   9896   9878   9889     1  0.0000000  1.6024720  3
   9883   9882   9881   9888     1  0.0000000  0.6508444  3
   9887   9883   9882   9901     1  0.0000000  0.6508444  3
   9888   9881   9882   9901     1  0.0000000  0.6508444  3
   9888   9881   9879   9899     1  0.0000000  4.9162000  2
   9888   9881   9879   9899     1  0.0000000  0.6024960  3
   9889   9878   9879   9899     1  0.0000000  0.6508444  3
   9894   9889   9878   9896     1  0.0000000  4.9162000  2
   9894   9889   9878   9896     1  0.0000000  0.6024960  3
   9896   9883   9882   9901     1  0.0000000  0.6508444  3
   9896   9878   9879   9899     1  0.0000000  4.9162000  2
   9896   9878   9879   9899     1  0.0000000  0.6024960  3
   9902   9903   9905   9906     1  180.0000771  0.8368000  1
   9902   9903   9905   9906     1  180.0000771  1.0460000  2
   9902   9903   9905   9906     1  0.0000000  0.7531200  3
   9902   9903   9905   9912     1  0.0000000  0.6508444  3
   9902   9920   9907   9911     1  0.0000000  1.6038667  3
   9902   9920   9907   9906     1  180.0000771  0.4184000  2
   9902   9920   9907   9906     1  0.0000000  1.6024720  3
   9903   9905   9906   9907     1  180.0000771  0.8368000  1
   9903   9905   9906   9907     1  180.0000771  1.0460000  2
   9903   9905   9906   9907     1  0.0000000  0.7531200  3
   9903   9905   9906   9925     1  0.0000000  0.6508444  3
   9903   9902   9913   9918     1  0.0000000  0.6508444  3
   9903   9902   9920   9907     1  180.0000771  0.4184000  2
   9903   9902   9920   9907     1  0.0000000  1.6024720  3
   9905   9906   9907   9911     1  0.0000000  0.6508444  3
   9905   9906   9907   9920     1  0.0000000  0.6508444  3
   9905   9903   9902   9913     1  180.0000771  0.8368000  1
   9905   9903   9902   9913     1  180.0000771  1.0460000  2
   9905   9903   9902   9913     1  0.0000000  0.7531200  3
   9905   9903   9902   9920     1  0.0000000  0.6508444  3
   9906   9905   9903   9923     1  0.0000000  0.6508444  3
   9907   9920   9902   9913     1  180.0000771  0.4184000  2
   9907   9920   9902   9913     1  0.0000000  1.6024720  3
   9907   9906   9905   9912     1  0.0000000  0.6508444  3
   9911   9907   9906   9925     1  0.0000000  0.6508444  3
   9912   9905   9906   9925     1  0.0000000  0.6508444  3
   9912   9905   9903   9923     1  0.0000000  4.9162000  2
   9912   9905   9903   9923     1  0.0000000  0.6024960  3
   9913   9902   9903   9923     1  0.0000000  0.6508444  3
   9918   9913   9902   9920     1  0.0000000  4.9162000  2
   9918   9913   9902   9920     1  0.0000000  0.6024960  3
   9920   9907   9906   9925     1  0.0000000  0.6508444  3
   9920   9902   9903   9923     1  0.0000000  4.9162000  2
   9920   9902   9903   9923     1  0.0000000  0.6024960  3
   9927   9929   9931   9935     1  0.0000000  0.6508444  3
   9929   9931   9935   9936     1  0.0000000  0.6508444  3
   9929   9931   9935   9937     1  0.0000000  0.6508444  3
   9931   9935   9936   9947     1  0.0000000  0.6508444  3
   9931   9935   9937   9939     1  0.0000000  0.6508444  3
   9935   9936   9947   9950     1  0.0000000  0.6508444  3
   9935   9937   9939   9943     1  0.0000000  0.6508444  3
   9936   9935   9937   9939     1  0.0000000  0.6508444  3
   9936   9947   9950   9951     1  180.0000771  0.0000000  2
   9936   9947   9950   9999     1  180.0000771  0.0000000  2
   9937   9935   9936   9947     1  0.0000000  0.6508444  3
   9937   9939   9943   9944     1  180.0000771  0.0000000  2
   9937   9939   9943   9975     1  180.0000771  0.0000000  2
   9939   9943   9975   9956     1  180.0000771  6.0668000  2
   9939   9943   9975   9956     1  180.0000771  1.4644000  4
   9943   9975   9956   9955     1  0.0000000  1.2552000  3
   9943   9975   9956   9957     1  0.0000000  1.2552000  3
   9944   9943   9975   9956     1  180.0000771  6.0668000  2
   9944   9943   9975   9956     1  180.0000771  1.4644000  4
   9947   9950   9999   9980     1  180.0000771  6.0668000  2
   9947   9950   9999   9980     1  180.0000771  1.4644000  4
   9950   9999   9980   9979     1  0.0000000  1.2552000  3
   9950   9999   9980   9981     1  0.0000000  1.2552000  3
   9951   9950   9999   9980     1  180.0000771  6.0668000  2
   9951   9950   9999   9980     1  180.0000771  1.4644000  4
   9952   9953   9955   9956     1  180.0000771  0.8368000  1
   9952   9953   9955   9956     1  180.0000771  1.0460000  2
   9952   9953   9955   9956     1  0.0000000  0.7531200  3
   9952   9953   9955   9962     1  0.0000000  0.6508444  3
   9952   9970   9957   9956     1  180.0000771  0.4184000  2
   9952   9970   9957   9956     1  0.0000000  1.6024720  3
   9952   9970   9957   9961     1  0.0000000  1.6038667  3
   9953   9952   9963   9968     1  0.0000000  0.6508444  3
   9953   9952   9970   9957     1  180.0000771  0.4184000  2
   9953   9952   9970   9957     1  0.0000000  1.6024720  3
   9953   9955   9956   9957     1  180.0000771  0.8368000  1
   9953   9955   9956   9957     1  180.0000771  1.0460000  2
   9953   9955   9956   9957     1  0.0000000  0.7531200  3
   9953   9955   9956   9975     1  0.0000000  0.6508444  3
   9955   9953   9952   9963     1  180.0000771  0.8368000  1
   9955   9953   9952   9963     1  180.0000771  1.0460000  2
   9955   9953   9952   9963     1  0.0000000  0.7531200  3
   9955   9953   9952   9970     1  0.0000000  0.6508444  3
   9955   9956   9957   9961     1  0.0000000  0.6508444  3
   9955   9956   9957   9970     1  0.0000000  0.6508444  3
   9956   9955   9953   9973     1  0.0000000  0.6508444  3
   9957   9956   9955   9962     1  0.0000000  0.6508444  3
   9957   9970   9952   9963     1  180.0000771  0.4184000  2
   9957   9970   9952   9963     1  0.0000000  1.6024720  3
   9961   9957   9956   9975     1  0.0000000  0.6508444  3
   9962   9955   9953   9973     1  0.0000000  4.9162000  2
   9962   9955   9953   9973     1  0.0000000  0.6024960  3
   9962   9955   9956   9975     1  0.0000000  0.6508444  3
   9963   9952   9953   9973     1  0.0000000  0.6508444  3
   9968   9963   9952   9970     1  0.0000000  4.9162000  2
   9968   9963   9952   9970     1  0.0000000  0.6024960  3
   9970   9952   9953   9973     1  0.0000000  4.9162000  2
   9970   9952   9953   9973     1  0.0000000  0.6024960  3
   9970   9957   9956   9975     1  0.0000000  0.6508444  3
   9976   9977   9979   9980     1  180.0000771  0.8368000  1
   9976   9977   9979   9980     1  180.0000771  1.0460000  2
   9976   9977   9979   9980     1  0.0000000  0.7531200  3
   9976   9977   9979   9986     1  0.0000000  0.6508444  3
   9976   9994   9981   9980     1  180.0000771  0.4184000  2
   9976   9994   9981   9980     1  0.0000000  1.6024720  3
   9976   9994   9981   9985     1  0.0000000  1.6038667  3
   9977   9976   9987   9992     1  0.0000000  0.6508444  3
   9977   9976   9994   9981     1  180.0000771  0.4184000  2
   9977   9976   9994   9981     1  0.0000000  1.6024720  3
   9977   9979   9980   9981     1  180.0000771  0.8368000  1
   9977   9979   9980   9981     1  180.0000771  1.0460000  2
   9977   9979   9980   9981     1  0.0000000  0.7531200  3
   9977   9979   9980   9999     1  0.0000000  0.6508444  3
   9979   9977   9976   9987     1  180.0000771  0.8368000  1
   9979   9977   9976   9987     1  180.0000771  1.0460000  2
   9979   9977   9976   9987     1  0.0000000  0.7531200  3
   9979   9977   9976   9994     1  0.0000000  0.6508444  3
   9979   9980   9981   9985     1  0.0000000  0.6508444  3
   9979   9980   9981   9994     1  0.0000000  0.6508444  3
   9980   9979   9977   9997     1  0.0000000  0.6508444  3
   9981   9980   9979   9986     1  0.0000000  0.6508444  3
   9981   9994   9976   9987     1  180.0000771  0.4184000  2
   9981   9994   9976   9987     1  0.0000000  1.6024720  3
   9985   9981   9980   9999     1  0.0000000  0.6508444  3
   9986   9979   9977   9997     1  0.0000000  4.9162000  2
   9986   9979   9977   9997     1  0.0000000  0.6024960  3
   9986   9979   9980   9999     1  0.0000000  0.6508444  3
   9987   9976   9977   9997     1  0.0000000  0.6508444  3
   9992   9987   9976   9994     1  0.0000000  4.9162000  2
   9992   9987   9976   9994     1  0.0000000  0.6024960  3
   9994   9976   9977   9997     1  0.0000000  4.9162000  2
   9994   9976   9977   9997     1  0.0000000  0.6024960  3
   9994   9981   9980   9999     1  0.0000000  0.6508444  3
  10001  10003  10005  10009     1  0.0000000  0.6508444  3
  10003  10005  10009  10010     1  0.0000000  0.6508444  3
  10003  10005  10009  10011     1  0.0000000  0.6508444  3
  10005  10009  10010  10021     1  0.0000000  0.6508444  3
  10005  10009  10011  10013     1  0.0000000  0.6508444  3
  10009  10010  10021  10024     1  0.0000000  0.6508444  3
  10009  10011  10013  10017     1  0.0000000  0.6508444  3
  10010  10021  10024  10025     1  180.0000771  0.0000000  2
  10010  10021  10024  10073     1  180.0000771  0.0000000  2
  10010  10009  10011  10013     1  0.0000000  0.6508444  3
  10011  10013  10017  10018     1  180.0000771  0.0000000  2
  10011  10013  10017  10049     1  180.0000771  0.0000000  2
  10011  10009  10010  10021     1  0.0000000  0.6508444  3
  10013  10017  10049  10030     1  180.0000771  6.0668000  2
  10013  10017  10049  10030     1  180.0000771  1.4644000  4
  10017  10049  10030  10031     1  0.0000000  1.2552000  3
  10017  10049  10030  10029     1  0.0000000  1.2552000  3
  10018  10017  10049  10030     1  180.0000771  6.0668000  2
  10018  10017  10049  10030     1  180.0000771  1.4644000  4
  10021  10024  10073  10054     1  180.0000771  6.0668000  2
  10021  10024  10073  10054     1  180.0000771  1.4644000  4
  10024  10073  10054  10055     1  0.0000000  1.2552000  3
  10024  10073  10054  10053     1  0.0000000  1.2552000  3
  10025  10024  10073  10054     1  180.0000771  6.0668000  2
  10025  10024  10073  10054     1  180.0000771  1.4644000  4
  10026  10027  10029  10030     1  180.0000771  0.8368000  1
  10026  10027  10029  10030     1  180.0000771  1.0460000  2
  10026  10027  10029  10030     1  0.0000000  0.7531200  3
  10026  10027  10029  10036     1  0.0000000  0.6508444  3
  10026  10044  10031  10035     1  0.0000000  1.6038667  3
  10026  10044  10031  10030     1  180.0000771  0.4184000  2
  10026  10044  10031  10030     1  0.0000000  1.6024720  3
  10027  10029  10030  10031     1  180.0000771  0.8368000  1
  10027  10029  10030  10031     1  180.0000771  1.0460000  2
  10027  10029  10030  10031     1  0.0000000  0.7531200  3
  10027  10029  10030  10049     1  0.0000000  0.6508444  3
  10027  10026  10037  10042     1  0.0000000  0.6508444  3
  10027  10026  10044  10031     1  180.0000771  0.4184000  2
  10027  10026  10044  10031     1  0.0000000  1.6024720  3
  10029  10030  10031  10035     1  0.0000000  0.6508444  3
  10029  10030  10031  10044     1  0.0000000  0.6508444  3
  10029  10027  10026  10037     1  180.0000771  0.8368000  1
  10029  10027  10026  10037     1  180.0000771  1.0460000  2
  10029  10027  10026  10037     1  0.0000000  0.7531200  3
  10029  10027  10026  10044     1  0.0000000  0.6508444  3
  10030  10029  10027  10047     1  0.0000000  0.6508444  3
  10031  10044  10026  10037     1  180.0000771  0.4184000  2
  10031  10044  10026  10037     1  0.0000000  1.6024720  3
  10031  10030  10029  10036     1  0.0000000  0.6508444  3
  10035  10031  10030  10049     1  0.0000000  0.6508444  3
  10036  10029  10030  10049     1  0.0000000  0.6508444  3
  10036  10029  10027  10047     1  0.0000000  4.9162000  2
  10036  10029  10027  10047     1  0.0000000  0.6024960  3
  10037  10026  10027  10047     1  0.0000000  0.6508444  3
  10042  10037  10026  10044     1  0.0000000  4.9162000  2
  10042  10037  10026  10044     1  0.0000000  0.6024960  3
  10044  10031  10030  10049     1  0.0000000  0.6508444  3
  10044  10026  10027  10047     1  0.0000000  4.9162000  2
  10044  10026  10027  10047     1  0.0000000  0.6024960  3
  10050  10051  10053  10054     1  180.0000771  0.8368000  1
  10050  10051  10053  10054     1  180.0000771  1.0460000  2
  10050  10051  10053  10054     1  0.0000000  0.7531200  3
  10050  10051  10053  10060     1  0.0000000  0.6508444  3
  10050  10068  10055  10059     1  0.0000000  1.6038667  3
  10050  10068  10055  10054     1  180.0000771  0.4184000  2
  10050  10068  10055  10054     1  0.0000000  1.6024720  3
  10051  10053  10054  10055     1  180.0000771  0.8368000  1
  10051  10053  10054  10055     1  180.0000771  1.0460000  2
  10051  10053  10054  10055     1  0.0000000  0.7531200  3
  10051  10053  10054  10073     1  0.0000000  0.6508444  3
  10051  10050  10061  10066     1  0.0000000  0.6508444  3
  10051  10050  10068  10055     1  180.0000771  0.4184000  2
  10051  10050  10068  10055     1  0.0000000  1.6024720  3
  10053  10054  10055  10059     1  0.0000000  0.6508444  3
  10053  10054  10055  10068     1  0.0000000  0.6508444  3
  10053  10051  10050  10061     1  180.0000771  0.8368000  1
  10053  10051  10050  10061     1  180.0000771  1.0460000  2
  10053  10051  10050  10061     1  0.0000000  0.7531200  3
  10053  10051  10050  10068     1  0.0000000  0.6508444  3
  10054  10053  10051  10071     1  0.0000000  0.6508444  3
  10055  10068  10050  10061     1  180.0000771  0.4184000  2
  10055  10068  10050  10061     1  0.0000000  1.6024720  3
  10055  10054  10053  10060     1  0.0000000  0.6508444  3
  10059  10055  10054  10073     1  0.0000000  0.6508444  3
  10060  10053  10054  10073     1  0.0000000  0.6508444  3
  10060  10053  10051  10071     1  0.0000000  4.9162000  2
  10060  10053  10051  10071     1  0.0000000  0.6024960  3
  10061  10050  10051  10071     1  0.0000000  0.6508444  3
  10066  10061  10050  10068     1  0.0000000  4.9162000  2
  10066  10061  10050  10068     1  0.0000000  0.6024960  3
  10068  10055  10054  10073     1  0.0000000  0.6508444  3
  10068  10050  10051  10071     1  0.0000000  4.9162000  2
  10068  10050  10051  10071     1  0.0000000  0.6024960  3
  10075  10077  10079  10083     1  0.0000000  0.6508444  3
  10077  10079  10083  10084     1  0.0000000  0.6508444  3
  10077  10079  10083  10085     1  0.0000000  0.6508444  3
  10079  10083  10084  10095     1  0.0000000  0.6508444  3
  10079  10083  10085  10087     1  0.0000000  0.6508444  3
  10083  10084  10095  10098     1  0.0000000  0.6508444  3
  10083  10085  10087  10091     1  0.0000000  0.6508444  3
  10084  10083  10085  10087     1  0.0000000  0.6508444  3
  10084  10095  10098  10099     1  180.0000771  0.0000000  2
  10084  10095  10098  10147     1  180.0000771  0.0000000  2
  10085  10083  10084  10095     1  0.0000000  0.6508444  3
  10085  10087  10091  10092     1  180.0000771  0.0000000  2
  10085  10087  10091  10123     1  180.0000771  0.0000000  2
  10087  10091  10123  10104     1  180.0000771  6.0668000  2
  10087  10091  10123  10104     1  180.0000771  1.4644000  4
  10091  10123  10104  10103     1  0.0000000  1.2552000  3
  10091  10123  10104  10105     1  0.0000000  1.2552000  3
  10092  10091  10123  10104     1  180.0000771  6.0668000  2
  10092  10091  10123  10104     1  180.0000771  1.4644000  4
  10095  10098  10147  10128     1  180.0000771  6.0668000  2
  10095  10098  10147  10128     1  180.0000771  1.4644000  4
  10098  10147  10128  10127     1  0.0000000  1.2552000  3
  10098  10147  10128  10129     1  0.0000000  1.2552000  3
  10099  10098  10147  10128     1  180.0000771  6.0668000  2
  10099  10098  10147  10128     1  180.0000771  1.4644000  4
  10100  10101  10103  10104     1  180.0000771  0.8368000  1
  10100  10101  10103  10104     1  180.0000771  1.0460000  2
  10100  10101  10103  10104     1  0.0000000  0.7531200  3
  10100  10101  10103  10110     1  0.0000000  0.6508444  3
  10100  10118  10105  10104     1  180.0000771  0.4184000  2
  10100  10118  10105  10104     1  0.0000000  1.6024720  3
  10100  10118  10105  10109     1  0.0000000  1.6038667  3
  10101  10100  10111  10116     1  0.0000000  0.6508444  3
  10101  10100  10118  10105     1  180.0000771  0.4184000  2
  10101  10100  10118  10105     1  0.0000000  1.6024720  3
  10101  10103  10104  10105     1  180.0000771  0.8368000  1
  10101  10103  10104  10105     1  180.0000771  1.0460000  2
  10101  10103  10104  10105     1  0.0000000  0.7531200  3
  10101  10103  10104  10123     1  0.0000000  0.6508444  3
  10103  10101  10100  10111     1  180.0000771  0.8368000  1
  10103  10101  10100  10111     1  180.0000771  1.0460000  2
  10103  10101  10100  10111     1  0.0000000  0.7531200  3
  10103  10101  10100  10118     1  0.0000000  0.6508444  3
  10103  10104  10105  10109     1  0.0000000  0.6508444  3
  10103  10104  10105  10118     1  0.0000000  0.6508444  3
  10104  10103  10101  10121     1  0.0000000  0.6508444  3
  10105  10104  10103  10110     1  0.0000000  0.6508444  3
  10105  10118  10100  10111     1  180.0000771  0.4184000  2
  10105  10118  10100  10111     1  0.0000000  1.6024720  3
  10109  10105  10104  10123     1  0.0000000  0.6508444  3
  10110  10103  10101  10121     1  0.0000000  4.9162000  2
  10110  10103  10101  10121     1  0.0000000  0.6024960  3
  10110  10103  10104  10123     1  0.0000000  0.6508444  3
  10111  10100  10101  10121     1  0.0000000  0.6508444  3
  10116  10111  10100  10118     1  0.0000000  4.9162000  2
  10116  10111  10100  10118     1  0.0000000  0.6024960  3
  10118  10100  10101  10121     1  0.0000000  4.9162000  2
  10118  10100  10101  10121     1  0.0000000  0.6024960  3
  10118  10105  10104  10123     1  0.0000000  0.6508444  3
  10124  10125  10127  10128     1  180.0000771  0.8368000  1
  10124  10125  10127  10128     1  180.0000771  1.0460000  2
  10124  10125  10127  10128     1  0.0000000  0.7531200  3
  10124  10125  10127  10134     1  0.0000000  0.6508444  3
  10124  10142  10129  10128     1  180.0000771  0.4184000  2
  10124  10142  10129  10128     1  0.0000000  1.6024720  3
  10124  10142  10129  10133     1  0.0000000  1.6038667  3
  10125  10124  10135  10140     1  0.0000000  0.6508444  3
  10125  10124  10142  10129     1  180.0000771  0.4184000  2
  10125  10124  10142  10129     1  0.0000000  1.6024720  3
  10125  10127  10128  10129     1  180.0000771  0.8368000  1
  10125  10127  10128  10129     1  180.0000771  1.0460000  2
  10125  10127  10128  10129     1  0.0000000  0.7531200  3
  10125  10127  10128  10147     1  0.0000000  0.6508444  3
  10127  10125  10124  10135     1  180.0000771  0.8368000  1
  10127  10125  10124  10135     1  180.0000771  1.0460000  2
  10127  10125  10124  10135     1  0.0000000  0.7531200  3
  10127  10125  10124  10142     1  0.0000000  0.6508444  3
  10127  10128  10129  10133     1  0.0000000  0.6508444  3
  10127  10128  10129  10142     1  0.0000000  0.6508444  3
  10128  10127  10125  10145     1  0.0000000  0.6508444  3
  10129  10128  10127  10134     1  0.0000000  0.6508444  3
  10129  10142  10124  10135     1  180.0000771  0.4184000  2
  10129  10142  10124  10135     1  0.0000000  1.6024720  3
  10133  10129  10128  10147     1  0.0000000  0.6508444  3
  10134  10127  10125  10145     1  0.0000000  4.9162000  2
  10134  10127  10125  10145     1  0.0000000  0.6024960  3
  10134  10127  10128  10147     1  0.0000000  0.6508444  3
  10135  10124  10125  10145     1  0.0000000  0.6508444  3
  10140  10135  10124  10142     1  0.0000000  4.9162000  2
  10140  10135  10124  10142     1  0.0000000  0.6024960  3
  10142  10124  10125  10145     1  0.0000000  4.9162000  2
  10142  10124  10125  10145     1  0.0000000  0.6024960  3
  10142  10129  10128  10147     1  0.0000000  0.6508444  3
  10149  10151  10153  10157     1  0.0000000  0.6508444  3
  10151  10153  10157  10158     1  0.0000000  0.6508444  3
  10151  10153  10157  10159     1  0.0000000  0.6508444  3
  10153  10157  10158  10169     1  0.0000000  0.6508444  3
  10153  10157  10159  10161     1  0.0000000  0.6508444  3
  10157  10158  10169  10172     1  0.0000000  0.6508444  3
  10157  10159  10161  10165     1  0.0000000  0.6508444  3
  10158  10169  10172  10173     1  180.0000771  0.0000000  2
  10158  10169  10172  10221     1  180.0000771  0.0000000  2
  10158  10157  10159  10161     1  0.0000000  0.6508444  3
  10159  10161  10165  10166     1  180.0000771  0.0000000  2
  10159  10161  10165  10197     1  180.0000771  0.0000000  2
  10159  10157  10158  10169     1  0.0000000  0.6508444  3
  10161  10165  10197  10178     1  180.0000771  6.0668000  2
  10161  10165  10197  10178     1  180.0000771  1.4644000  4
  10165  10197  10178  10179     1  0.0000000  1.2552000  3
  10165  10197  10178  10177     1  0.0000000  1.2552000  3
  10166  10165  10197  10178     1  180.0000771  6.0668000  2
  10166  10165  10197  10178     1  180.0000771  1.4644000  4
  10169  10172  10221  10202     1  180.0000771  6.0668000  2
  10169  10172  10221  10202     1  180.0000771  1.4644000  4
  10172  10221  10202  10203     1  0.0000000  1.2552000  3
  10172  10221  10202  10201     1  0.0000000  1.2552000  3
  10173  10172  10221  10202     1  180.0000771  6.0668000  2
  10173  10172  10221  10202     1  180.0000771  1.4644000  4
  10174  10175  10177  10178     1  180.0000771  0.8368000  1
  10174  10175  10177  10178     1  180.0000771  1.0460000  2
  10174  10175  10177  10178     1  0.0000000  0.7531200  3
  10174  10175  10177  10184     1  0.0000000  0.6508444  3
  10174  10192  10179  10183     1  0.0000000  1.6038667  3
  10174  10192  10179  10178     1  180.0000771  0.4184000  2
  10174  10192  10179  10178     1  0.0000000  1.6024720  3
  10175  10177  10178  10179     1  180.0000771  0.8368000  1
  10175  10177  10178  10179     1  180.0000771  1.0460000  2
  10175  10177  10178  10179     1  0.0000000  0.7531200  3
  10175  10177  10178  10197     1  0.0000000  0.6508444  3
  10175  10174  10185  10190     1  0.0000000  0.6508444  3
  10175  10174  10192  10179     1  180.0000771  0.4184000  2
  10175  10174  10192  10179     1  0.0000000  1.6024720  3
  10177  10178  10179  10183     1  0.0000000  0.6508444  3
  10177  10178  10179  10192     1  0.0000000  0.6508444  3
  10177  10175  10174  10185     1  180.0000771  0.8368000  1
  10177  10175  10174  10185     1  180.0000771  1.0460000  2
  10177  10175  10174  10185     1  0.0000000  0.7531200  3
  10177  10175  10174  10192     1  0.0000000  0.6508444  3
  10178  10177  10175  10195     1  0.0000000  0.6508444  3
  10179  10192  10174  10185     1  180.0000771  0.4184000  2
  10179  10192  10174  10185     1  0.0000000  1.6024720  3
  10179  10178  10177  10184     1  0.0000000  0.6508444  3
  10183  10179  10178  10197     1  0.0000000  0.6508444  3
  10184  10177  10178  10197     1  0.0000000  0.6508444  3
  10184  10177  10175  10195     1  0.0000000  4.9162000  2
  10184  10177  10175  10195     1  0.0000000  0.6024960  3
  10185  10174  10175  10195     1  0.0000000  0.6508444  3
  10190  10185  10174  10192     1  0.0000000  4.9162000  2
  10190  10185  10174  10192     1  0.0000000  0.6024960  3
  10192  10179  10178  10197     1  0.0000000  0.6508444  3
  10192  10174  10175  10195     1  0.0000000  4.9162000  2
  10192  10174  10175  10195     1  0.0000000  0.6024960  3
  10198  10199  10201  10202     1  180.0000771  0.8368000  1
  10198  10199  10201  10202     1  180.0000771  1.0460000  2
  10198  10199  10201  10202     1  0.0000000  0.7531200  3
  10198  10199  10201  10208     1  0.0000000  0.6508444  3
  10198  10216  10203  10207     1  0.0000000  1.6038667  3
  10198  10216  10203  10202     1  180.0000771  0.4184000  2
  10198  10216  10203  10202     1  0.0000000  1.6024720  3
  10199  10201  10202  10203     1  180.0000771  0.8368000  1
  10199  10201  10202  10203     1  180.0000771  1.0460000  2
  10199  10201  10202  10203     1  0.0000000  0.7531200  3
  10199  10201  10202  10221     1  0.0000000  0.6508444  3
  10199  10198  10209  10214     1  0.0000000  0.6508444  3
  10199  10198  10216  10203     1  180.0000771  0.4184000  2
  10199  10198  10216  10203     1  0.0000000  1.6024720  3
  10201  10202  10203  10207     1  0.0000000  0.6508444  3
  10201  10202  10203  10216     1  0.0000000  0.6508444  3
  10201  10199  10198  10209     1  180.0000771  0.8368000  1
  10201  10199  10198  10209     1  180.0000771  1.0460000  2
  10201  10199  10198  10209     1  0.0000000  0.7531200  3
  10201  10199  10198  10216     1  0.0000000  0.6508444  3
  10202  10201  10199  10219     1  0.0000000  0.6508444  3
  10203  10216  10198  10209     1  180.0000771  0.4184000  2
  10203  10216  10198  10209     1  0.0000000  1.6024720  3
  10203  10202  10201  10208     1  0.0000000  0.6508444  3
  10207  10203  10202  10221     1  0.0000000  0.6508444  3
  10208  10201  10202  10221     1  0.0000000  0.6508444  3
  10208  10201  10199  10219     1  0.0000000  4.9162000  2
  10208  10201  10199  10219     1  0.0000000  0.6024960  3
  10209  10198  10199  10219     1  0.0000000  0.6508444  3
  10214  10209  10198  10216     1  0.0000000  4.9162000  2
  10214  10209  10198  10216     1  0.0000000  0.6024960  3
  10216  10203  10202  10221     1  0.0000000  0.6508444  3
  10216  10198  10199  10219     1  0.0000000  4.9162000  2
  10216  10198  10199  10219     1  0.0000000  0.6024960  3
  10223  10225  10227  10231     1  0.0000000  0.6508444  3
  10225  10227  10231  10232     1  0.0000000  0.6508444  3
  10225  10227  10231  10233     1  0.0000000  0.6508444  3
  10227  10231  10232  10243     1  0.0000000  0.6508444  3
  10227  10231  10233  10235     1  0.0000000  0.6508444  3
  10231  10232  10243  10246     1  0.0000000  0.6508444  3
  10231  10233  10235  10239     1  0.0000000  0.6508444  3
  10232  10231  10233  10235     1  0.0000000  0.6508444  3
  10232  10243  10246  10247     1  180.0000771  0.0000000  2
  10232  10243  10246  10295     1  180.0000771  0.0000000  2
  10233  10231  10232  10243     1  0.0000000  0.6508444  3
  10233  10235  10239  10240     1  180.0000771  0.0000000  2
  10233  10235  10239  10271     1  180.0000771  0.0000000  2
  10235  10239  10271  10252     1  180.0000771  6.0668000  2
  10235  10239  10271  10252     1  180.0000771  1.4644000  4
  10239  10271  10252  10251     1  0.0000000  1.2552000  3
  10239  10271  10252  10253     1  0.0000000  1.2552000  3
  10240  10239  10271  10252     1  180.0000771  6.0668000  2
  10240  10239  10271  10252     1  180.0000771  1.4644000  4
  10243  10246  10295  10276     1  180.0000771  6.0668000  2
  10243  10246  10295  10276     1  180.0000771  1.4644000  4
  10246  10295  10276  10275     1  0.0000000  1.2552000  3
  10246  10295  10276  10277     1  0.0000000  1.2552000  3
  10247  10246  10295  10276     1  180.0000771  6.0668000  2
  10247  10246  10295  10276     1  180.0000771  1.4644000  4
  10248  10249  10251  10252     1  180.0000771  0.8368000  1
  10248  10249  10251  10252     1  180.0000771  1.0460000  2
  10248  10249  10251  10252     1  0.0000000  0.7531200  3
  10248  10249  10251  10258     1  0.0000000  0.6508444  3
  10248  10266  10253  10252     1  180.0000771  0.4184000  2
  10248  10266  10253  10252     1  0.0000000  1.6024720  3
  10248  10266  10253  10257     1  0.0000000  1.6038667  3
  10249  10248  10259  10264     1  0.0000000  0.6508444  3
  10249  10248  10266  10253     1  180.0000771  0.4184000  2
  10249  10248  10266  10253     1  0.0000000  1.6024720  3
  10249  10251  10252  10253     1  180.0000771  0.8368000  1
  10249  10251  10252  10253     1  180.0000771  1.0460000  2
  10249  10251  10252  10253     1  0.0000000  0.7531200  3
  10249  10251  10252  10271     1  0.0000000  0.6508444  3
  10251  10249  10248  10259     1  180.0000771  0.8368000  1
  10251  10249  10248  10259     1  180.0000771  1.0460000  2
  10251  10249  10248  10259     1  0.0000000  0.7531200  3
  10251  10249  10248  10266     1  0.0000000  0.6508444  3
  10251  10252  10253  10257     1  0.0000000  0.6508444  3
  10251  10252  10253  10266     1  0.0000000  0.6508444  3
  10252  10251  10249  10269     1  0.0000000  0.6508444  3
  10253  10252  10251  10258     1  0.0000000  0.6508444  3
  10253  10266  10248  10259     1  180.0000771  0.4184000  2
  10253  10266  10248  10259     1  0.0000000  1.6024720  3
  10257  10253  10252  10271     1  0.0000000  0.6508444  3
  10258  10251  10249  10269     1  0.0000000  4.9162000  2
  10258  10251  10249  10269     1  0.0000000  0.6024960  3
  10258  10251  10252  10271     1  0.0000000  0.6508444  3
  10259  10248  10249  10269     1  0.0000000  0.6508444  3
  10264  10259  10248  10266     1  0.0000000  4.9162000  2
  10264  10259  10248  10266     1  0.0000000  0.6024960  3
  10266  10248  10249  10269     1  0.0000000  4.9162000  2
  10266  10248  10249  10269     1  0.0000000  0.6024960  3
  10266  10253  10252  10271     1  0.0000000  0.6508444  3
  10272  10273  10275  10276     1  180.0000771  0.8368000  1
  10272  10273  10275  10276     1  180.0000771  1.0460000  2
  10272  10273  10275  10276     1  0.0000000  0.7531200  3
  10272  10273  10275  10282     1  0.0000000  0.6508444  3
  10272  10290  10277  10276     1  180.0000771  0.4184000  2
  10272  10290  10277  10276     1  0.0000000  1.6024720  3
  10272  10290  10277  10281     1  0.0000000  1.6038667  3
  10273  10272  10283  10288     1  0.0000000  0.6508444  3
  10273  10272  10290  10277     1  180.0000771  0.4184000  2
  10273  10272  10290  10277     1  0.0000000  1.6024720  3
  10273  10275  10276  10277     1  180.0000771  0.8368000  1
  10273  10275  10276  10277     1  180.0000771  1.0460000  2
  10273  10275  10276  10277     1  0.0000000  0.7531200  3
  10273  10275  10276  10295     1  0.0000000  0.6508444  3
  10275  10273  10272  10283     1  180.0000771  0.8368000  1
  10275  10273  10272  10283     1  180.0000771  1.0460000  2
  10275  10273  10272  10283     1  0.0000000  0.7531200  3
  10275  10273  10272  10290     1  0.0000000  0.6508444  3
  10275  10276  10277  10281     1  0.0000000  0.6508444  3
  10275  10276  10277  10290     1  0.0000000  0.6508444  3
  10276  10275  10273  10293     1  0.0000000  0.6508444  3
  10277  10276  10275  10282     1  0.0000000  0.6508444  3
  10277  10290  10272  10283     1  180.0000771  0.4184000  2
  10277  10290  10272  10283     1  0.0000000  1.6024720  3
  10281  10277  10276  10295     1  0.0000000  0.6508444  3
  10282  10275  10273  10293     1  0.0000000  4.9162000  2
  10282  10275  10273  10293     1  0.0000000  0.6024960  3
  10282  10275  10276  10295     1  0.0000000  0.6508444  3
  10283  10272  10273  10293     1  0.0000000  0.6508444  3
  10288  10283  10272  10290     1  0.0000000  4.9162000  2
  10288  10283  10272  10290     1  0.0000000  0.6024960  3
  10290  10272  10273  10293     1  0.0000000  4.9162000  2
  10290  10272  10273  10293     1  0.0000000  0.6024960  3
  10290  10277  10276  10295     1  0.0000000  0.6508444  3
  10297  10299  10301  10305     1  0.0000000  0.6508444  3
  10299  10301  10305  10306     1  0.0000000  0.6508444  3
  10299  10301  10305  10307     1  0.0000000  0.6508444  3
  10301  10305  10306  10317     1  0.0000000  0.6508444  3
  10301  10305  10307  10309     1  0.0000000  0.6508444  3
  10305  10306  10317  10320     1  0.0000000  0.6508444  3
  10305  10307  10309  10313     1  0.0000000  0.6508444  3
  10306  10317  10320  10321     1  180.0000771  0.0000000  2
  10306  10317  10320  10369     1  180.0000771  0.0000000  2
  10306  10305  10307  10309     1  0.0000000  0.6508444  3
  10307  10309  10313  10314     1  180.0000771  0.0000000  2
  10307  10309  10313  10345     1  180.0000771  0.0000000  2
  10307  10305  10306  10317     1  0.0000000  0.6508444  3
  10309  10313  10345  10326     1  180.0000771  6.0668000  2
  10309  10313  10345  10326     1  180.0000771  1.4644000  4
  10313  10345  10326  10327     1  0.0000000  1.2552000  3
  10313  10345  10326  10325     1  0.0000000  1.2552000  3
  10314  10313  10345  10326     1  180.0000771  6.0668000  2
  10314  10313  10345  10326     1  180.0000771  1.4644000  4
  10317  10320  10369  10350     1  180.0000771  6.0668000  2
  10317  10320  10369  10350     1  180.0000771  1.4644000  4
  10320  10369  10350  10351     1  0.0000000  1.2552000  3
  10320  10369  10350  10349     1  0.0000000  1.2552000  3
  10321  10320  10369  10350     1  180.0000771  6.0668000  2
  10321  10320  10369  10350     1  180.0000771  1.4644000  4
  10322  10323  10325  10326     1  180.0000771  0.8368000  1
  10322  10323  10325  10326     1  180.0000771  1.0460000  2
  10322  10323  10325  10326     1  0.0000000  0.7531200  3
  10322  10323  10325  10332     1  0.0000000  0.6508444  3
  10322  10340  10327  10331     1  0.0000000  1.6038667  3
  10322  10340  10327  10326     1  180.0000771  0.4184000  2
  10322  10340  10327  10326     1  0.0000000  1.6024720  3
  10323  10325  10326  10327     1  180.0000771  0.8368000  1
  10323  10325  10326  10327     1  180.0000771  1.0460000  2
  10323  10325  10326  10327     1  0.0000000  0.7531200  3
  10323  10325  10326  10345     1  0.0000000  0.6508444  3
  10323  10322  10333  10338     1  0.0000000  0.6508444  3
  10323  10322  10340  10327     1  180.0000771  0.4184000  2
  10323  10322  10340  10327     1  0.0000000  1.6024720  3
  10325  10326  10327  10331     1  0.0000000  0.6508444  3
  10325  10326  10327  10340     1  0.0000000  0.6508444  3
  10325  10323  10322  10333     1  180.0000771  0.8368000  1
  10325  10323  10322  10333     1  180.0000771  1.0460000  2
  10325  10323  10322  10333     1  0.0000000  0.7531200  3
  10325  10323  10322  10340     1  0.0000000  0.6508444  3
  10326  10325  10323  10343     1  0.0000000  0.6508444  3
  10327  10340  10322  10333     1  180.0000771  0.4184000  2
  10327  10340  10322  10333     1  0.0000000  1.6024720  3
  10327  10326  10325  10332     1  0.0000000  0.6508444  3
  10331  10327  10326  10345     1  0.0000000  0.6508444  3
  10332  10325  10326  10345     1  0.0000000  0.6508444  3
  10332  10325  10323  10343     1  0.0000000  4.9162000  2
  10332  10325  10323  10343     1  0.0000000  0.6024960  3
  10333  10322  10323  10343     1  0.0000000  0.6508444  3
  10338  10333  10322  10340     1  0.0000000  4.9162000  2
  10338  10333  10322  10340     1  0.0000000  0.6024960  3
  10340  10327  10326  10345     1  0.0000000  0.6508444  3
  10340  10322  10323  10343     1  0.0000000  4.9162000  2
  10340  10322  10323  10343     1  0.0000000  0.6024960  3
  10346  10347  10349  10350     1  180.0000771  0.8368000  1
  10346  10347  10349  10350     1  180.0000771  1.0460000  2
  10346  10347  10349  10350     1  0.0000000  0.7531200  3
  10346  10347  10349  10356     1  0.0000000  0.6508444  3
  10346  10364  10351  10355     1  0.0000000  1.6038667  3
  10346  10364  10351  10350     1  180.0000771  0.4184000  2
  10346  10364  10351  10350     1  0.0000000  1.6024720  3
  10347  10349  10350  10351     1  180.0000771  0.8368000  1
  10347  10349  10350  10351     1  180.0000771  1.0460000  2
  10347  10349  10350  10351     1  0.0000000  0.7531200  3
  10347  10349  10350  10369     1  0.0000000  0.6508444  3
  10347  10346  10357  10362     1  0.0000000  0.6508444  3
  10347  10346  10364  10351     1  180.0000771  0.4184000  2
  10347  10346  10364  10351     1  0.0000000  1.6024720  3
  10349  10350  10351  10355     1  0.0000000  0.6508444  3
  10349  10350  10351  10364     1  0.0000000  0.6508444  3
  10349  10347  10346  10357     1  180.0000771  0.8368000  1
  10349  10347  10346  10357     1  180.0000771  1.0460000  2
  10349  10347  10346  10357     1  0.0000000  0.7531200  3
  10349  10347  10346  10364     1  0.0000000  0.6508444  3
  10350  10349  10347  10367     1  0.0000000  0.6508444  3
  10351  10364  10346  10357     1  180.0000771  0.4184000  2
  10351  10364  10346  10357     1  0.0000000  1.6024720  3
  10351  10350  10349  10356     1  0.0000000  0.6508444  3
  10355  10351  10350  10369     1  0.0000000  0.6508444  3
  10356  10349  10350  10369     1  0.0000000  0.6508444  3
  10356  10349  10347  10367     1  0.0000000  4.9162000  2
  10356  10349  10347  10367     1  0.0000000  0.6024960  3
  10357  10346  10347  10367     1  0.0000000  0.6508444  3
  10362  10357  10346  10364     1  0.0000000  4.9162000  2
  10362  10357  10346  10364     1  0.0000000  0.6024960  3
  10364  10351  10350  10369     1  0.0000000  0.6508444  3
  10364  10346  10347  10367     1  0.0000000  4.9162000  2
  10364  10346  10347  10367     1  0.0000000  0.6024960  3
  10371  10373  10375  10379     1  0.0000000  0.6508444  3
  10373  10375  10379  10380     1  0.0000000  0.6508444  3
  10373  10375  10379  10381     1  0.0000000  0.6508444  3
  10375  10379  10380  10391     1  0.0000000  0.6508444  3
  10375  10379  10381  10383     1  0.0000000  0.6508444  3
  10379  10380  10391  10394     1  0.0000000  0.6508444  3
  10379  10381  10383  10387     1  0.0000000  0.6508444  3
  10380  10379  10381  10383     1  0.0000000  0.6508444  3
  10380  10391  10394  10395     1  180.0000771  0.0000000  2
  10380  10391  10394  10443     1  180.0000771  0.0000000  2
  10381  10379  10380  10391     1  0.0000000  0.6508444  3
  10381  10383  10387  10388     1  180.0000771  0.0000000  2
  10381  10383  10387  10419     1  180.0000771  0.0000000  2
  10383  10387  10419  10400     1  180.0000771  6.0668000  2
  10383  10387  10419  10400     1  180.0000771  1.4644000  4
  10387  10419  10400  10399     1  0.0000000  1.2552000  3
  10387  10419  10400  10401     1  0.0000000  1.2552000  3
  10388  10387  10419  10400     1  180.0000771  6.0668000  2
  10388  10387  10419  10400     1  180.0000771  1.4644000  4
  10391  10394  10443  10424     1  180.0000771  6.0668000  2
  10391  10394  10443  10424     1  180.0000771  1.4644000  4
  10394  10443  10424  10423     1  0.0000000  1.2552000  3
  10394  10443  10424  10425     1  0.0000000  1.2552000  3
  10395  10394  10443  10424     1  180.0000771  6.0668000  2
  10395  10394  10443  10424     1  180.0000771  1.4644000  4
  10396  10397  10399  10400     1  180.0000771  0.8368000  1
  10396  10397  10399  10400     1  180.0000771  1.0460000  2
  10396  10397  10399  10400     1  0.0000000  0.7531200  3
  10396  10397  10399  10406     1  0.0000000  0.6508444  3
  10396  10414  10401  10400     1  180.0000771  0.4184000  2
  10396  10414  10401  10400     1  0.0000000  1.6024720  3
  10396  10414  10401  10405     1  0.0000000  1.6038667  3
  10397  10396  10407  10412     1  0.0000000  0.6508444  3
  10397  10396  10414  10401     1  180.0000771  0.4184000  2
  10397  10396  10414  10401     1  0.0000000  1.6024720  3
  10397  10399  10400  10401     1  180.0000771  0.8368000  1
  10397  10399  10400  10401     1  180.0000771  1.0460000  2
  10397  10399  10400  10401     1  0.0000000  0.7531200  3
  10397  10399  10400  10419     1  0.0000000  0.6508444  3
  10399  10397  10396  10407     1  180.0000771  0.8368000  1
  10399  10397  10396  10407     1  180.0000771  1.0460000  2
  10399  10397  10396  10407     1  0.0000000  0.7531200  3
  10399  10397  10396  10414     1  0.0000000  0.6508444  3
  10399  10400  10401  10405     1  0.0000000  0.6508444  3
  10399  10400  10401  10414     1  0.0000000  0.6508444  3
  10400  10399  10397  10417     1  0.0000000  0.6508444  3
  10401  10400  10399  10406     1  0.0000000  0.6508444  3
  10401  10414  10396  10407     1  180.0000771  0.4184000  2
  10401  10414  10396  10407     1  0.0000000  1.6024720  3
  10405  10401  10400  10419     1  0.0000000  0.6508444  3
  10406  10399  10397  10417     1  0.0000000  4.9162000  2
  10406  10399  10397  10417     1  0.0000000  0.6024960  3
  10406  10399  10400  10419     1  0.0000000  0.6508444  3
  10407  10396  10397  10417     1  0.0000000  0.6508444  3
  10412  10407  10396  10414     1  0.0000000  4.9162000  2
  10412  10407  10396  10414     1  0.0000000  0.6024960  3
  10414  10396  10397  10417     1  0.0000000  4.9162000  2
  10414  10396  10397  10417     1  0.0000000  0.6024960  3
  10414  10401  10400  10419     1  0.0000000  0.6508444  3
  10420  10421  10423  10424     1  180.0000771  0.8368000  1
  10420  10421  10423  10424     1  180.0000771  1.0460000  2
  10420  10421  10423  10424     1  0.0000000  0.7531200  3
  10420  10421  10423  10430     1  0.0000000  0.6508444  3
  10420  10438  10425  10424     1  180.0000771  0.4184000  2
  10420  10438  10425  10424     1  0.0000000  1.6024720  3
  10420  10438  10425  10429     1  0.0000000  1.6038667  3
  10421  10420  10431  10436     1  0.0000000  0.6508444  3
  10421  10420  10438  10425     1  180.0000771  0.4184000  2
  10421  10420  10438  10425     1  0.0000000  1.6024720  3
  10421  10423  10424  10425     1  180.0000771  0.8368000  1
  10421  10423  10424  10425     1  180.0000771  1.0460000  2
  10421  10423  10424  10425     1  0.0000000  0.7531200  3
  10421  10423  10424  10443     1  0.0000000  0.6508444  3
  10423  10421  10420  10431     1  180.0000771  0.8368000  1
  10423  10421  10420  10431     1  180.0000771  1.0460000  2
  10423  10421  10420  10431     1  0.0000000  0.7531200  3
  10423  10421  10420  10438     1  0.0000000  0.6508444  3
  10423  10424  10425  10429     1  0.0000000  0.6508444  3
  10423  10424  10425  10438     1  0.0000000  0.6508444  3
  10424  10423  10421  10441     1  0.0000000  0.6508444  3
  10425  10424  10423  10430     1  0.0000000  0.6508444  3
  10425  10438  10420  10431     1  180.0000771  0.4184000  2
  10425  10438  10420  10431     1  0.0000000  1.6024720  3
  10429  10425  10424  10443     1  0.0000000  0.6508444  3
  10430  10423  10421  10441     1  0.0000000  4.9162000  2
  10430  10423  10421  10441     1  0.0000000  0.6024960  3
  10430  10423  10424  10443     1  0.0000000  0.6508444  3
  10431  10420  10421  10441     1  0.0000000  0.6508444  3
  10436  10431  10420  10438     1  0.0000000  4.9162000  2
  10436  10431  10420  10438     1  0.0000000  0.6024960  3
  10438  10420  10421  10441     1  0.0000000  4.9162000  2
  10438  10420  10421  10441     1  0.0000000  0.6024960  3
  10438  10425  10424  10443     1  0.0000000  0.6508444  3
  10445  10447  10449  10453     1  0.0000000  0.6508444  3
  10447  10449  10453  10454     1  0.0000000  0.6508444  3
  10447  10449  10453  10455     1  0.0000000  0.6508444  3
  10449  10453  10454  10465     1  0.0000000  0.6508444  3
  10449  10453  10455  10457     1  0.0000000  0.6508444  3
  10453  10454  10465  10468     1  0.0000000  0.6508444  3
  10453  10455  10457  10461     1  0.0000000  0.6508444  3
  10454  10465  10468  10469     1  180.0000771  0.0000000  2
  10454  10465  10468  10517     1  180.0000771  0.0000000  2
  10454  10453  10455  10457     1  0.0000000  0.6508444  3
  10455  10457  10461  10462     1  180.0000771  0.0000000  2
  10455  10457  10461  10493     1  180.0000771  0.0000000  2
  10455  10453  10454  10465     1  0.0000000  0.6508444  3
  10457  10461  10493  10474     1  180.0000771  6.0668000  2
  10457  10461  10493  10474     1  180.0000771  1.4644000  4
  10461  10493  10474  10475     1  0.0000000  1.2552000  3
  10461  10493  10474  10473     1  0.0000000  1.2552000  3
  10462  10461  10493  10474     1  180.0000771  6.0668000  2
  10462  10461  10493  10474     1  180.0000771  1.4644000  4
  10465  10468  10517  10498     1  180.0000771  6.0668000  2
  10465  10468  10517  10498     1  180.0000771  1.4644000  4
  10468  10517  10498  10499     1  0.0000000  1.2552000  3
  10468  10517  10498  10497     1  0.0000000  1.2552000  3
  10469  10468  10517  10498     1  180.0000771  6.0668000  2
  10469  10468  10517  10498     1  180.0000771  1.4644000  4
  10470  10471  10473  10474     1  180.0000771  0.8368000  1
  10470  10471  10473  10474     1  180.0000771  1.0460000  2
  10470  10471  10473  10474     1  0.0000000  0.7531200  3
  10470  10471  10473  10480     1  0.0000000  0.6508444  3
  10470  10488  10475  10479     1  0.0000000  1.6038667  3
  10470  10488  10475  10474     1  180.0000771  0.4184000  2
  10470  10488  10475  10474     1  0.0000000  1.6024720  3
  10471  10473  10474  10475     1  180.0000771  0.8368000  1
  10471  10473  10474  10475     1  180.0000771  1.0460000  2
  10471  10473  10474  10475     1  0.0000000  0.7531200  3
  10471  10473  10474  10493     1  0.0000000  0.6508444  3
  10471  10470  10481  10486     1  0.0000000  0.6508444  3
  10471  10470  10488  10475     1  180.0000771  0.4184000  2
  10471  10470  10488  10475     1  0.0000000  1.6024720  3
  10473  10474  10475  10479     1  0.0000000  0.6508444  3
  10473  10474  10475  10488     1  0.0000000  0.6508444  3
  10473  10471  10470  10481     1  180.0000771  0.8368000  1
  10473  10471  10470  10481     1  180.0000771  1.0460000  2
  10473  10471  10470  10481     1  0.0000000  0.7531200  3
  10473  10471  10470  10488     1  0.0000000  0.6508444  3
  10474  10473  10471  10491     1  0.0000000  0.6508444  3
  10475  10488  10470  10481     1  180.0000771  0.4184000  2
  10475  10488  10470  10481     1  0.0000000  1.6024720  3
  10475  10474  10473  10480     1  0.0000000  0.6508444  3
  10479  10475  10474  10493     1  0.0000000  0.6508444  3
  10480  10473  10474  10493     1  0.0000000  0.6508444  3
  10480  10473  10471  10491     1  0.0000000  4.9162000  2
  10480  10473  10471  10491     1  0.0000000  0.6024960  3
  10481  10470  10471  10491     1  0.0000000  0.6508444  3
  10486  10481  10470  10488     1  0.0000000  4.9162000  2
  10486  10481  10470  10488     1  0.0000000  0.6024960  3
  10488  10475  10474  10493     1  0.0000000  0.6508444  3
  10488  10470  10471  10491     1  0.0000000  4.9162000  2
  10488  10470  10471  10491     1  0.0000000  0.6024960  3
  10494  10495  10497  10498     1  180.0000771  0.8368000  1
  10494  10495  10497  10498     1  180.0000771  1.0460000  2
  10494  10495  10497  10498     1  0.0000000  0.7531200  3
  10494  10495  10497  10504     1  0.0000000  0.6508444  3
  10494  10512  10499  10503     1  0.0000000  1.6038667  3
  10494  10512  10499  10498     1  180.0000771  0.4184000  2
  10494  10512  10499  10498     1  0.0000000  1.6024720  3
  10495  10497  10498  10499     1  180.0000771  0.8368000  1
  10495  10497  10498  10499     1  180.0000771  1.0460000  2
  10495  10497  10498  10499     1  0.0000000  0.7531200  3
  10495  10497  10498  10517     1  0.0000000  0.6508444  3
  10495  10494  10505  10510     1  0.0000000  0.6508444  3
  10495  10494  10512  10499     1  180.0000771  0.4184000  2
  10495  10494  10512  10499     1  0.0000000  1.6024720  3
  10497  10498  10499  10503     1  0.0000000  0.6508444  3
  10497  10498  10499  10512     1  0.0000000  0.6508444  3
  10497  10495  10494  10505     1  180.0000771  0.8368000  1
  10497  10495  10494  10505     1  180.0000771  1.0460000  2
  10497  10495  10494  10505     1  0.0000000  0.7531200  3
  10497  10495  10494  10512     1  0.0000000  0.6508444  3
  10498  10497  10495  10515     1  0.0000000  0.6508444  3
  10499  10512  10494  10505     1  180.0000771  0.4184000  2
  10499  10512  10494  10505     1  0.0000000  1.6024720  3
  10499  10498  10497  10504     1  0.0000000  0.6508444  3
  10503  10499  10498  10517     1  0.0000000  0.6508444  3
  10504  10497  10498  10517     1  0.0000000  0.6508444  3
  10504  10497  10495  10515     1  0.0000000  4.9162000  2
  10504  10497  10495  10515     1  0.0000000  0.6024960  3
  10505  10494  10495  10515     1  0.0000000  0.6508444  3
  10510  10505  10494  10512     1  0.0000000  4.9162000  2
  10510  10505  10494  10512     1  0.0000000  0.6024960  3
  10512  10499  10498  10517     1  0.0000000  0.6508444  3
  10512  10494  10495  10515     1  0.0000000  4.9162000  2
  10512  10494  10495  10515     1  0.0000000  0.6024960  3
  10519  10521  10523  10527     1  0.0000000  0.6508444  3
  10521  10523  10527  10528     1  0.0000000  0.6508444  3
  10521  10523  10527  10529     1  0.0000000  0.6508444  3
  10523  10527  10528  10539     1  0.0000000  0.6508444  3
  10523  10527  10529  10531     1  0.0000000  0.6508444  3
  10527  10528  10539  10542     1  0.0000000  0.6508444  3
  10527  10529  10531  10535     1  0.0000000  0.6508444  3
  10528  10527  10529  10531     1  0.0000000  0.6508444  3
  10528  10539  10542  10543     1  180.0000771  0.0000000  2
  10528  10539  10542  10591     1  180.0000771  0.0000000  2
  10529  10527  10528  10539     1  0.0000000  0.6508444  3
  10529  10531  10535  10536     1  180.0000771  0.0000000  2
  10529  10531  10535  10567     1  180.0000771  0.0000000  2
  10531  10535  10567  10548     1  180.0000771  6.0668000  2
  10531  10535  10567  10548     1  180.0000771  1.4644000  4
  10535  10567  10548  10547     1  0.0000000  1.2552000  3
  10535  10567  10548  10549     1  0.0000000  1.2552000  3
  10536  10535  10567  10548     1  180.0000771  6.0668000  2
  10536  10535  10567  10548     1  180.0000771  1.4644000  4
  10539  10542  10591  10572     1  180.0000771  6.0668000  2
  10539  10542  10591  10572     1  180.0000771  1.4644000  4
  10542  10591  10572  10571     1  0.0000000  1.2552000  3
  10542  10591  10572  10573     1  0.0000000  1.2552000  3
  10543  10542  10591  10572     1  180.0000771  6.0668000  2
  10543  10542  10591  10572     1  180.0000771  1.4644000  4
  10544  10545  10547  10548     1  180.0000771  0.8368000  1
  10544  10545  10547  10548     1  180.0000771  1.0460000  2
  10544  10545  10547  10548     1  0.0000000  0.7531200  3
  10544  10545  10547  10554     1  0.0000000  0.6508444  3
  10544  10562  10549  10548     1  180.0000771  0.4184000  2
  10544  10562  10549  10548     1  0.0000000  1.6024720  3
  10544  10562  10549  10553     1  0.0000000  1.6038667  3
  10545  10544  10555  10560     1  0.0000000  0.6508444  3
  10545  10544  10562  10549     1  180.0000771  0.4184000  2
  10545  10544  10562  10549     1  0.0000000  1.6024720  3
  10545  10547  10548  10549     1  180.0000771  0.8368000  1
  10545  10547  10548  10549     1  180.0000771  1.0460000  2
  10545  10547  10548  10549     1  0.0000000  0.7531200  3
  10545  10547  10548  10567     1  0.0000000  0.6508444  3
  10547  10545  10544  10555     1  180.0000771  0.8368000  1
  10547  10545  10544  10555     1  180.0000771  1.0460000  2
  10547  10545  10544  10555     1  0.0000000  0.7531200  3
  10547  10545  10544  10562     1  0.0000000  0.6508444  3
  10547  10548  10549  10553     1  0.0000000  0.6508444  3
  10547  10548  10549  10562     1  0.0000000  0.6508444  3
  10548  10547  10545  10565     1  0.0000000  0.6508444  3
  10549  10548  10547  10554     1  0.0000000  0.6508444  3
  10549  10562  10544  10555     1  180.0000771  0.4184000  2
  10549  10562  10544  10555     1  0.0000000  1.6024720  3
  10553  10549  10548  10567     1  0.0000000  0.6508444  3
  10554  10547  10545  10565     1  0.0000000  4.9162000  2
  10554  10547  10545  10565     1  0.0000000  0.6024960  3
  10554  10547  10548  10567     1  0.0000000  0.6508444  3
  10555  10544  10545  10565     1  0.0000000  0.6508444  3
  10560  10555  10544  10562     1  0.0000000  4.9162000  2
  10560  10555  10544  10562     1  0.0000000  0.6024960  3
  10562  10544  10545  10565     1  0.0000000  4.9162000  2
  10562  10544  10545  10565     1  0.0000000  0.6024960  3
  10562  10549  10548  10567     1  0.0000000  0.6508444  3
  10568  10569  10571  10572     1  180.0000771  0.8368000  1
  10568  10569  10571  10572     1  180.0000771  1.0460000  2
  10568  10569  10571  10572     1  0.0000000  0.7531200  3
  10568  10569  10571  10578     1  0.0000000  0.6508444  3
  10568  10586  10573  10572     1  180.0000771  0.4184000  2
  10568  10586  10573  10572     1  0.0000000  1.6024720  3
  10568  10586  10573  10577     1  0.0000000  1.6038667  3
  10569  10568  10579  10584     1  0.0000000  0.6508444  3
  10569  10568  10586  10573     1  180.0000771  0.4184000  2
  10569  10568  10586  10573     1  0.0000000  1.6024720  3
  10569  10571  10572  10573     1  180.0000771  0.8368000  1
  10569  10571  10572  10573     1  180.0000771  1.0460000  2
  10569  10571  10572  10573     1  0.0000000  0.7531200  3
  10569  10571  10572  10591     1  0.0000000  0.6508444  3
  10571  10569  10568  10579     1  180.0000771  0.8368000  1
  10571  10569  10568  10579     1  180.0000771  1.0460000  2
  10571  10569  10568  10579     1  0.0000000  0.7531200  3
  10571  10569  10568  10586     1  0.0000000  0.6508444  3
  10571  10572  10573  10577     1  0.0000000  0.6508444  3
  10571  10572  10573  10586     1  0.0000000  0.6508444  3
  10572  10571  10569  10589     1  0.0000000  0.6508444  3
  10573  10572  10571  10578     1  0.0000000  0.6508444  3
  10573  10586  10568  10579     1  180.0000771  0.4184000  2
  10573  10586  10568  10579     1  0.0000000  1.6024720  3
  10577  10573  10572  10591     1  0.0000000  0.6508444  3
  10578  10571  10569  10589     1  0.0000000  4.9162000  2
  10578  10571  10569  10589     1  0.0000000  0.6024960  3
  10578  10571  10572  10591     1  0.0000000  0.6508444  3
  10579  10568  10569  10589     1  0.0000000  0.6508444  3
  10584  10579  10568  10586     1  0.0000000  4.9162000  2
  10584  10579  10568  10586     1  0.0000000  0.6024960  3
  10586  10568  10569  10589     1  0.0000000  4.9162000  2
  10586  10568  10569  10589     1  0.0000000  0.6024960  3
  10586  10573  10572  10591     1  0.0000000  0.6508444  3
  10593  10595  10597  10601     1  0.0000000  0.6508444  3
  10595  10597  10601  10602     1  0.0000000  0.6508444  3
  10595  10597  10601  10603     1  0.0000000  0.6508444  3
  10597  10601  10602  10613     1  0.0000000  0.6508444  3
  10597  10601  10603  10605     1  0.0000000  0.6508444  3
  10601  10602  10613  10616     1  0.0000000  0.6508444  3
  10601  10603  10605  10609     1  0.0000000  0.6508444  3
  10602  10613  10616  10617     1  180.0000771  0.0000000  2
  10602  10613  10616  10665     1  180.0000771  0.0000000  2
  10602  10601  10603  10605     1  0.0000000  0.6508444  3
  10603  10605  10609  10610     1  180.0000771  0.0000000  2
  10603  10605  10609  10641     1  180.0000771  0.0000000  2
  10603  10601  10602  10613     1  0.0000000  0.6508444  3
  10605  10609  10641  10622     1  180.0000771  6.0668000  2
  10605  10609  10641  10622     1  180.0000771  1.4644000  4
  10609  10641  10622  10623     1  0.0000000  1.2552000  3
  10609  10641  10622  10621     1  0.0000000  1.2552000  3
  10610  10609  10641  10622     1  180.0000771  6.0668000  2
  10610  10609  10641  10622     1  180.0000771  1.4644000  4
  10613  10616  10665  10646     1  180.0000771  6.0668000  2
  10613  10616  10665  10646     1  180.0000771  1.4644000  4
  10616  10665  10646  10647     1  0.0000000  1.2552000  3
  10616  10665  10646  10645     1  0.0000000  1.2552000  3
  10617  10616  10665  10646     1  180.0000771  6.0668000  2
  10617  10616  10665  10646     1  180.0000771  1.4644000  4
  10618  10619  10621  10622     1  180.0000771  0.8368000  1
  10618  10619  10621  10622     1  180.0000771  1.0460000  2
  10618  10619  10621  10622     1  0.0000000  0.7531200  3
  10618  10619  10621  10628     1  0.0000000  0.6508444  3
  10618  10636  10623  10627     1  0.0000000  1.6038667  3
  10618  10636  10623  10622     1  180.0000771  0.4184000  2
  10618  10636  10623  10622     1  0.0000000  1.6024720  3
  10619  10621  10622  10623     1  180.0000771  0.8368000  1
  10619  10621  10622  10623     1  180.0000771  1.0460000  2
  10619  10621  10622  10623     1  0.0000000  0.7531200  3
  10619  10621  10622  10641     1  0.0000000  0.6508444  3
  10619  10618  10629  10634     1  0.0000000  0.6508444  3
  10619  10618  10636  10623     1  180.0000771  0.4184000  2
  10619  10618  10636  10623     1  0.0000000  1.6024720  3
  10621  10622  10623  10627     1  0.0000000  0.6508444  3
  10621  10622  10623  10636     1  0.0000000  0.6508444  3
  10621  10619  10618  10629     1  180.0000771  0.8368000  1
  10621  10619  10618  10629     1  180.0000771  1.0460000  2
  10621  10619  10618  10629     1  0.0000000  0.7531200  3
  10621  10619  10618  10636     1  0.0000000  0.6508444  3
  10622  10621  10619  10639     1  0.0000000  0.6508444  3
  10623  10636  10618  10629     1  180.0000771  0.4184000  2
  10623  10636  10618  10629     1  0.0000000  1.6024720  3
  10623  10622  10621  10628     1  0.0000000  0.6508444  3
  10627  10623  10622  10641     1  0.0000000  0.6508444  3
  10628  10621  10622  10641     1  0.0000000  0.6508444  3
  10628  10621  10619  10639     1  0.0000000  4.9162000  2
  10628  10621  10619  10639     1  0.0000000  0.6024960  3
  10629  10618  10619  10639     1  0.0000000  0.6508444  3
  10634  10629  10618  10636     1  0.0000000  4.9162000  2
  10634  10629  10618  10636     1  0.0000000  0.6024960  3
  10636  10623  10622  10641     1  0.0000000  0.6508444  3
  10636  10618  10619  10639     1  0.0000000  4.9162000  2
  10636  10618  10619  10639     1  0.0000000  0.6024960  3
  10642  10643  10645  10646     1  180.0000771  0.8368000  1
  10642  10643  10645  10646     1  180.0000771  1.0460000  2
  10642  10643  10645  10646     1  0.0000000  0.7531200  3
  10642  10643  10645  10652     1  0.0000000  0.6508444  3
  10642  10660  10647  10651     1  0.0000000  1.6038667  3
  10642  10660  10647  10646     1  180.0000771  0.4184000  2
  10642  10660  10647  10646     1  0.0000000  1.6024720  3
  10643  10645  10646  10647     1  180.0000771  0.8368000  1
  10643  10645  10646  10647     1  180.0000771  1.0460000  2
  10643  10645  10646  10647     1  0.0000000  0.7531200  3
  10643  10645  10646  10665     1  0.0000000  0.6508444  3
  10643  10642  10653  10658     1  0.0000000  0.6508444  3
  10643  10642  10660  10647     1  180.0000771  0.4184000  2
  10643  10642  10660  10647     1  0.0000000  1.6024720  3
  10645  10646  10647  10651     1  0.0000000  0.6508444  3
  10645  10646  10647  10660     1  0.0000000  0.6508444  3
  10645  10643  10642  10653     1  180.0000771  0.8368000  1
  10645  10643  10642  10653     1  180.0000771  1.0460000  2
  10645  10643  10642  10653     1  0.0000000  0.7531200  3
  10645  10643  10642  10660     1  0.0000000  0.6508444  3
  10646  10645  10643  10663     1  0.0000000  0.6508444  3
  10647  10660  10642  10653     1  180.0000771  0.4184000  2
  10647  10660  10642  10653     1  0.0000000  1.6024720  3
  10647  10646  10645  10652     1  0.0000000  0.6508444  3
  10651  10647  10646  10665     1  0.0000000  0.6508444  3
  10652  10645  10646  10665     1  0.0000000  0.6508444  3
  10652  10645  10643  10663     1  0.0000000  4.9162000  2
  10652  10645  10643  10663     1  0.0000000  0.6024960  3
  10653  10642  10643  10663     1  0.0000000  0.6508444  3
  10658  10653  10642  10660     1  0.0000000  4.9162000  2
  10658  10653  10642  10660     1  0.0000000  0.6024960  3
  10660  10647  10646  10665     1  0.0000000  0.6508444  3
  10660  10642  10643  10663     1  0.0000000  4.9162000  2
  10660  10642  10643  10663     1  0.0000000  0.6024960  3
  10667  10669  10671  10675     1  0.0000000  0.6508444  3
  10669  10671  10675  10676     1  0.0000000  0.6508444  3
  10669  10671  10675  10677     1  0.0000000  0.6508444  3
  10671  10675  10676  10687     1  0.0000000  0.6508444  3
  10671  10675  10677  10679     1  0.0000000  0.6508444  3
  10675  10676  10687  10690     1  0.0000000  0.6508444  3
  10675  10677  10679  10683     1  0.0000000  0.6508444  3
  10676  10675  10677  10679     1  0.0000000  0.6508444  3
  10676  10687  10690  10691     1  180.0000771  0.0000000  2
  10676  10687  10690  10739     1  180.0000771  0.0000000  2
  10677  10675  10676  10687     1  0.0000000  0.6508444  3
  10677  10679  10683  10684     1  180.0000771  0.0000000  2
  10677  10679  10683  10715     1  180.0000771  0.0000000  2
  10679  10683  10715  10696     1  180.0000771  6.0668000  2
  10679  10683  10715  10696     1  180.0000771  1.4644000  4
  10683  10715  10696  10695     1  0.0000000  1.2552000  3
  10683  10715  10696  10697     1  0.0000000  1.2552000  3
  10684  10683  10715  10696     1  180.0000771  6.0668000  2
  10684  10683  10715  10696     1  180.0000771  1.4644000  4
  10687  10690  10739  10720     1  180.0000771  6.0668000  2
  10687  10690  10739  10720     1  180.0000771  1.4644000  4
  10690  10739  10720  10719     1  0.0000000  1.2552000  3
  10690  10739  10720  10721     1  0.0000000  1.2552000  3
  10691  10690  10739  10720     1  180.0000771  6.0668000  2
  10691  10690  10739  10720     1  180.0000771  1.4644000  4
  10692  10693  10695  10696     1  180.0000771  0.8368000  1
  10692  10693  10695  10696     1  180.0000771  1.0460000  2
  10692  10693  10695  10696     1  0.0000000  0.7531200  3
  10692  10693  10695  10702     1  0.0000000  0.6508444  3
  10692  10710  10697  10696     1  180.0000771  0.4184000  2
  10692  10710  10697  10696     1  0.0000000  1.6024720  3
  10692  10710  10697  10701     1  0.0000000  1.6038667  3
  10693  10692  10703  10708     1  0.0000000  0.6508444  3
  10693  10692  10710  10697     1  180.0000771  0.4184000  2
  10693  10692  10710  10697     1  0.0000000  1.6024720  3
  10693  10695  10696  10697     1  180.0000771  0.8368000  1
  10693  10695  10696  10697     1  180.0000771  1.0460000  2
  10693  10695  10696  10697     1  0.0000000  0.7531200  3
  10693  10695  10696  10715     1  0.0000000  0.6508444  3
  10695  10693  10692  10703     1  180.0000771  0.8368000  1
  10695  10693  10692  10703     1  180.0000771  1.0460000  2
  10695  10693  10692  10703     1  0.0000000  0.7531200  3
  10695  10693  10692  10710     1  0.0000000  0.6508444  3
  10695  10696  10697  10701     1  0.0000000  0.6508444  3
  10695  10696  10697  10710     1  0.0000000  0.6508444  3
  10696  10695  10693  10713     1  0.0000000  0.6508444  3
  10697  10696  10695  10702     1  0.0000000  0.6508444  3
  10697  10710  10692  10703     1  180.0000771  0.4184000  2
  10697  10710  10692  10703     1  0.0000000  1.6024720  3
  10701  10697  10696  10715     1  0.0000000  0.6508444  3
  10702  10695  10693  10713     1  0.0000000  4.9162000  2
  10702  10695  10693  10713     1  0.0000000  0.6024960  3
  10702  10695  10696  10715     1  0.0000000  0.6508444  3
  10703  10692  10693  10713     1  0.0000000  0.6508444  3
  10708  10703  10692  10710     1  0.0000000  4.9162000  2
  10708  10703  10692  10710     1  0.0000000  0.6024960  3
  10710  10692  10693  10713     1  0.0000000  4.9162000  2
  10710  10692  10693  10713     1  0.0000000  0.6024960  3
  10710  10697  10696  10715     1  0.0000000  0.6508444  3
  10716  10717  10719  10720     1  180.0000771  0.8368000  1
  10716  10717  10719  10720     1  180.0000771  1.0460000  2
  10716  10717  10719  10720     1  0.0000000  0.7531200  3
  10716  10717  10719  10726     1  0.0000000  0.6508444  3
  10716  10734  10721  10720     1  180.0000771  0.4184000  2
  10716  10734  10721  10720     1  0.0000000  1.6024720  3
  10716  10734  10721  10725     1  0.0000000  1.6038667  3
  10717  10716  10727  10732     1  0.0000000  0.6508444  3
  10717  10716  10734  10721     1  180.0000771  0.4184000  2
  10717  10716  10734  10721     1  0.0000000  1.6024720  3
  10717  10719  10720  10721     1  180.0000771  0.8368000  1
  10717  10719  10720  10721     1  180.0000771  1.0460000  2
  10717  10719  10720  10721     1  0.0000000  0.7531200  3
  10717  10719  10720  10739     1  0.0000000  0.6508444  3
  10719  10717  10716  10727     1  180.0000771  0.8368000  1
  10719  10717  10716  10727     1  180.0000771  1.0460000  2
  10719  10717  10716  10727     1  0.0000000  0.7531200  3
  10719  10717  10716  10734     1  0.0000000  0.6508444  3
  10719  10720  10721  10725     1  0.0000000  0.6508444  3
  10719  10720  10721  10734     1  0.0000000  0.6508444  3
  10720  10719  10717  10737     1  0.0000000  0.6508444  3
  10721  10720  10719  10726     1  0.0000000  0.6508444  3
  10721  10734  10716  10727     1  180.0000771  0.4184000  2
  10721  10734  10716  10727     1  0.0000000  1.6024720  3
  10725  10721  10720  10739     1  0.0000000  0.6508444  3
  10726  10719  10717  10737     1  0.0000000  4.9162000  2
  10726  10719  10717  10737     1  0.0000000  0.6024960  3
  10726  10719  10720  10739     1  0.0000000  0.6508444  3
  10727  10716  10717  10737     1  0.0000000  0.6508444  3
  10732  10727  10716  10734     1  0.0000000  4.9162000  2
  10732  10727  10716  10734     1  0.0000000  0.6024960  3
  10734  10716  10717  10737     1  0.0000000  4.9162000  2
  10734  10716  10717  10737     1  0.0000000  0.6024960  3
  10734  10721  10720  10739     1  0.0000000  0.6508444  3
  10741  10743  10745  10749     1  0.0000000  0.6508444  3
  10743  10745  10749  10750     1  0.0000000  0.6508444  3
  10743  10745  10749  10751     1  0.0000000  0.6508444  3
  10745  10749  10750  10761     1  0.0000000  0.6508444  3
  10745  10749  10751  10753     1  0.0000000  0.6508444  3
  10749  10750  10761  10764     1  0.0000000  0.6508444  3
  10749  10751  10753  10757     1  0.0000000  0.6508444  3
  10750  10761  10764  10765     1  180.0000771  0.0000000  2
  10750  10761  10764  10813     1  180.0000771  0.0000000  2
  10750  10749  10751  10753     1  0.0000000  0.6508444  3
  10751  10753  10757  10758     1  180.0000771  0.0000000  2
  10751  10753  10757  10789     1  180.0000771  0.0000000  2
  10751  10749  10750  10761     1  0.0000000  0.6508444  3
  10753  10757  10789  10770     1  180.0000771  6.0668000  2
  10753  10757  10789  10770     1  180.0000771  1.4644000  4
  10757  10789  10770  10771     1  0.0000000  1.2552000  3
  10757  10789  10770  10769     1  0.0000000  1.2552000  3
  10758  10757  10789  10770     1  180.0000771  6.0668000  2
  10758  10757  10789  10770     1  180.0000771  1.4644000  4
  10761  10764  10813  10794     1  180.0000771  6.0668000  2
  10761  10764  10813  10794     1  180.0000771  1.4644000  4
  10764  10813  10794  10795     1  0.0000000  1.2552000  3
  10764  10813  10794  10793     1  0.0000000  1.2552000  3
  10765  10764  10813  10794     1  180.0000771  6.0668000  2
  10765  10764  10813  10794     1  180.0000771  1.4644000  4
  10766  10767  10769  10770     1  180.0000771  0.8368000  1
  10766  10767  10769  10770     1  180.0000771  1.0460000  2
  10766  10767  10769  10770     1  0.0000000  0.7531200  3
  10766  10767  10769  10776     1  0.0000000  0.6508444  3
  10766  10784  10771  10775     1  0.0000000  1.6038667  3
  10766  10784  10771  10770     1  180.0000771  0.4184000  2
  10766  10784  10771  10770     1  0.0000000  1.6024720  3
  10767  10769  10770  10771     1  180.0000771  0.8368000  1
  10767  10769  10770  10771     1  180.0000771  1.0460000  2
  10767  10769  10770  10771     1  0.0000000  0.7531200  3
  10767  10769  10770  10789     1  0.0000000  0.6508444  3
  10767  10766  10777  10782     1  0.0000000  0.6508444  3
  10767  10766  10784  10771     1  180.0000771  0.4184000  2
  10767  10766  10784  10771     1  0.0000000  1.6024720  3
  10769  10770  10771  10775     1  0.0000000  0.6508444  3
  10769  10770  10771  10784     1  0.0000000  0.6508444  3
  10769  10767  10766  10777     1  180.0000771  0.8368000  1
  10769  10767  10766  10777     1  180.0000771  1.0460000  2
  10769  10767  10766  10777     1  0.0000000  0.7531200  3
  10769  10767  10766  10784     1  0.0000000  0.6508444  3
  10770  10769  10767  10787     1  0.0000000  0.6508444  3
  10771  10784  10766  10777     1  180.0000771  0.4184000  2
  10771  10784  10766  10777     1  0.0000000  1.6024720  3
  10771  10770  10769  10776     1  0.0000000  0.6508444  3
  10775  10771  10770  10789     1  0.0000000  0.6508444  3
  10776  10769  10770  10789     1  0.0000000  0.6508444  3
  10776  10769  10767  10787     1  0.0000000  4.9162000  2
  10776  10769  10767  10787     1  0.0000000  0.6024960  3
  10777  10766  10767  10787     1  0.0000000  0.6508444  3
  10782  10777  10766  10784     1  0.0000000  4.9162000  2
  10782  10777  10766  10784     1  0.0000000  0.6024960  3
  10784  10771  10770  10789     1  0.0000000  0.6508444  3
  10784  10766  10767  10787     1  0.0000000  4.9162000  2
  10784  10766  10767  10787     1  0.0000000  0.6024960  3
  10790  10791  10793  10794     1  180.0000771  0.8368000  1
  10790  10791  10793  10794     1  180.0000771  1.0460000  2
  10790  10791  10793  10794     1  0.0000000  0.7531200  3
  10790  10791  10793  10800     1  0.0000000  0.6508444  3
  10790  10808  10795  10799     1  0.0000000  1.6038667  3
  10790  10808  10795  10794     1  180.0000771  0.4184000  2
  10790  10808  10795  10794     1  0.0000000  1.6024720  3
  10791  10793  10794  10795     1  180.0000771  0.8368000  1
  10791  10793  10794  10795     1  180.0000771  1.0460000  2
  10791  10793  10794  10795     1  0.0000000  0.7531200  3
  10791  10793  10794  10813     1  0.0000000  0.6508444  3
  10791  10790  10801  10806     1  0.0000000  0.6508444  3
  10791  10790  10808  10795     1  180.0000771  0.4184000  2
  10791  10790  10808  10795     1  0.0000000  1.6024720  3
  10793  10794  10795  10799     1  0.0000000  0.6508444  3
  10793  10794  10795  10808     1  0.0000000  0.6508444  3
  10793  10791  10790  10801     1  180.0000771  0.8368000  1
  10793  10791  10790  10801     1  180.0000771  1.0460000  2
  10793  10791  10790  10801     1  0.0000000  0.7531200  3
  10793  10791  10790  10808     1  0.0000000  0.6508444  3
  10794  10793  10791  10811     1  0.0000000  0.6508444  3
  10795  10808  10790  10801     1  180.0000771  0.4184000  2
  10795  10808  10790  10801     1  0.0000000  1.6024720  3
  10795  10794  10793  10800     1  0.0000000  0.6508444  3
  10799  10795  10794  10813     1  0.0000000  0.6508444  3
  10800  10793  10794  10813     1  0.0000000  0.6508444  3
  10800  10793  10791  10811     1  0.0000000  4.9162000  2
  10800  10793  10791  10811     1  0.0000000  0.6024960  3
  10801  10790  10791  10811     1  0.0000000  0.6508444  3
  10806  10801  10790  10808     1  0.0000000  4.9162000  2
  10806  10801  10790  10808     1  0.0000000  0.6024960  3
  10808  10795  10794  10813     1  0.0000000  0.6508444  3
  10808  10790  10791  10811     1  0.0000000  4.9162000  2
  10808  10790  10791  10811     1  0.0000000  0.6024960  3
  10815  10817  10819  10823     1  0.0000000  0.6508444  3
  10817  10819  10823  10824     1  0.0000000  0.6508444  3
  10817  10819  10823  10825     1  0.0000000  0.6508444  3
  10819  10823  10824  10835     1  0.0000000  0.6508444  3
  10819  10823  10825  10827     1  0.0000000  0.6508444  3
  10823  10824  10835  10838     1  0.0000000  0.6508444  3
  10823  10825  10827  10831     1  0.0000000  0.6508444  3
  10824  10823  10825  10827     1  0.0000000  0.6508444  3
  10824  10835  10838  10839     1  180.0000771  0.0000000  2
  10824  10835  10838  10887     1  180.0000771  0.0000000  2
  10825  10823  10824  10835     1  0.0000000  0.6508444  3
  10825  10827  10831  10832     1  180.0000771  0.0000000  2
  10825  10827  10831  10863     1  180.0000771  0.0000000  2
  10827  10831  10863  10844     1  180.0000771  6.0668000  2
  10827  10831  10863  10844     1  180.0000771  1.4644000  4
  10831  10863  10844  10843     1  0.0000000  1.2552000  3
  10831  10863  10844  10845     1  0.0000000  1.2552000  3
  10832  10831  10863  10844     1  180.0000771  6.0668000  2
  10832  10831  10863  10844     1  180.0000771  1.4644000  4
  10835  10838  10887  10868     1  180.0000771  6.0668000  2
  10835  10838  10887  10868     1  180.0000771  1.4644000  4
  10838  10887  10868  10867     1  0.0000000  1.2552000  3
  10838  10887  10868  10869     1  0.0000000  1.2552000  3
  10839  10838  10887  10868     1  180.0000771  6.0668000  2
  10839  10838  10887  10868     1  180.0000771  1.4644000  4
  10840  10841  10843  10844     1  180.0000771  0.8368000  1
  10840  10841  10843  10844     1  180.0000771  1.0460000  2
  10840  10841  10843  10844     1  0.0000000  0.7531200  3
  10840  10841  10843  10850     1  0.0000000  0.6508444  3
  10840  10858  10845  10844     1  180.0000771  0.4184000  2
  10840  10858  10845  10844     1  0.0000000  1.6024720  3
  10840  10858  10845  10849     1  0.0000000  1.6038667  3
  10841  10840  10851  10856     1  0.0000000  0.6508444  3
  10841  10840  10858  10845     1  180.0000771  0.4184000  2
  10841  10840  10858  10845     1  0.0000000  1.6024720  3
  10841  10843  10844  10845     1  180.0000771  0.8368000  1
  10841  10843  10844  10845     1  180.0000771  1.0460000  2
  10841  10843  10844  10845     1  0.0000000  0.7531200  3
  10841  10843  10844  10863     1  0.0000000  0.6508444  3
  10843  10841  10840  10851     1  180.0000771  0.8368000  1
  10843  10841  10840  10851     1  180.0000771  1.0460000  2
  10843  10841  10840  10851     1  0.0000000  0.7531200  3
  10843  10841  10840  10858     1  0.0000000  0.6508444  3
  10843  10844  10845  10849     1  0.0000000  0.6508444  3
  10843  10844  10845  10858     1  0.0000000  0.6508444  3
  10844  10843  10841  10861     1  0.0000000  0.6508444  3
  10845  10844  10843  10850     1  0.0000000  0.6508444  3
  10845  10858  10840  10851     1  180.0000771  0.4184000  2
  10845  10858  10840  10851     1  0.0000000  1.6024720  3
  10849  10845  10844  10863     1  0.0000000  0.6508444  3
  10850  10843  10841  10861     1  0.0000000  4.9162000  2
  10850  10843  10841  10861     1  0.0000000  0.6024960  3
  10850  10843  10844  10863     1  0.0000000  0.6508444  3
  10851  10840  10841  10861     1  0.0000000  0.6508444  3
  10856  10851  10840  10858     1  0.0000000  4.9162000  2
  10856  10851  10840  10858     1  0.0000000  0.6024960  3
  10858  10840  10841  10861     1  0.0000000  4.9162000  2
  10858  10840  10841  10861     1  0.0000000  0.6024960  3
  10858  10845  10844  10863     1  0.0000000  0.6508444  3
  10864  10865  10867  10868     1  180.0000771  0.8368000  1
  10864  10865  10867  10868     1  180.0000771  1.0460000  2
  10864  10865  10867  10868     1  0.0000000  0.7531200  3
  10864  10865  10867  10874     1  0.0000000  0.6508444  3
  10864  10882  10869  10868     1  180.0000771  0.4184000  2
  10864  10882  10869  10868     1  0.0000000  1.6024720  3
  10864  10882  10869  10873     1  0.0000000  1.6038667  3
  10865  10864  10875  10880     1  0.0000000  0.6508444  3
  10865  10864  10882  10869     1  180.0000771  0.4184000  2
  10865  10864  10882  10869     1  0.0000000  1.6024720  3
  10865  10867  10868  10869     1  180.0000771  0.8368000  1
  10865  10867  10868  10869     1  180.0000771  1.0460000  2
  10865  10867  10868  10869     1  0.0000000  0.7531200  3
  10865  10867  10868  10887     1  0.0000000  0.6508444  3
  10867  10865  10864  10875     1  180.0000771  0.8368000  1
  10867  10865  10864  10875     1  180.0000771  1.0460000  2
  10867  10865  10864  10875     1  0.0000000  0.7531200  3
  10867  10865  10864  10882     1  0.0000000  0.6508444  3
  10867  10868  10869  10873     1  0.0000000  0.6508444  3
  10867  10868  10869  10882     1  0.0000000  0.6508444  3
  10868  10867  10865  10885     1  0.0000000  0.6508444  3
  10869  10868  10867  10874     1  0.0000000  0.6508444  3
  10869  10882  10864  10875     1  180.0000771  0.4184000  2
  10869  10882  10864  10875     1  0.0000000  1.6024720  3
  10873  10869  10868  10887     1  0.0000000  0.6508444  3
  10874  10867  10865  10885     1  0.0000000  4.9162000  2
  10874  10867  10865  10885     1  0.0000000  0.6024960  3
  10874  10867  10868  10887     1  0.0000000  0.6508444  3
  10875  10864  10865  10885     1  0.0000000  0.6508444  3
  10880  10875  10864  10882     1  0.0000000  4.9162000  2
  10880  10875  10864  10882     1  0.0000000  0.6024960  3
  10882  10864  10865  10885     1  0.0000000  4.9162000  2
  10882  10864  10865  10885     1  0.0000000  0.6024960  3
  10882  10869  10868  10887     1  0.0000000  0.6508444  3
  10889  10891  10893  10897     1  0.0000000  0.6508444  3
  10891  10893  10897  10898     1  0.0000000  0.6508444  3
  10891  10893  10897  10899     1  0.0000000  0.6508444  3
  10893  10897  10898  10909     1  0.0000000  0.6508444  3
  10893  10897  10899  10901     1  0.0000000  0.6508444  3
  10897  10898  10909  10912     1  0.0000000  0.6508444  3
  10897  10899  10901  10905     1  0.0000000  0.6508444  3
  10898  10909  10912  10913     1  180.0000771  0.0000000  2
  10898  10909  10912  10961     1  180.0000771  0.0000000  2
  10898  10897  10899  10901     1  0.0000000  0.6508444  3
  10899  10901  10905  10906     1  180.0000771  0.0000000  2
  10899  10901  10905  10937     1  180.0000771  0.0000000  2
  10899  10897  10898  10909     1  0.0000000  0.6508444  3
  10901  10905  10937  10918     1  180.0000771  6.0668000  2
  10901  10905  10937  10918     1  180.0000771  1.4644000  4
  10905  10937  10918  10919     1  0.0000000  1.2552000  3
  10905  10937  10918  10917     1  0.0000000  1.2552000  3
  10906  10905  10937  10918     1  180.0000771  6.0668000  2
  10906  10905  10937  10918     1  180.0000771  1.4644000  4
  10909  10912  10961  10942     1  180.0000771  6.0668000  2
  10909  10912  10961  10942     1  180.0000771  1.4644000  4
  10912  10961  10942  10943     1  0.0000000  1.2552000  3
  10912  10961  10942  10941     1  0.0000000  1.2552000  3
  10913  10912  10961  10942     1  180.0000771  6.0668000  2
  10913  10912  10961  10942     1  180.0000771  1.4644000  4
  10914  10915  10917  10918     1  180.0000771  0.8368000  1
  10914  10915  10917  10918     1  180.0000771  1.0460000  2
  10914  10915  10917  10918     1  0.0000000  0.7531200  3
  10914  10915  10917  10924     1  0.0000000  0.6508444  3
  10914  10932  10919  10923     1  0.0000000  1.6038667  3
  10914  10932  10919  10918     1  180.0000771  0.4184000  2
  10914  10932  10919  10918     1  0.0000000  1.6024720  3
  10915  10917  10918  10919     1  180.0000771  0.8368000  1
  10915  10917  10918  10919     1  180.0000771  1.0460000  2
  10915  10917  10918  10919     1  0.0000000  0.7531200  3
  10915  10917  10918  10937     1  0.0000000  0.6508444  3
  10915  10914  10925  10930     1  0.0000000  0.6508444  3
  10915  10914  10932  10919     1  180.0000771  0.4184000  2
  10915  10914  10932  10919     1  0.0000000  1.6024720  3
  10917  10918  10919  10923     1  0.0000000  0.6508444  3
  10917  10918  10919  10932     1  0.0000000  0.6508444  3
  10917  10915  10914  10925     1  180.0000771  0.8368000  1
  10917  10915  10914  10925     1  180.0000771  1.0460000  2
  10917  10915  10914  10925     1  0.0000000  0.7531200  3
  10917  10915  10914  10932     1  0.0000000  0.6508444  3
  10918  10917  10915  10935     1  0.0000000  0.6508444  3
  10919  10932  10914  10925     1  180.0000771  0.4184000  2
  10919  10932  10914  10925     1  0.0000000  1.6024720  3
  10919  10918  10917  10924     1  0.0000000  0.6508444  3
  10923  10919  10918  10937     1  0.0000000  0.6508444  3
  10924  10917  10918  10937     1  0.0000000  0.6508444  3
  10924  10917  10915  10935     1  0.0000000  4.9162000  2
  10924  10917  10915  10935     1  0.0000000  0.6024960  3
  10925  10914  10915  10935     1  0.0000000  0.6508444  3
  10930  10925  10914  10932     1  0.0000000  4.9162000  2
  10930  10925  10914  10932     1  0.0000000  0.6024960  3
  10932  10919  10918  10937     1  0.0000000  0.6508444  3
  10932  10914  10915  10935     1  0.0000000  4.9162000  2
  10932  10914  10915  10935     1  0.0000000  0.6024960  3
  10938  10939  10941  10942     1  180.0000771  0.8368000  1
  10938  10939  10941  10942     1  180.0000771  1.0460000  2
  10938  10939  10941  10942     1  0.0000000  0.7531200  3
  10938  10939  10941  10948     1  0.0000000  0.6508444  3
  10938  10956  10943  10947     1  0.0000000  1.6038667  3
  10938  10956  10943  10942     1  180.0000771  0.4184000  2
  10938  10956  10943  10942     1  0.0000000  1.6024720  3
  10939  10941  10942  10943     1  180.0000771  0.8368000  1
  10939  10941  10942  10943     1  180.0000771  1.0460000  2
  10939  10941  10942  10943     1  0.0000000  0.7531200  3
  10939  10941  10942  10961     1  0.0000000  0.6508444  3
  10939  10938  10949  10954     1  0.0000000  0.6508444  3
  10939  10938  10956  10943     1  180.0000771  0.4184000  2
  10939  10938  10956  10943     1  0.0000000  1.6024720  3
  10941  10942  10943  10947     1  0.0000000  0.6508444  3
  10941  10942  10943  10956     1  0.0000000  0.6508444  3
  10941  10939  10938  10949     1  180.0000771  0.8368000  1
  10941  10939  10938  10949     1  180.0000771  1.0460000  2
  10941  10939  10938  10949     1  0.0000000  0.7531200  3
  10941  10939  10938  10956     1  0.0000000  0.6508444  3
  10942  10941  10939  10959     1  0.0000000  0.6508444  3
  10943  10956  10938  10949     1  180.0000771  0.4184000  2
  10943  10956  10938  10949     1  0.0000000  1.6024720  3
  10943  10942  10941  10948     1  0.0000000  0.6508444  3
  10947  10943  10942  10961     1  0.0000000  0.6508444  3
  10948  10941  10942  10961     1  0.0000000  0.6508444  3
  10948  10941  10939  10959     1  0.0000000  4.9162000  2
  10948  10941  10939  10959     1  0.0000000  0.6024960  3
  10949  10938  10939  10959     1  0.0000000  0.6508444  3
  10954  10949  10938  10956     1  0.0000000  4.9162000  2
  10954  10949  10938  10956     1  0.0000000  0.6024960  3
  10956  10943  10942  10961     1  0.0000000  0.6508444  3
  10956  10938  10939  10959     1  0.0000000  4.9162000  2
  10956  10938  10939  10959     1  0.0000000  0.6024960  3
  10963  10965  10967  10971     1  0.0000000  0.6508444  3
  10965  10967  10971  10972     1  0.0000000  0.6508444  3
  10965  10967  10971  10973     1  0.0000000  0.6508444  3
  10967  10971  10972  10983     1  0.0000000  0.6508444  3
  10967  10971  10973  10975     1  0.0000000  0.6508444  3
  10971  10972  10983  10986     1  0.0000000  0.6508444  3
  10971  10973  10975  10979     1  0.0000000  0.6508444  3
  10972  10971  10973  10975     1  0.0000000  0.6508444  3
  10972  10983  10986  10987     1  180.0000771  0.0000000  2
  10972  10983  10986  11035     1  180.0000771  0.0000000  2
  10973  10971  10972  10983     1  0.0000000  0.6508444  3
  10973  10975  10979  10980     1  180.0000771  0.0000000  2
  10973  10975  10979  11011     1  180.0000771  0.0000000  2
  10975  10979  11011  10992     1  180.0000771  6.0668000  2
  10975  10979  11011  10992     1  180.0000771  1.4644000  4
  10979  11011  10992  10991     1  0.0000000  1.2552000  3
  10979  11011  10992  10993     1  0.0000000  1.2552000  3
  10980  10979  11011  10992     1  180.0000771  6.0668000  2
  10980  10979  11011  10992     1  180.0000771  1.4644000  4
  10983  10986  11035  11016     1  180.0000771  6.0668000  2
  10983  10986  11035  11016     1  180.0000771  1.4644000  4
  10986  11035  11016  11015     1  0.0000000  1.2552000  3
  10986  11035  11016  11017     1  0.0000000  1.2552000  3
  10987  10986  11035  11016     1  180.0000771  6.0668000  2
  10987  10986  11035  11016     1  180.0000771  1.4644000  4
  10988  10989  10991  10992     1  180.0000771  0.8368000  1
  10988  10989  10991  10992     1  180.0000771  1.0460000  2
  10988  10989  10991  10992     1  0.0000000  0.7531200  3
  10988  10989  10991  10998     1  0.0000000  0.6508444  3
  10988  11006  10993  10992     1  180.0000771  0.4184000  2
  10988  11006  10993  10992     1  0.0000000  1.6024720  3
  10988  11006  10993  10997     1  0.0000000  1.6038667  3
  10989  10988  10999  11004     1  0.0000000  0.6508444  3
  10989  10988  11006  10993     1  180.0000771  0.4184000  2
  10989  10988  11006  10993     1  0.0000000  1.6024720  3
  10989  10991  10992  10993     1  180.0000771  0.8368000  1
  10989  10991  10992  10993     1  180.0000771  1.0460000  2
  10989  10991  10992  10993     1  0.0000000  0.7531200  3
  10989  10991  10992  11011     1  0.0000000  0.6508444  3
  10991  10989  10988  10999     1  180.0000771  0.8368000  1
  10991  10989  10988  10999     1  180.0000771  1.0460000  2
  10991  10989  10988  10999     1  0.0000000  0.7531200  3
  10991  10989  10988  11006     1  0.0000000  0.6508444  3
  10991  10992  10993  10997     1  0.0000000  0.6508444  3
  10991  10992  10993  11006     1  0.0000000  0.6508444  3
  10992  10991  10989  11009     1  0.0000000  0.6508444  3
  10993  10992  10991  10998     1  0.0000000  0.6508444  3
  10993  11006  10988  10999     1  180.0000771  0.4184000  2
  10993  11006  10988  10999     1  0.0000000  1.6024720  3
  10997  10993  10992  11011     1  0.0000000  0.6508444  3
  10998  10991  10989  11009     1  0.0000000  4.9162000  2
  10998  10991  10989  11009     1  0.0000000  0.6024960  3
  10998  10991  10992  11011     1  0.0000000  0.6508444  3
  10999  10988  10989  11009     1  0.0000000  0.6508444  3
  11004  10999  10988  11006     1  0.0000000  4.9162000  2
  11004  10999  10988  11006     1  0.0000000  0.6024960  3
  11006  10988  10989  11009     1  0.0000000  4.9162000  2
  11006  10988  10989  11009     1  0.0000000  0.6024960  3
  11006  10993  10992  11011     1  0.0000000  0.6508444  3
  11012  11013  11015  11016     1  180.0000771  0.8368000  1
  11012  11013  11015  11016     1  180.0000771  1.0460000  2
  11012  11013  11015  11016     1  0.0000000  0.7531200  3
  11012  11013  11015  11022     1  0.0000000  0.6508444  3
  11012  11030  11017  11016     1  180.0000771  0.4184000  2
  11012  11030  11017  11016     1  0.0000000  1.6024720  3
  11012  11030  11017  11021     1  0.0000000  1.6038667  3
  11013  11012  11023  11028     1  0.0000000  0.6508444  3
  11013  11012  11030  11017     1  180.0000771  0.4184000  2
  11013  11012  11030  11017     1  0.0000000  1.6024720  3
  11013  11015  11016  11017     1  180.0000771  0.8368000  1
  11013  11015  11016  11017     1  180.0000771  1.0460000  2
  11013  11015  11016  11017     1  0.0000000  0.7531200  3
  11013  11015  11016  11035     1  0.0000000  0.6508444  3
  11015  11013  11012  11023     1  180.0000771  0.8368000  1
  11015  11013  11012  11023     1  180.0000771  1.0460000  2
  11015  11013  11012  11023     1  0.0000000  0.7531200  3
  11015  11013  11012  11030     1  0.0000000  0.6508444  3
  11015  11016  11017  11021     1  0.0000000  0.6508444  3
  11015  11016  11017  11030     1  0.0000000  0.6508444  3
  11016  11015  11013  11033     1  0.0000000  0.6508444  3
  11017  11016  11015  11022     1  0.0000000  0.6508444  3
  11017  11030  11012  11023     1  180.0000771  0.4184000  2
  11017  11030  11012  11023     1  0.0000000  1.6024720  3
  11021  11017  11016  11035     1  0.0000000  0.6508444  3
  11022  11015  11013  11033     1  0.0000000  4.9162000  2
  11022  11015  11013  11033     1  0.0000000  0.6024960  3
  11022  11015  11016  11035     1  0.0000000  0.6508444  3
  11023  11012  11013  11033     1  0.0000000  0.6508444  3
  11028  11023  11012  11030     1  0.0000000  4.9162000  2
  11028  11023  11012  11030     1  0.0000000  0.6024960  3
  11030  11012  11013  11033     1  0.0000000  4.9162000  2
  11030  11012  11013  11033     1  0.0000000  0.6024960  3
  11030  11017  11016  11035     1  0.0000000  0.6508444  3
  11037  11039  11041  11045     1  0.0000000  0.6508444  3
  11039  11041  11045  11046     1  0.0000000  0.6508444  3
  11039  11041  11045  11047     1  0.0000000  0.6508444  3
  11041  11045  11046  11057     1  0.0000000  0.6508444  3
  11041  11045  11047  11049     1  0.0000000  0.6508444  3
  11045  11046  11057  11060     1  0.0000000  0.6508444  3
  11045  11047  11049  11053     1  0.0000000  0.6508444  3
  11046  11057  11060  11061     1  180.0000771  0.0000000  2
  11046  11057  11060  11109     1  180.0000771  0.0000000  2
  11046  11045  11047  11049     1  0.0000000  0.6508444  3
  11047  11049  11053  11054     1  180.0000771  0.0000000  2
  11047  11049  11053  11085     1  180.0000771  0.0000000  2
  11047  11045  11046  11057     1  0.0000000  0.6508444  3
  11049  11053  11085  11066     1  180.0000771  6.0668000  2
  11049  11053  11085  11066     1  180.0000771  1.4644000  4
  11053  11085  11066  11067     1  0.0000000  1.2552000  3
  11053  11085  11066  11065     1  0.0000000  1.2552000  3
  11054  11053  11085  11066     1  180.0000771  6.0668000  2
  11054  11053  11085  11066     1  180.0000771  1.4644000  4
  11057  11060  11109  11090     1  180.0000771  6.0668000  2
  11057  11060  11109  11090     1  180.0000771  1.4644000  4
  11060  11109  11090  11091     1  0.0000000  1.2552000  3
  11060  11109  11090  11089     1  0.0000000  1.2552000  3
  11061  11060  11109  11090     1  180.0000771  6.0668000  2
  11061  11060  11109  11090     1  180.0000771  1.4644000  4
  11062  11063  11065  11066     1  180.0000771  0.8368000  1
  11062  11063  11065  11066     1  180.0000771  1.0460000  2
  11062  11063  11065  11066     1  0.0000000  0.7531200  3
  11062  11063  11065  11072     1  0.0000000  0.6508444  3
  11062  11080  11067  11071     1  0.0000000  1.6038667  3
  11062  11080  11067  11066     1  180.0000771  0.4184000  2
  11062  11080  11067  11066     1  0.0000000  1.6024720  3
  11063  11065  11066  11067     1  180.0000771  0.8368000  1
  11063  11065  11066  11067     1  180.0000771  1.0460000  2
  11063  11065  11066  11067     1  0.0000000  0.7531200  3
  11063  11065  11066  11085     1  0.0000000  0.6508444  3
  11063  11062  11073  11078     1  0.0000000  0.6508444  3
  11063  11062  11080  11067     1  180.0000771  0.4184000  2
  11063  11062  11080  11067     1  0.0000000  1.6024720  3
  11065  11066  11067  11071     1  0.0000000  0.6508444  3
  11065  11066  11067  11080     1  0.0000000  0.6508444  3
  11065  11063  11062  11073     1  180.0000771  0.8368000  1
  11065  11063  11062  11073     1  180.0000771  1.0460000  2
  11065  11063  11062  11073     1  0.0000000  0.7531200  3
  11065  11063  11062  11080     1  0.0000000  0.6508444  3
  11066  11065  11063  11083     1  0.0000000  0.6508444  3
  11067  11080  11062  11073     1  180.0000771  0.4184000  2
  11067  11080  11062  11073     1  0.0000000  1.6024720  3
  11067  11066  11065  11072     1  0.0000000  0.6508444  3
  11071  11067  11066  11085     1  0.0000000  0.6508444  3
  11072  11065  11066  11085     1  0.0000000  0.6508444  3
  11072  11065  11063  11083     1  0.0000000  4.9162000  2
  11072  11065  11063  11083     1  0.0000000  0.6024960  3
  11073  11062  11063  11083     1  0.0000000  0.6508444  3
  11078  11073  11062  11080     1  0.0000000  4.9162000  2
  11078  11073  11062  11080     1  0.0000000  0.6024960  3
  11080  11067  11066  11085     1  0.0000000  0.6508444  3
  11080  11062  11063  11083     1  0.0000000  4.9162000  2
  11080  11062  11063  11083     1  0.0000000  0.6024960  3
  11086  11087  11089  11090     1  180.0000771  0.8368000  1
  11086  11087  11089  11090     1  180.0000771  1.0460000  2
  11086  11087  11089  11090     1  0.0000000  0.7531200  3
  11086  11087  11089  11096     1  0.0000000  0.6508444  3
  11086  11104  11091  11095     1  0.0000000  1.6038667  3
  11086  11104  11091  11090     1  180.0000771  0.4184000  2
  11086  11104  11091  11090     1  0.0000000  1.6024720  3
  11087  11089  11090  11091     1  180.0000771  0.8368000  1
  11087  11089  11090  11091     1  180.0000771  1.0460000  2
  11087  11089  11090  11091     1  0.0000000  0.7531200  3
  11087  11089  11090  11109     1  0.0000000  0.6508444  3
  11087  11086  11097  11102     1  0.0000000  0.6508444  3
  11087  11086  11104  11091     1  180.0000771  0.4184000  2
  11087  11086  11104  11091     1  0.0000000  1.6024720  3
  11089  11090  11091  11095     1  0.0000000  0.6508444  3
  11089  11090  11091  11104     1  0.0000000  0.6508444  3
  11089  11087  11086  11097     1  180.0000771  0.8368000  1
  11089  11087  11086  11097     1  180.0000771  1.0460000  2
  11089  11087  11086  11097     1  0.0000000  0.7531200  3
  11089  11087  11086  11104     1  0.0000000  0.6508444  3
  11090  11089  11087  11107     1  0.0000000  0.6508444  3
  11091  11104  11086  11097     1  180.0000771  0.4184000  2
  11091  11104  11086  11097     1  0.0000000  1.6024720  3
  11091  11090  11089  11096     1  0.0000000  0.6508444  3
  11095  11091  11090  11109     1  0.0000000  0.6508444  3
  11096  11089  11090  11109     1  0.0000000  0.6508444  3
  11096  11089  11087  11107     1  0.0000000  4.9162000  2
  11096  11089  11087  11107     1  0.0000000  0.6024960  3
  11097  11086  11087  11107     1  0.0000000  0.6508444  3
  11102  11097  11086  11104     1  0.0000000  4.9162000  2
  11102  11097  11086  11104     1  0.0000000  0.6024960  3
  11104  11091  11090  11109     1  0.0000000  0.6508444  3
  11104  11086  11087  11107     1  0.0000000  4.9162000  2
  11104  11086  11087  11107     1  0.0000000  0.6024960  3
  11111  11113  11115  11119     1  0.0000000  0.6508444  3
  11113  11115  11119  11120     1  0.0000000  0.6508444  3
  11113  11115  11119  11121     1  0.0000000  0.6508444  3
  11115  11119  11120  11131     1  0.0000000  0.6508444  3
  11115  11119  11121  11123     1  0.0000000  0.6508444  3
  11119  11120  11131  11134     1  0.0000000  0.6508444  3
  11119  11121  11123  11127     1  0.0000000  0.6508444  3
  11120  11119  11121  11123     1  0.0000000  0.6508444  3
  11120  11131  11134  11135     1  180.0000771  0.0000000  2
  11120  11131  11134  11183     1  180.0000771  0.0000000  2
  11121  11119  11120  11131     1  0.0000000  0.6508444  3
  11121  11123  11127  11128     1  180.0000771  0.0000000  2
  11121  11123  11127  11159     1  180.0000771  0.0000000  2
  11123  11127  11159  11140     1  180.0000771  6.0668000  2
  11123  11127  11159  11140     1  180.0000771  1.4644000  4
  11127  11159  11140  11139     1  0.0000000  1.2552000  3
  11127  11159  11140  11141     1  0.0000000  1.2552000  3
  11128  11127  11159  11140     1  180.0000771  6.0668000  2
  11128  11127  11159  11140     1  180.0000771  1.4644000  4
  11131  11134  11183  11164     1  180.0000771  6.0668000  2
  11131  11134  11183  11164     1  180.0000771  1.4644000  4
  11134  11183  11164  11163     1  0.0000000  1.2552000  3
  11134  11183  11164  11165     1  0.0000000  1.2552000  3
  11135  11134  11183  11164     1  180.0000771  6.0668000  2
  11135  11134  11183  11164     1  180.0000771  1.4644000  4
  11136  11137  11139  11140     1  180.0000771  0.8368000  1
  11136  11137  11139  11140     1  180.0000771  1.0460000  2
  11136  11137  11139  11140     1  0.0000000  0.7531200  3
  11136  11137  11139  11146     1  0.0000000  0.6508444  3
  11136  11154  11141  11140     1  180.0000771  0.4184000  2
  11136  11154  11141  11140     1  0.0000000  1.6024720  3
  11136  11154  11141  11145     1  0.0000000  1.6038667  3
  11137  11136  11147  11152     1  0.0000000  0.6508444  3
  11137  11136  11154  11141     1  180.0000771  0.4184000  2
  11137  11136  11154  11141     1  0.0000000  1.6024720  3
  11137  11139  11140  11141     1  180.0000771  0.8368000  1
  11137  11139  11140  11141     1  180.0000771  1.0460000  2
  11137  11139  11140  11141     1  0.0000000  0.7531200  3
  11137  11139  11140  11159     1  0.0000000  0.6508444  3
  11139  11137  11136  11147     1  180.0000771  0.8368000  1
  11139  11137  11136  11147     1  180.0000771  1.0460000  2
  11139  11137  11136  11147     1  0.0000000  0.7531200  3
  11139  11137  11136  11154     1  0.0000000  0.6508444  3
  11139  11140  11141  11145     1  0.0000000  0.6508444  3
  11139  11140  11141  11154     1  0.0000000  0.6508444  3
  11140  11139  11137  11157     1  0.0000000  0.6508444  3
  11141  11140  11139  11146     1  0.0000000  0.6508444  3
  11141  11154  11136  11147     1  180.0000771  0.4184000  2
  11141  11154  11136  11147     1  0.0000000  1.6024720  3
  11145  11141  11140  11159     1  0.0000000  0.6508444  3
  11146  11139  11137  11157     1  0.0000000  4.9162000  2
  11146  11139  11137  11157     1  0.0000000  0.6024960  3
  11146  11139  11140  11159     1  0.0000000  0.6508444  3
  11147  11136  11137  11157     1  0.0000000  0.6508444  3
  11152  11147  11136  11154     1  0.0000000  4.9162000  2
  11152  11147  11136  11154     1  0.0000000  0.6024960  3
  11154  11136  11137  11157     1  0.0000000  4.9162000  2
  11154  11136  11137  11157     1  0.0000000  0.6024960  3
  11154  11141  11140  11159     1  0.0000000  0.6508444  3
  11160  11161  11163  11164     1  180.0000771  0.8368000  1
  11160  11161  11163  11164     1  180.0000771  1.0460000  2
  11160  11161  11163  11164     1  0.0000000  0.7531200  3
  11160  11161  11163  11170     1  0.0000000  0.6508444  3
  11160  11178  11165  11164     1  180.0000771  0.4184000  2
  11160  11178  11165  11164     1  0.0000000  1.6024720  3
  11160  11178  11165  11169     1  0.0000000  1.6038667  3
  11161  11160  11171  11176     1  0.0000000  0.6508444  3
  11161  11160  11178  11165     1  180.0000771  0.4184000  2
  11161  11160  11178  11165     1  0.0000000  1.6024720  3
  11161  11163  11164  11165     1  180.0000771  0.8368000  1
  11161  11163  11164  11165     1  180.0000771  1.0460000  2
  11161  11163  11164  11165     1  0.0000000  0.7531200  3
  11161  11163  11164  11183     1  0.0000000  0.6508444  3
  11163  11161  11160  11171     1  180.0000771  0.8368000  1
  11163  11161  11160  11171     1  180.0000771  1.0460000  2
  11163  11161  11160  11171     1  0.0000000  0.7531200  3
  11163  11161  11160  11178     1  0.0000000  0.6508444  3
  11163  11164  11165  11169     1  0.0000000  0.6508444  3
  11163  11164  11165  11178     1  0.0000000  0.6508444  3
  11164  11163  11161  11181     1  0.0000000  0.6508444  3
  11165  11164  11163  11170     1  0.0000000  0.6508444  3
  11165  11178  11160  11171     1  180.0000771  0.4184000  2
  11165  11178  11160  11171     1  0.0000000  1.6024720  3
  11169  11165  11164  11183     1  0.0000000  0.6508444  3
  11170  11163  11161  11181     1  0.0000000  4.9162000  2
  11170  11163  11161  11181     1  0.0000000  0.6024960  3
  11170  11163  11164  11183     1  0.0000000  0.6508444  3
  11171  11160  11161  11181     1  0.0000000  0.6508444  3
  11176  11171  11160  11178     1  0.0000000  4.9162000  2
  11176  11171  11160  11178     1  0.0000000  0.6024960  3
  11178  11160  11161  11181     1  0.0000000  4.9162000  2
  11178  11160  11161  11181     1  0.0000000  0.6024960  3
  11178  11165  11164  11183     1  0.0000000  0.6508444  3
  11185  11187  11189  11193     1  0.0000000  0.6508444  3
  11187  11189  11193  11194     1  0.0000000  0.6508444  3
  11187  11189  11193  11195     1  0.0000000  0.6508444  3
  11189  11193  11194  11205     1  0.0000000  0.6508444  3
  11189  11193  11195  11197     1  0.0000000  0.6508444  3
  11193  11194  11205  11208     1  0.0000000  0.6508444  3
  11193  11195  11197  11201     1  0.0000000  0.6508444  3
  11194  11205  11208  11209     1  180.0000771  0.0000000  2
  11194  11205  11208  11257     1  180.0000771  0.0000000  2
  11194  11193  11195  11197     1  0.0000000  0.6508444  3
  11195  11197  11201  11202     1  180.0000771  0.0000000  2
  11195  11197  11201  11233     1  180.0000771  0.0000000  2
  11195  11193  11194  11205     1  0.0000000  0.6508444  3
  11197  11201  11233  11214     1  180.0000771  6.0668000  2
  11197  11201  11233  11214     1  180.0000771  1.4644000  4
  11201  11233  11214  11215     1  0.0000000  1.2552000  3
  11201  11233  11214  11213     1  0.0000000  1.2552000  3
  11202  11201  11233  11214     1  180.0000771  6.0668000  2
  11202  11201  11233  11214     1  180.0000771  1.4644000  4
  11205  11208  11257  11238     1  180.0000771  6.0668000  2
  11205  11208  11257  11238     1  180.0000771  1.4644000  4
  11208  11257  11238  11239     1  0.0000000  1.2552000  3
  11208  11257  11238  11237     1  0.0000000  1.2552000  3
  11209  11208  11257  11238     1  180.0000771  6.0668000  2
  11209  11208  11257  11238     1  180.0000771  1.4644000  4
  11210  11211  11213  11214     1  180.0000771  0.8368000  1
  11210  11211  11213  11214     1  180.0000771  1.0460000  2
  11210  11211  11213  11214     1  0.0000000  0.7531200  3
  11210  11211  11213  11220     1  0.0000000  0.6508444  3
  11210  11228  11215  11219     1  0.0000000  1.6038667  3
  11210  11228  11215  11214     1  180.0000771  0.4184000  2
  11210  11228  11215  11214     1  0.0000000  1.6024720  3
  11211  11213  11214  11215     1  180.0000771  0.8368000  1
  11211  11213  11214  11215     1  180.0000771  1.0460000  2
  11211  11213  11214  11215     1  0.0000000  0.7531200  3
  11211  11213  11214  11233     1  0.0000000  0.6508444  3
  11211  11210  11221  11226     1  0.0000000  0.6508444  3
  11211  11210  11228  11215     1  180.0000771  0.4184000  2
  11211  11210  11228  11215     1  0.0000000  1.6024720  3
  11213  11214  11215  11219     1  0.0000000  0.6508444  3
  11213  11214  11215  11228     1  0.0000000  0.6508444  3
  11213  11211  11210  11221     1  180.0000771  0.8368000  1
  11213  11211  11210  11221     1  180.0000771  1.0460000  2
  11213  11211  11210  11221     1  0.0000000  0.7531200  3
  11213  11211  11210  11228     1  0.0000000  0.6508444  3
  11214  11213  11211  11231     1  0.0000000  0.6508444  3
  11215  11228  11210  11221     1  180.0000771  0.4184000  2
  11215  11228  11210  11221     1  0.0000000  1.6024720  3
  11215  11214  11213  11220     1  0.0000000  0.6508444  3
  11219  11215  11214  11233     1  0.0000000  0.6508444  3
  11220  11213  11214  11233     1  0.0000000  0.6508444  3
  11220  11213  11211  11231     1  0.0000000  4.9162000  2
  11220  11213  11211  11231     1  0.0000000  0.6024960  3
  11221  11210  11211  11231     1  0.0000000  0.6508444  3
  11226  11221  11210  11228     1  0.0000000  4.9162000  2
  11226  11221  11210  11228     1  0.0000000  0.6024960  3
  11228  11215  11214  11233     1  0.0000000  0.6508444  3
  11228  11210  11211  11231     1  0.0000000  4.9162000  2
  11228  11210  11211  11231     1  0.0000000  0.6024960  3
  11234  11235  11237  11238     1  180.0000771  0.8368000  1
  11234  11235  11237  11238     1  180.0000771  1.0460000  2
  11234  11235  11237  11238     1  0.0000000  0.7531200  3
  11234  11235  11237  11244     1  0.0000000  0.6508444  3
  11234  11252  11239  11243     1  0.0000000  1.6038667  3
  11234  11252  11239  11238     1  180.0000771  0.4184000  2
  11234  11252  11239  11238     1  0.0000000  1.6024720  3
  11235  11237  11238  11239     1  180.0000771  0.8368000  1
  11235  11237  11238  11239     1  180.0000771  1.0460000  2
  11235  11237  11238  11239     1  0.0000000  0.7531200  3
  11235  11237  11238  11257     1  0.0000000  0.6508444  3
  11235  11234  11245  11250     1  0.0000000  0.6508444  3
  11235  11234  11252  11239     1  180.0000771  0.4184000  2
  11235  11234  11252  11239     1  0.0000000  1.6024720  3
  11237  11238  11239  11243     1  0.0000000  0.6508444  3
  11237  11238  11239  11252     1  0.0000000  0.6508444  3
  11237  11235  11234  11245     1  180.0000771  0.8368000  1
  11237  11235  11234  11245     1  180.0000771  1.0460000  2
  11237  11235  11234  11245     1  0.0000000  0.7531200  3
  11237  11235  11234  11252     1  0.0000000  0.6508444  3
  11238  11237  11235  11255     1  0.0000000  0.6508444  3
  11239  11252  11234  11245     1  180.0000771  0.4184000  2
  11239  11252  11234  11245     1  0.0000000  1.6024720  3
  11239  11238  11237  11244     1  0.0000000  0.6508444  3
  11243  11239  11238  11257     1  0.0000000  0.6508444  3
  11244  11237  11238  11257     1  0.0000000  0.6508444  3
  11244  11237  11235  11255     1  0.0000000  4.9162000  2
  11244  11237  11235  11255     1  0.0000000  0.6024960  3
  11245  11234  11235  11255     1  0.0000000  0.6508444  3
  11250  11245  11234  11252     1  0.0000000  4.9162000  2
  11250  11245  11234  11252     1  0.0000000  0.6024960  3
  11252  11239  11238  11257     1  0.0000000  0.6508444  3
  11252  11234  11235  11255     1  0.0000000  4.9162000  2
  11252  11234  11235  11255     1  0.0000000  0.6024960  3
  11259  11261  11263  11267     1  0.0000000  0.6508444  3
  11261  11263  11267  11268     1  0.0000000  0.6508444  3
  11261  11263  11267  11269     1  0.0000000  0.6508444  3
  11263  11267  11268  11279     1  0.0000000  0.6508444  3
  11263  11267  11269  11271     1  0.0000000  0.6508444  3
  11267  11268  11279  11282     1  0.0000000  0.6508444  3
  11267  11269  11271  11275     1  0.0000000  0.6508444  3
  11268  11267  11269  11271     1  0.0000000  0.6508444  3
  11268  11279  11282  11283     1  180.0000771  0.0000000  2
  11268  11279  11282  11331     1  180.0000771  0.0000000  2
  11269  11267  11268  11279     1  0.0000000  0.6508444  3
  11269  11271  11275  11276     1  180.0000771  0.0000000  2
  11269  11271  11275  11307     1  180.0000771  0.0000000  2
  11271  11275  11307  11288     1  180.0000771  6.0668000  2
  11271  11275  11307  11288     1  180.0000771  1.4644000  4
  11275  11307  11288  11287     1  0.0000000  1.2552000  3
  11275  11307  11288  11289     1  0.0000000  1.2552000  3
  11276  11275  11307  11288     1  180.0000771  6.0668000  2
  11276  11275  11307  11288     1  180.0000771  1.4644000  4
  11279  11282  11331  11312     1  180.0000771  6.0668000  2
  11279  11282  11331  11312     1  180.0000771  1.4644000  4
  11282  11331  11312  11311     1  0.0000000  1.2552000  3
  11282  11331  11312  11313     1  0.0000000  1.2552000  3
  11283  11282  11331  11312     1  180.0000771  6.0668000  2
  11283  11282  11331  11312     1  180.0000771  1.4644000  4
  11284  11285  11287  11288     1  180.0000771  0.8368000  1
  11284  11285  11287  11288     1  180.0000771  1.0460000  2
  11284  11285  11287  11288     1  0.0000000  0.7531200  3
  11284  11285  11287  11294     1  0.0000000  0.6508444  3
  11284  11302  11289  11288     1  180.0000771  0.4184000  2
  11284  11302  11289  11288     1  0.0000000  1.6024720  3
  11284  11302  11289  11293     1  0.0000000  1.6038667  3
  11285  11284  11295  11300     1  0.0000000  0.6508444  3
  11285  11284  11302  11289     1  180.0000771  0.4184000  2
  11285  11284  11302  11289     1  0.0000000  1.6024720  3
  11285  11287  11288  11289     1  180.0000771  0.8368000  1
  11285  11287  11288  11289     1  180.0000771  1.0460000  2
  11285  11287  11288  11289     1  0.0000000  0.7531200  3
  11285  11287  11288  11307     1  0.0000000  0.6508444  3
  11287  11285  11284  11295     1  180.0000771  0.8368000  1
  11287  11285  11284  11295     1  180.0000771  1.0460000  2
  11287  11285  11284  11295     1  0.0000000  0.7531200  3
  11287  11285  11284  11302     1  0.0000000  0.6508444  3
  11287  11288  11289  11293     1  0.0000000  0.6508444  3
  11287  11288  11289  11302     1  0.0000000  0.6508444  3
  11288  11287  11285  11305     1  0.0000000  0.6508444  3
  11289  11288  11287  11294     1  0.0000000  0.6508444  3
  11289  11302  11284  11295     1  180.0000771  0.4184000  2
  11289  11302  11284  11295     1  0.0000000  1.6024720  3
  11293  11289  11288  11307     1  0.0000000  0.6508444  3
  11294  11287  11285  11305     1  0.0000000  4.9162000  2
  11294  11287  11285  11305     1  0.0000000  0.6024960  3
  11294  11287  11288  11307     1  0.0000000  0.6508444  3
  11295  11284  11285  11305     1  0.0000000  0.6508444  3
  11300  11295  11284  11302     1  0.0000000  4.9162000  2
  11300  11295  11284  11302     1  0.0000000  0.6024960  3
  11302  11284  11285  11305     1  0.0000000  4.9162000  2
  11302  11284  11285  11305     1  0.0000000  0.6024960  3
  11302  11289  11288  11307     1  0.0000000  0.6508444  3
  11308  11309  11311  11312     1  180.0000771  0.8368000  1
  11308  11309  11311  11312     1  180.0000771  1.0460000  2
  11308  11309  11311  11312     1  0.0000000  0.7531200  3
  11308  11309  11311  11318     1  0.0000000  0.6508444  3
  11308  11326  11313  11312     1  180.0000771  0.4184000  2
  11308  11326  11313  11312     1  0.0000000  1.6024720  3
  11308  11326  11313  11317     1  0.0000000  1.6038667  3
  11309  11308  11319  11324     1  0.0000000  0.6508444  3
  11309  11308  11326  11313     1  180.0000771  0.4184000  2
  11309  11308  11326  11313     1  0.0000000  1.6024720  3
  11309  11311  11312  11313     1  180.0000771  0.8368000  1
  11309  11311  11312  11313     1  180.0000771  1.0460000  2
  11309  11311  11312  11313     1  0.0000000  0.7531200  3
  11309  11311  11312  11331     1  0.0000000  0.6508444  3
  11311  11309  11308  11319     1  180.0000771  0.8368000  1
  11311  11309  11308  11319     1  180.0000771  1.0460000  2
  11311  11309  11308  11319     1  0.0000000  0.7531200  3
  11311  11309  11308  11326     1  0.0000000  0.6508444  3
  11311  11312  11313  11317     1  0.0000000  0.6508444  3
  11311  11312  11313  11326     1  0.0000000  0.6508444  3
  11312  11311  11309  11329     1  0.0000000  0.6508444  3
  11313  11312  11311  11318     1  0.0000000  0.6508444  3
  11313  11326  11308  11319     1  180.0000771  0.4184000  2
  11313  11326  11308  11319     1  0.0000000  1.6024720  3
  11317  11313  11312  11331     1  0.0000000  0.6508444  3
  11318  11311  11309  11329     1  0.0000000  4.9162000  2
  11318  11311  11309  11329     1  0.0000000  0.6024960  3
  11318  11311  11312  11331     1  0.0000000  0.6508444  3
  11319  11308  11309  11329     1  0.0000000  0.6508444  3
  11324  11319  11308  11326     1  0.0000000  4.9162000  2
  11324  11319  11308  11326     1  0.0000000  0.6024960  3
  11326  11308  11309  11329     1  0.0000000  4.9162000  2
  11326  11308  11309  11329     1  0.0000000  0.6024960  3
  11326  11313  11312  11331     1  0.0000000  0.6508444  3
  11333  11335  11337  11341     1  0.0000000  0.6508444  3
  11335  11337  11341  11342     1  0.0000000  0.6508444  3
  11335  11337  11341  11343     1  0.0000000  0.6508444  3
  11337  11341  11342  11353     1  0.0000000  0.6508444  3
  11337  11341  11343  11345     1  0.0000000  0.6508444  3
  11341  11342  11353  11356     1  0.0000000  0.6508444  3
  11341  11343  11345  11349     1  0.0000000  0.6508444  3
  11342  11353  11356  11357     1  180.0000771  0.0000000  2
  11342  11353  11356  11405     1  180.0000771  0.0000000  2
  11342  11341  11343  11345     1  0.0000000  0.6508444  3
  11343  11345  11349  11350     1  180.0000771  0.0000000  2
  11343  11345  11349  11381     1  180.0000771  0.0000000  2
  11343  11341  11342  11353     1  0.0000000  0.6508444  3
  11345  11349  11381  11362     1  180.0000771  6.0668000  2
  11345  11349  11381  11362     1  180.0000771  1.4644000  4
  11349  11381  11362  11363     1  0.0000000  1.2552000  3
  11349  11381  11362  11361     1  0.0000000  1.2552000  3
  11350  11349  11381  11362     1  180.0000771  6.0668000  2
  11350  11349  11381  11362     1  180.0000771  1.4644000  4
  11353  11356  11405  11386     1  180.0000771  6.0668000  2
  11353  11356  11405  11386     1  180.0000771  1.4644000  4
  11356  11405  11386  11387     1  0.0000000  1.2552000  3
  11356  11405  11386  11385     1  0.0000000  1.2552000  3
  11357  11356  11405  11386     1  180.0000771  6.0668000  2
  11357  11356  11405  11386     1  180.0000771  1.4644000  4
  11358  11359  11361  11362     1  180.0000771  0.8368000  1
  11358  11359  11361  11362     1  180.0000771  1.0460000  2
  11358  11359  11361  11362     1  0.0000000  0.7531200  3
  11358  11359  11361  11368     1  0.0000000  0.6508444  3
  11358  11376  11363  11367     1  0.0000000  1.6038667  3
  11358  11376  11363  11362     1  180.0000771  0.4184000  2
  11358  11376  11363  11362     1  0.0000000  1.6024720  3
  11359  11361  11362  11363     1  180.0000771  0.8368000  1
  11359  11361  11362  11363     1  180.0000771  1.0460000  2
  11359  11361  11362  11363     1  0.0000000  0.7531200  3
  11359  11361  11362  11381     1  0.0000000  0.6508444  3
  11359  11358  11369  11374     1  0.0000000  0.6508444  3
  11359  11358  11376  11363     1  180.0000771  0.4184000  2
  11359  11358  11376  11363     1  0.0000000  1.6024720  3
  11361  11362  11363  11367     1  0.0000000  0.6508444  3
  11361  11362  11363  11376     1  0.0000000  0.6508444  3
  11361  11359  11358  11369     1  180.0000771  0.8368000  1
  11361  11359  11358  11369     1  180.0000771  1.0460000  2
  11361  11359  11358  11369     1  0.0000000  0.7531200  3
  11361  11359  11358  11376     1  0.0000000  0.6508444  3
  11362  11361  11359  11379     1  0.0000000  0.6508444  3
  11363  11376  11358  11369     1  180.0000771  0.4184000  2
  11363  11376  11358  11369     1  0.0000000  1.6024720  3
  11363  11362  11361  11368     1  0.0000000  0.6508444  3
  11367  11363  11362  11381     1  0.0000000  0.6508444  3
  11368  11361  11362  11381     1  0.0000000  0.6508444  3
  11368  11361  11359  11379     1  0.0000000  4.9162000  2
  11368  11361  11359  11379     1  0.0000000  0.6024960  3
  11369  11358  11359  11379     1  0.0000000  0.6508444  3
  11374  11369  11358  11376     1  0.0000000  4.9162000  2
  11374  11369  11358  11376     1  0.0000000  0.6024960  3
  11376  11363  11362  11381     1  0.0000000  0.6508444  3
  11376  11358  11359  11379     1  0.0000000  4.9162000  2
  11376  11358  11359  11379     1  0.0000000  0.6024960  3
  11382  11383  11385  11386     1  180.0000771  0.8368000  1
  11382  11383  11385  11386     1  180.0000771  1.0460000  2
  11382  11383  11385  11386     1  0.0000000  0.7531200  3
  11382  11383  11385  11392     1  0.0000000  0.6508444  3
  11382  11400  11387  11391     1  0.0000000  1.6038667  3
  11382  11400  11387  11386     1  180.0000771  0.4184000  2
  11382  11400  11387  11386     1  0.0000000  1.6024720  3
  11383  11385  11386  11387     1  180.0000771  0.8368000  1
  11383  11385  11386  11387     1  180.0000771  1.0460000  2
  11383  11385  11386  11387     1  0.0000000  0.7531200  3
  11383  11385  11386  11405     1  0.0000000  0.6508444  3
  11383  11382  11393  11398     1  0.0000000  0.6508444  3
  11383  11382  11400  11387     1  180.0000771  0.4184000  2
  11383  11382  11400  11387     1  0.0000000  1.6024720  3
  11385  11386  11387  11391     1  0.0000000  0.6508444  3
  11385  11386  11387  11400     1  0.0000000  0.6508444  3
  11385  11383  11382  11393     1  180.0000771  0.8368000  1
  11385  11383  11382  11393     1  180.0000771  1.0460000  2
  11385  11383  11382  11393     1  0.0000000  0.7531200  3
  11385  11383  11382  11400     1  0.0000000  0.6508444  3
  11386  11385  11383  11403     1  0.0000000  0.6508444  3
  11387  11400  11382  11393     1  180.0000771  0.4184000  2
  11387  11400  11382  11393     1  0.0000000  1.6024720  3
  11387  11386  11385  11392     1  0.0000000  0.6508444  3
  11391  11387  11386  11405     1  0.0000000  0.6508444  3
  11392  11385  11386  11405     1  0.0000000  0.6508444  3
  11392  11385  11383  11403     1  0.0000000  4.9162000  2
  11392  11385  11383  11403     1  0.0000000  0.6024960  3
  11393  11382  11383  11403     1  0.0000000  0.6508444  3
  11398  11393  11382  11400     1  0.0000000  4.9162000  2
  11398  11393  11382  11400     1  0.0000000  0.6024960  3
  11400  11387  11386  11405     1  0.0000000  0.6508444  3
  11400  11382  11383  11403     1  0.0000000  4.9162000  2
  11400  11382  11383  11403     1  0.0000000  0.6024960  3
  11407  11409  11411  11415     1  0.0000000  0.6508444  3
  11409  11411  11415  11416     1  0.0000000  0.6508444  3
  11409  11411  11415  11417     1  0.0000000  0.6508444  3
  11411  11415  11416  11427     1  0.0000000  0.6508444  3
  11411  11415  11417  11419     1  0.0000000  0.6508444  3
  11415  11416  11427  11430     1  0.0000000  0.6508444  3
  11415  11417  11419  11423     1  0.0000000  0.6508444  3
  11416  11415  11417  11419     1  0.0000000  0.6508444  3
  11416  11427  11430  11431     1  180.0000771  0.0000000  2
  11416  11427  11430  11479     1  180.0000771  0.0000000  2
  11417  11415  11416  11427     1  0.0000000  0.6508444  3
  11417  11419  11423  11424     1  180.0000771  0.0000000  2
  11417  11419  11423  11455     1  180.0000771  0.0000000  2
  11419  11423  11455  11436     1  180.0000771  6.0668000  2
  11419  11423  11455  11436     1  180.0000771  1.4644000  4
  11423  11455  11436  11435     1  0.0000000  1.2552000  3
  11423  11455  11436  11437     1  0.0000000  1.2552000  3
  11424  11423  11455  11436     1  180.0000771  6.0668000  2
  11424  11423  11455  11436     1  180.0000771  1.4644000  4
  11427  11430  11479  11460     1  180.0000771  6.0668000  2
  11427  11430  11479  11460     1  180.0000771  1.4644000  4
  11430  11479  11460  11459     1  0.0000000  1.2552000  3
  11430  11479  11460  11461     1  0.0000000  1.2552000  3
  11431  11430  11479  11460     1  180.0000771  6.0668000  2
  11431  11430  11479  11460     1  180.0000771  1.4644000  4
  11432  11433  11435  11436     1  180.0000771  0.8368000  1
  11432  11433  11435  11436     1  180.0000771  1.0460000  2
  11432  11433  11435  11436     1  0.0000000  0.7531200  3
  11432  11433  11435  11442     1  0.0000000  0.6508444  3
  11432  11450  11437  11436     1  180.0000771  0.4184000  2
  11432  11450  11437  11436     1  0.0000000  1.6024720  3
  11432  11450  11437  11441     1  0.0000000  1.6038667  3
  11433  11432  11443  11448     1  0.0000000  0.6508444  3
  11433  11432  11450  11437     1  180.0000771  0.4184000  2
  11433  11432  11450  11437     1  0.0000000  1.6024720  3
  11433  11435  11436  11437     1  180.0000771  0.8368000  1
  11433  11435  11436  11437     1  180.0000771  1.0460000  2
  11433  11435  11436  11437     1  0.0000000  0.7531200  3
  11433  11435  11436  11455     1  0.0000000  0.6508444  3
  11435  11433  11432  11443     1  180.0000771  0.8368000  1
  11435  11433  11432  11443     1  180.0000771  1.0460000  2
  11435  11433  11432  11443     1  0.0000000  0.7531200  3
  11435  11433  11432  11450     1  0.0000000  0.6508444  3
  11435  11436  11437  11441     1  0.0000000  0.6508444  3
  11435  11436  11437  11450     1  0.0000000  0.6508444  3
  11436  11435  11433  11453     1  0.0000000  0.6508444  3
  11437  11436  11435  11442     1  0.0000000  0.6508444  3
  11437  11450  11432  11443     1  180.0000771  0.4184000  2
  11437  11450  11432  11443     1  0.0000000  1.6024720  3
  11441  11437  11436  11455     1  0.0000000  0.6508444  3
  11442  11435  11433  11453     1  0.0000000  4.9162000  2
  11442  11435  11433  11453     1  0.0000000  0.6024960  3
  11442  11435  11436  11455     1  0.0000000  0.6508444  3
  11443  11432  11433  11453     1  0.0000000  0.6508444  3
  11448  11443  11432  11450     1  0.0000000  4.9162000  2
  11448  11443  11432  11450     1  0.0000000  0.6024960  3
  11450  11432  11433  11453     1  0.0000000  4.9162000  2
  11450  11432  11433  11453     1  0.0000000  0.6024960  3
  11450  11437  11436  11455     1  0.0000000  0.6508444  3
  11456  11457  11459  11460     1  180.0000771  0.8368000  1
  11456  11457  11459  11460     1  180.0000771  1.0460000  2
  11456  11457  11459  11460     1  0.0000000  0.7531200  3
  11456  11457  11459  11466     1  0.0000000  0.6508444  3
  11456  11474  11461  11460     1  180.0000771  0.4184000  2
  11456  11474  11461  11460     1  0.0000000  1.6024720  3
  11456  11474  11461  11465     1  0.0000000  1.6038667  3
  11457  11456  11467  11472     1  0.0000000  0.6508444  3
  11457  11456  11474  11461     1  180.0000771  0.4184000  2
  11457  11456  11474  11461     1  0.0000000  1.6024720  3
  11457  11459  11460  11461     1  180.0000771  0.8368000  1
  11457  11459  11460  11461     1  180.0000771  1.0460000  2
  11457  11459  11460  11461     1  0.0000000  0.7531200  3
  11457  11459  11460  11479     1  0.0000000  0.6508444  3
  11459  11457  11456  11467     1  180.0000771  0.8368000  1
  11459  11457  11456  11467     1  180.0000771  1.0460000  2
  11459  11457  11456  11467     1  0.0000000  0.7531200  3
  11459  11457  11456  11474     1  0.0000000  0.6508444  3
  11459  11460  11461  11465     1  0.0000000  0.6508444  3
  11459  11460  11461  11474     1  0.0000000  0.6508444  3
  11460  11459  11457  11477     1  0.0000000  0.6508444  3
  11461  11460  11459  11466     1  0.0000000  0.6508444  3
  11461  11474  11456  11467     1  180.0000771  0.4184000  2
  11461  11474  11456  11467     1  0.0000000  1.6024720  3
  11465  11461  11460  11479     1  0.0000000  0.6508444  3
  11466  11459  11457  11477     1  0.0000000  4.9162000  2
  11466  11459  11457  11477     1  0.0000000  0.6024960  3
  11466  11459  11460  11479     1  0.0000000  0.6508444  3
  11467  11456  11457  11477     1  0.0000000  0.6508444  3
  11472  11467  11456  11474     1  0.0000000  4.9162000  2
  11472  11467  11456  11474     1  0.0000000  0.6024960  3
  11474  11456  11457  11477     1  0.0000000  4.9162000  2
  11474  11456  11457  11477     1  0.0000000  0.6024960  3
  11474  11461  11460  11479     1  0.0000000  0.6508444  3
  11481  11483  11485  11489     1  0.0000000  0.6508444  3
  11483  11485  11489  11490     1  0.0000000  0.6508444  3
  11483  11485  11489  11491     1  0.0000000  0.6508444  3
  11485  11489  11490  11501     1  0.0000000  0.6508444  3
  11485  11489  11491  11493     1  0.0000000  0.6508444  3
  11489  11490  11501  11504     1  0.0000000  0.6508444  3
  11489  11491  11493  11497     1  0.0000000  0.6508444  3
  11490  11501  11504  11505     1  180.0000771  0.0000000  2
  11490  11501  11504  11553     1  180.0000771  0.0000000  2
  11490  11489  11491  11493     1  0.0000000  0.6508444  3
  11491  11493  11497  11498     1  180.0000771  0.0000000  2
  11491  11493  11497  11529     1  180.0000771  0.0000000  2
  11491  11489  11490  11501     1  0.0000000  0.6508444  3
  11493  11497  11529  11510     1  180.0000771  6.0668000  2
  11493  11497  11529  11510     1  180.0000771  1.4644000  4
  11497  11529  11510  11511     1  0.0000000  1.2552000  3
  11497  11529  11510  11509     1  0.0000000  1.2552000  3
  11498  11497  11529  11510     1  180.0000771  6.0668000  2
  11498  11497  11529  11510     1  180.0000771  1.4644000  4
  11501  11504  11553  11534     1  180.0000771  6.0668000  2
  11501  11504  11553  11534     1  180.0000771  1.4644000  4
  11504  11553  11534  11535     1  0.0000000  1.2552000  3
  11504  11553  11534  11533     1  0.0000000  1.2552000  3
  11505  11504  11553  11534     1  180.0000771  6.0668000  2
  11505  11504  11553  11534     1  180.0000771  1.4644000  4
  11506  11507  11509  11510     1  180.0000771  0.8368000  1
  11506  11507  11509  11510     1  180.0000771  1.0460000  2
  11506  11507  11509  11510     1  0.0000000  0.7531200  3
  11506  11507  11509  11516     1  0.0000000  0.6508444  3
  11506  11524  11511  11515     1  0.0000000  1.6038667  3
  11506  11524  11511  11510     1  180.0000771  0.4184000  2
  11506  11524  11511  11510     1  0.0000000  1.6024720  3
  11507  11509  11510  11511     1  180.0000771  0.8368000  1
  11507  11509  11510  11511     1  180.0000771  1.0460000  2
  11507  11509  11510  11511     1  0.0000000  0.7531200  3
  11507  11509  11510  11529     1  0.0000000  0.6508444  3
  11507  11506  11517  11522     1  0.0000000  0.6508444  3
  11507  11506  11524  11511     1  180.0000771  0.4184000  2
  11507  11506  11524  11511     1  0.0000000  1.6024720  3
  11509  11510  11511  11515     1  0.0000000  0.6508444  3
  11509  11510  11511  11524     1  0.0000000  0.6508444  3
  11509  11507  11506  11517     1  180.0000771  0.8368000  1
  11509  11507  11506  11517     1  180.0000771  1.0460000  2
  11509  11507  11506  11517     1  0.0000000  0.7531200  3
  11509  11507  11506  11524     1  0.0000000  0.6508444  3
  11510  11509  11507  11527     1  0.0000000  0.6508444  3
  11511  11524  11506  11517     1  180.0000771  0.4184000  2
  11511  11524  11506  11517     1  0.0000000  1.6024720  3
  11511  11510  11509  11516     1  0.0000000  0.6508444  3
  11515  11511  11510  11529     1  0.0000000  0.6508444  3
  11516  11509  11510  11529     1  0.0000000  0.6508444  3
  11516  11509  11507  11527     1  0.0000000  4.9162000  2
  11516  11509  11507  11527     1  0.0000000  0.6024960  3
  11517  11506  11507  11527     1  0.0000000  0.6508444  3
  11522  11517  11506  11524     1  0.0000000  4.9162000  2
  11522  11517  11506  11524     1  0.0000000  0.6024960  3
  11524  11511  11510  11529     1  0.0000000  0.6508444  3
  11524  11506  11507  11527     1  0.0000000  4.9162000  2
  11524  11506  11507  11527     1  0.0000000  0.6024960  3
  11530  11531  11533  11534     1  180.0000771  0.8368000  1
  11530  11531  11533  11534     1  180.0000771  1.0460000  2
  11530  11531  11533  11534     1  0.0000000  0.7531200  3
  11530  11531  11533  11540     1  0.0000000  0.6508444  3
  11530  11548  11535  11539     1  0.0000000  1.6038667  3
  11530  11548  11535  11534     1  180.0000771  0.4184000  2
  11530  11548  11535  11534     1  0.0000000  1.6024720  3
  11531  11533  11534  11535     1  180.0000771  0.8368000  1
  11531  11533  11534  11535     1  180.0000771  1.0460000  2
  11531  11533  11534  11535     1  0.0000000  0.7531200  3
  11531  11533  11534  11553     1  0.0000000  0.6508444  3
  11531  11530  11541  11546     1  0.0000000  0.6508444  3
  11531  11530  11548  11535     1  180.0000771  0.4184000  2
  11531  11530  11548  11535     1  0.0000000  1.6024720  3
  11533  11534  11535  11539     1  0.0000000  0.6508444  3
  11533  11534  11535  11548     1  0.0000000  0.6508444  3
  11533  11531  11530  11541     1  180.0000771  0.8368000  1
  11533  11531  11530  11541     1  180.0000771  1.0460000  2
  11533  11531  11530  11541     1  0.0000000  0.7531200  3
  11533  11531  11530  11548     1  0.0000000  0.6508444  3
  11534  11533  11531  11551     1  0.0000000  0.6508444  3
  11535  11548  11530  11541     1  180.0000771  0.4184000  2
  11535  11548  11530  11541     1  0.0000000  1.6024720  3
  11535  11534  11533  11540     1  0.0000000  0.6508444  3
  11539  11535  11534  11553     1  0.0000000  0.6508444  3
  11540  11533  11534  11553     1  0.0000000  0.6508444  3
  11540  11533  11531  11551     1  0.0000000  4.9162000  2
  11540  11533  11531  11551     1  0.0000000  0.6024960  3
  11541  11530  11531  11551     1  0.0000000  0.6508444  3
  11546  11541  11530  11548     1  0.0000000  4.9162000  2
  11546  11541  11530  11548     1  0.0000000  0.6024960  3
  11548  11535  11534  11553     1  0.0000000  0.6508444  3
  11548  11530  11531  11551     1  0.0000000  4.9162000  2
  11548  11530  11531  11551     1  0.0000000  0.6024960  3
  11555  11557  11559  11563     1  0.0000000  0.6508444  3
  11557  11559  11563  11564     1  0.0000000  0.6508444  3
  11557  11559  11563  11565     1  0.0000000  0.6508444  3
  11559  11563  11564  11575     1  0.0000000  0.6508444  3
  11559  11563  11565  11567     1  0.0000000  0.6508444  3
  11563  11564  11575  11578     1  0.0000000  0.6508444  3
  11563  11565  11567  11571     1  0.0000000  0.6508444  3
  11564  11563  11565  11567     1  0.0000000  0.6508444  3
  11564  11575  11578  11579     1  180.0000771  0.0000000  2
  11564  11575  11578  11627     1  180.0000771  0.0000000  2
  11565  11563  11564  11575     1  0.0000000  0.6508444  3
  11565  11567  11571  11572     1  180.0000771  0.0000000  2
  11565  11567  11571  11603     1  180.0000771  0.0000000  2
  11567  11571  11603  11584     1  180.0000771  6.0668000  2
  11567  11571  11603  11584     1  180.0000771  1.4644000  4
  11571  11603  11584  11583     1  0.0000000  1.2552000  3
  11571  11603  11584  11585     1  0.0000000  1.2552000  3
  11572  11571  11603  11584     1  180.0000771  6.0668000  2
  11572  11571  11603  11584     1  180.0000771  1.4644000  4
  11575  11578  11627  11608     1  180.0000771  6.0668000  2
  11575  11578  11627  11608     1  180.0000771  1.4644000  4
  11578  11627  11608  11607     1  0.0000000  1.2552000  3
  11578  11627  11608  11609     1  0.0000000  1.2552000  3
  11579  11578  11627  11608     1  180.0000771  6.0668000  2
  11579  11578  11627  11608     1  180.0000771  1.4644000  4
  11580  11581  11583  11584     1  180.0000771  0.8368000  1
  11580  11581  11583  11584     1  180.0000771  1.0460000  2
  11580  11581  11583  11584     1  0.0000000  0.7531200  3
  11580  11581  11583  11590     1  0.0000000  0.6508444  3
  11580  11598  11585  11584     1  180.0000771  0.4184000  2
  11580  11598  11585  11584     1  0.0000000  1.6024720  3
  11580  11598  11585  11589     1  0.0000000  1.6038667  3
  11581  11580  11591  11596     1  0.0000000  0.6508444  3
  11581  11580  11598  11585     1  180.0000771  0.4184000  2
  11581  11580  11598  11585     1  0.0000000  1.6024720  3
  11581  11583  11584  11585     1  180.0000771  0.8368000  1
  11581  11583  11584  11585     1  180.0000771  1.0460000  2
  11581  11583  11584  11585     1  0.0000000  0.7531200  3
  11581  11583  11584  11603     1  0.0000000  0.6508444  3
  11583  11581  11580  11591     1  180.0000771  0.8368000  1
  11583  11581  11580  11591     1  180.0000771  1.0460000  2
  11583  11581  11580  11591     1  0.0000000  0.7531200  3
  11583  11581  11580  11598     1  0.0000000  0.6508444  3
  11583  11584  11585  11589     1  0.0000000  0.6508444  3
  11583  11584  11585  11598     1  0.0000000  0.6508444  3
  11584  11583  11581  11601     1  0.0000000  0.6508444  3
  11585  11584  11583  11590     1  0.0000000  0.6508444  3
  11585  11598  11580  11591     1  180.0000771  0.4184000  2
  11585  11598  11580  11591     1  0.0000000  1.6024720  3
  11589  11585  11584  11603     1  0.0000000  0.6508444  3
  11590  11583  11581  11601     1  0.0000000  4.9162000  2
  11590  11583  11581  11601     1  0.0000000  0.6024960  3
  11590  11583  11584  11603     1  0.0000000  0.6508444  3
  11591  11580  11581  11601     1  0.0000000  0.6508444  3
  11596  11591  11580  11598     1  0.0000000  4.9162000  2
  11596  11591  11580  11598     1  0.0000000  0.6024960  3
  11598  11580  11581  11601     1  0.0000000  4.9162000  2
  11598  11580  11581  11601     1  0.0000000  0.6024960  3
  11598  11585  11584  11603     1  0.0000000  0.6508444  3
  11604  11605  11607  11608     1  180.0000771  0.8368000  1
  11604  11605  11607  11608     1  180.0000771  1.0460000  2
  11604  11605  11607  11608     1  0.0000000  0.7531200  3
  11604  11605  11607  11614     1  0.0000000  0.6508444  3
  11604  11622  11609  11608     1  180.0000771  0.4184000  2
  11604  11622  11609  11608     1  0.0000000  1.6024720  3
  11604  11622  11609  11613     1  0.0000000  1.6038667  3
  11605  11604  11615  11620     1  0.0000000  0.6508444  3
  11605  11604  11622  11609     1  180.0000771  0.4184000  2
  11605  11604  11622  11609     1  0.0000000  1.6024720  3
  11605  11607  11608  11609     1  180.0000771  0.8368000  1
  11605  11607  11608  11609     1  180.0000771  1.0460000  2
  11605  11607  11608  11609     1  0.0000000  0.7531200  3
  11605  11607  11608  11627     1  0.0000000  0.6508444  3
  11607  11605  11604  11615     1  180.0000771  0.8368000  1
  11607  11605  11604  11615     1  180.0000771  1.0460000  2
  11607  11605  11604  11615     1  0.0000000  0.7531200  3
  11607  11605  11604  11622     1  0.0000000  0.6508444  3
  11607  11608  11609  11613     1  0.0000000  0.6508444  3
  11607  11608  11609  11622     1  0.0000000  0.6508444  3
  11608  11607  11605  11625     1  0.0000000  0.6508444  3
  11609  11608  11607  11614     1  0.0000000  0.6508444  3
  11609  11622  11604  11615     1  180.0000771  0.4184000  2
  11609  11622  11604  11615     1  0.0000000  1.6024720  3
  11613  11609  11608  11627     1  0.0000000  0.6508444  3
  11614  11607  11605  11625     1  0.0000000  4.9162000  2
  11614  11607  11605  11625     1  0.0000000  0.6024960  3
  11614  11607  11608  11627     1  0.0000000  0.6508444  3
  11615  11604  11605  11625     1  0.0000000  0.6508444  3
  11620  11615  11604  11622     1  0.0000000  4.9162000  2
  11620  11615  11604  11622     1  0.0000000  0.6024960  3
  11622  11604  11605  11625     1  0.0000000  4.9162000  2
  11622  11604  11605  11625     1  0.0000000  0.6024960  3
  11622  11609  11608  11627     1  0.0000000  0.6508444  3
  11629  11631  11633  11637     1  0.0000000  0.6508444  3
  11631  11633  11637  11638     1  0.0000000  0.6508444  3
  11631  11633  11637  11639     1  0.0000000  0.6508444  3
  11633  11637  11638  11649     1  0.0000000  0.6508444  3
  11633  11637  11639  11641     1  0.0000000  0.6508444  3
  11637  11638  11649  11652     1  0.0000000  0.6508444  3
  11637  11639  11641  11645     1  0.0000000  0.6508444  3
  11638  11649  11652  11653     1  180.0000771  0.0000000  2
  11638  11649  11652  11701     1  180.0000771  0.0000000  2
  11638  11637  11639  11641     1  0.0000000  0.6508444  3
  11639  11641  11645  11646     1  180.0000771  0.0000000  2
  11639  11641  11645  11677     1  180.0000771  0.0000000  2
  11639  11637  11638  11649     1  0.0000000  0.6508444  3
  11641  11645  11677  11658     1  180.0000771  6.0668000  2
  11641  11645  11677  11658     1  180.0000771  1.4644000  4
  11645  11677  11658  11659     1  0.0000000  1.2552000  3
  11645  11677  11658  11657     1  0.0000000  1.2552000  3
  11646  11645  11677  11658     1  180.0000771  6.0668000  2
  11646  11645  11677  11658     1  180.0000771  1.4644000  4
  11649  11652  11701  11682     1  180.0000771  6.0668000  2
  11649  11652  11701  11682     1  180.0000771  1.4644000  4
  11652  11701  11682  11683     1  0.0000000  1.2552000  3
  11652  11701  11682  11681     1  0.0000000  1.2552000  3
  11653  11652  11701  11682     1  180.0000771  6.0668000  2
  11653  11652  11701  11682     1  180.0000771  1.4644000  4
  11654  11655  11657  11658     1  180.0000771  0.8368000  1
  11654  11655  11657  11658     1  180.0000771  1.0460000  2
  11654  11655  11657  11658     1  0.0000000  0.7531200  3
  11654  11655  11657  11664     1  0.0000000  0.6508444  3
  11654  11672  11659  11663     1  0.0000000  1.6038667  3
  11654  11672  11659  11658     1  180.0000771  0.4184000  2
  11654  11672  11659  11658     1  0.0000000  1.6024720  3
  11655  11657  11658  11659     1  180.0000771  0.8368000  1
  11655  11657  11658  11659     1  180.0000771  1.0460000  2
  11655  11657  11658  11659     1  0.0000000  0.7531200  3
  11655  11657  11658  11677     1  0.0000000  0.6508444  3
  11655  11654  11665  11670     1  0.0000000  0.6508444  3
  11655  11654  11672  11659     1  180.0000771  0.4184000  2
  11655  11654  11672  11659     1  0.0000000  1.6024720  3
  11657  11658  11659  11663     1  0.0000000  0.6508444  3
  11657  11658  11659  11672     1  0.0000000  0.6508444  3
  11657  11655  11654  11665     1  180.0000771  0.8368000  1
  11657  11655  11654  11665     1  180.0000771  1.0460000  2
  11657  11655  11654  11665     1  0.0000000  0.7531200  3
  11657  11655  11654  11672     1  0.0000000  0.6508444  3
  11658  11657  11655  11675     1  0.0000000  0.6508444  3
  11659  11672  11654  11665     1  180.0000771  0.4184000  2
  11659  11672  11654  11665     1  0.0000000  1.6024720  3
  11659  11658  11657  11664     1  0.0000000  0.6508444  3
  11663  11659  11658  11677     1  0.0000000  0.6508444  3
  11664  11657  11658  11677     1  0.0000000  0.6508444  3
  11664  11657  11655  11675     1  0.0000000  4.9162000  2
  11664  11657  11655  11675     1  0.0000000  0.6024960  3
  11665  11654  11655  11675     1  0.0000000  0.6508444  3
  11670  11665  11654  11672     1  0.0000000  4.9162000  2
  11670  11665  11654  11672     1  0.0000000  0.6024960  3
  11672  11659  11658  11677     1  0.0000000  0.6508444  3
  11672  11654  11655  11675     1  0.0000000  4.9162000  2
  11672  11654  11655  11675     1  0.0000000  0.6024960  3
  11678  11679  11681  11682     1  180.0000771  0.8368000  1
  11678  11679  11681  11682     1  180.0000771  1.0460000  2
  11678  11679  11681  11682     1  0.0000000  0.7531200  3
  11678  11679  11681  11688     1  0.0000000  0.6508444  3
  11678  11696  11683  11687     1  0.0000000  1.6038667  3
  11678  11696  11683  11682     1  180.0000771  0.4184000  2
  11678  11696  11683  11682     1  0.0000000  1.6024720  3
  11679  11681  11682  11683     1  180.0000771  0.8368000  1
  11679  11681  11682  11683     1  180.0000771  1.0460000  2
  11679  11681  11682  11683     1  0.0000000  0.7531200  3
  11679  11681  11682  11701     1  0.0000000  0.6508444  3
  11679  11678  11689  11694     1  0.0000000  0.6508444  3
  11679  11678  11696  11683     1  180.0000771  0.4184000  2
  11679  11678  11696  11683     1  0.0000000  1.6024720  3
  11681  11682  11683  11687     1  0.0000000  0.6508444  3
  11681  11682  11683  11696     1  0.0000000  0.6508444  3
  11681  11679  11678  11689     1  180.0000771  0.8368000  1
  11681  11679  11678  11689     1  180.0000771  1.0460000  2
  11681  11679  11678  11689     1  0.0000000  0.7531200  3
  11681  11679  11678  11696     1  0.0000000  0.6508444  3
  11682  11681  11679  11699     1  0.0000000  0.6508444  3
  11683  11696  11678  11689     1  180.0000771  0.4184000  2
  11683  11696  11678  11689     1  0.0000000  1.6024720  3
  11683  11682  11681  11688     1  0.0000000  0.6508444  3
  11687  11683  11682  11701     1  0.0000000  0.6508444  3
  11688  11681  11682  11701     1  0.0000000  0.6508444  3
  11688  11681  11679  11699     1  0.0000000  4.9162000  2
  11688  11681  11679  11699     1  0.0000000  0.6024960  3
  11689  11678  11679  11699     1  0.0000000  0.6508444  3
  11694  11689  11678  11696     1  0.0000000  4.9162000  2
  11694  11689  11678  11696     1  0.0000000  0.6024960  3
  11696  11683  11682  11701     1  0.0000000  0.6508444  3
  11696  11678  11679  11699     1  0.0000000  4.9162000  2
  11696  11678  11679  11699     1  0.0000000  0.6024960  3
  11703  11705  11707  11711     1  0.0000000  0.6508444  3
  11705  11707  11711  11712     1  0.0000000  0.6508444  3
  11705  11707  11711  11713     1  0.0000000  0.6508444  3
  11707  11711  11712  11723     1  0.0000000  0.6508444  3
  11707  11711  11713  11715     1  0.0000000  0.6508444  3
  11711  11712  11723  11726     1  0.0000000  0.6508444  3
  11711  11713  11715  11719     1  0.0000000  0.6508444  3
  11712  11711  11713  11715     1  0.0000000  0.6508444  3
  11712  11723  11726  11727     1  180.0000771  0.0000000  2
  11712  11723  11726  11775     1  180.0000771  0.0000000  2
  11713  11711  11712  11723     1  0.0000000  0.6508444  3
  11713  11715  11719  11720     1  180.0000771  0.0000000  2
  11713  11715  11719  11751     1  180.0000771  0.0000000  2
  11715  11719  11751  11732     1  180.0000771  6.0668000  2
  11715  11719  11751  11732     1  180.0000771  1.4644000  4
  11719  11751  11732  11731     1  0.0000000  1.2552000  3
  11719  11751  11732  11733     1  0.0000000  1.2552000  3
  11720  11719  11751  11732     1  180.0000771  6.0668000  2
  11720  11719  11751  11732     1  180.0000771  1.4644000  4
  11723  11726  11775  11756     1  180.0000771  6.0668000  2
  11723  11726  11775  11756     1  180.0000771  1.4644000  4
  11726  11775  11756  11755     1  0.0000000  1.2552000  3
  11726  11775  11756  11757     1  0.0000000  1.2552000  3
  11727  11726  11775  11756     1  180.0000771  6.0668000  2
  11727  11726  11775  11756     1  180.0000771  1.4644000  4
  11728  11729  11731  11732     1  180.0000771  0.8368000  1
  11728  11729  11731  11732     1  180.0000771  1.0460000  2
  11728  11729  11731  11732     1  0.0000000  0.7531200  3
  11728  11729  11731  11738     1  0.0000000  0.6508444  3
  11728  11746  11733  11732     1  180.0000771  0.4184000  2
  11728  11746  11733  11732     1  0.0000000  1.6024720  3
  11728  11746  11733  11737     1  0.0000000  1.6038667  3
  11729  11728  11739  11744     1  0.0000000  0.6508444  3
  11729  11728  11746  11733     1  180.0000771  0.4184000  2
  11729  11728  11746  11733     1  0.0000000  1.6024720  3
  11729  11731  11732  11733     1  180.0000771  0.8368000  1
  11729  11731  11732  11733     1  180.0000771  1.0460000  2
  11729  11731  11732  11733     1  0.0000000  0.7531200  3
  11729  11731  11732  11751     1  0.0000000  0.6508444  3
  11731  11729  11728  11739     1  180.0000771  0.8368000  1
  11731  11729  11728  11739     1  180.0000771  1.0460000  2
  11731  11729  11728  11739     1  0.0000000  0.7531200  3
  11731  11729  11728  11746     1  0.0000000  0.6508444  3
  11731  11732  11733  11737     1  0.0000000  0.6508444  3
  11731  11732  11733  11746     1  0.0000000  0.6508444  3
  11732  11731  11729  11749     1  0.0000000  0.6508444  3
  11733  11732  11731  11738     1  0.0000000  0.6508444  3
  11733  11746  11728  11739     1  180.0000771  0.4184000  2
  11733  11746  11728  11739     1  0.0000000  1.6024720  3
  11737  11733  11732  11751     1  0.0000000  0.6508444  3
  11738  11731  11729  11749     1  0.0000000  4.9162000  2
  11738  11731  11729  11749     1  0.0000000  0.6024960  3
  11738  11731  11732  11751     1  0.0000000  0.6508444  3
  11739  11728  11729  11749     1  0.0000000  0.6508444  3
  11744  11739  11728  11746     1  0.0000000  4.9162000  2
  11744  11739  11728  11746     1  0.0000000  0.6024960  3
  11746  11728  11729  11749     1  0.0000000  4.9162000  2
  11746  11728  11729  11749     1  0.0000000  0.6024960  3
  11746  11733  11732  11751     1  0.0000000  0.6508444  3
  11752  11753  11755  11756     1  180.0000771  0.8368000  1
  11752  11753  11755  11756     1  180.0000771  1.0460000  2
  11752  11753  11755  11756     1  0.0000000  0.7531200  3
  11752  11753  11755  11762     1  0.0000000  0.6508444  3
  11752  11770  11757  11756     1  180.0000771  0.4184000  2
  11752  11770  11757  11756     1  0.0000000  1.6024720  3
  11752  11770  11757  11761     1  0.0000000  1.6038667  3
  11753  11752  11763  11768     1  0.0000000  0.6508444  3
  11753  11752  11770  11757     1  180.0000771  0.4184000  2
  11753  11752  11770  11757     1  0.0000000  1.6024720  3
  11753  11755  11756  11757     1  180.0000771  0.8368000  1
  11753  11755  11756  11757     1  180.0000771  1.0460000  2
  11753  11755  11756  11757     1  0.0000000  0.7531200  3
  11753  11755  11756  11775     1  0.0000000  0.6508444  3
  11755  11753  11752  11763     1  180.0000771  0.8368000  1
  11755  11753  11752  11763     1  180.0000771  1.0460000  2
  11755  11753  11752  11763     1  0.0000000  0.7531200  3
  11755  11753  11752  11770     1  0.0000000  0.6508444  3
  11755  11756  11757  11761     1  0.0000000  0.6508444  3
  11755  11756  11757  11770     1  0.0000000  0.6508444  3
  11756  11755  11753  11773     1  0.0000000  0.6508444  3
  11757  11756  11755  11762     1  0.0000000  0.6508444  3
  11757  11770  11752  11763     1  180.0000771  0.4184000  2
  11757  11770  11752  11763     1  0.0000000  1.6024720  3
  11761  11757  11756  11775     1  0.0000000  0.6508444  3
  11762  11755  11753  11773     1  0.0000000  4.9162000  2
  11762  11755  11753  11773     1  0.0000000  0.6024960  3
  11762  11755  11756  11775     1  0.0000000  0.6508444  3
  11763  11752  11753  11773     1  0.0000000  0.6508444  3
  11768  11763  11752  11770     1  0.0000000  4.9162000  2
  11768  11763  11752  11770     1  0.0000000  0.6024960  3
  11770  11752  11753  11773     1  0.0000000  4.9162000  2
  11770  11752  11753  11773     1  0.0000000  0.6024960  3
  11770  11757  11756  11775     1  0.0000000  0.6508444  3
  11777  11779  11781  11785     1  0.0000000  0.6508444  3
  11779  11781  11785  11786     1  0.0000000  0.6508444  3
  11779  11781  11785  11787     1  0.0000000  0.6508444  3
  11781  11785  11786  11797     1  0.0000000  0.6508444  3
  11781  11785  11787  11789     1  0.0000000  0.6508444  3
  11785  11786  11797  11800     1  0.0000000  0.6508444  3
  11785  11787  11789  11793     1  0.0000000  0.6508444  3
  11786  11797  11800  11801     1  180.0000771  0.0000000  2
  11786  11797  11800  11849     1  180.0000771  0.0000000  2
  11786  11785  11787  11789     1  0.0000000  0.6508444  3
  11787  11789  11793  11794     1  180.0000771  0.0000000  2
  11787  11789  11793  11825     1  180.0000771  0.0000000  2
  11787  11785  11786  11797     1  0.0000000  0.6508444  3
  11789  11793  11825  11806     1  180.0000771  6.0668000  2
  11789  11793  11825  11806     1  180.0000771  1.4644000  4
  11793  11825  11806  11807     1  0.0000000  1.2552000  3
  11793  11825  11806  11805     1  0.0000000  1.2552000  3
  11794  11793  11825  11806     1  180.0000771  6.0668000  2
  11794  11793  11825  11806     1  180.0000771  1.4644000  4
  11797  11800  11849  11830     1  180.0000771  6.0668000  2
  11797  11800  11849  11830     1  180.0000771  1.4644000  4
  11800  11849  11830  11831     1  0.0000000  1.2552000  3
  11800  11849  11830  11829     1  0.0000000  1.2552000  3
  11801  11800  11849  11830     1  180.0000771  6.0668000  2
  11801  11800  11849  11830     1  180.0000771  1.4644000  4
  11802  11803  11805  11806     1  180.0000771  0.8368000  1
  11802  11803  11805  11806     1  180.0000771  1.0460000  2
  11802  11803  11805  11806     1  0.0000000  0.7531200  3
  11802  11803  11805  11812     1  0.0000000  0.6508444  3
  11802  11820  11807  11811     1  0.0000000  1.6038667  3
  11802  11820  11807  11806     1  180.0000771  0.4184000  2
  11802  11820  11807  11806     1  0.0000000  1.6024720  3
  11803  11805  11806  11807     1  180.0000771  0.8368000  1
  11803  11805  11806  11807     1  180.0000771  1.0460000  2
  11803  11805  11806  11807     1  0.0000000  0.7531200  3
  11803  11805  11806  11825     1  0.0000000  0.6508444  3
  11803  11802  11813  11818     1  0.0000000  0.6508444  3
  11803  11802  11820  11807     1  180.0000771  0.4184000  2
  11803  11802  11820  11807     1  0.0000000  1.6024720  3
  11805  11806  11807  11811     1  0.0000000  0.6508444  3
  11805  11806  11807  11820     1  0.0000000  0.6508444  3
  11805  11803  11802  11813     1  180.0000771  0.8368000  1
  11805  11803  11802  11813     1  180.0000771  1.0460000  2
  11805  11803  11802  11813     1  0.0000000  0.7531200  3
  11805  11803  11802  11820     1  0.0000000  0.6508444  3
  11806  11805  11803  11823     1  0.0000000  0.6508444  3
  11807  11820  11802  11813     1  180.0000771  0.4184000  2
  11807  11820  11802  11813     1  0.0000000  1.6024720  3
  11807  11806  11805  11812     1  0.0000000  0.6508444  3
  11811  11807  11806  11825     1  0.0000000  0.6508444  3
  11812  11805  11806  11825     1  0.0000000  0.6508444  3
  11812  11805  11803  11823     1  0.0000000  4.9162000  2
  11812  11805  11803  11823     1  0.0000000  0.6024960  3
  11813  11802  11803  11823     1  0.0000000  0.6508444  3
  11818  11813  11802  11820     1  0.0000000  4.9162000  2
  11818  11813  11802  11820     1  0.0000000  0.6024960  3
  11820  11807  11806  11825     1  0.0000000  0.6508444  3
  11820  11802  11803  11823     1  0.0000000  4.9162000  2
  11820  11802  11803  11823     1  0.0000000  0.6024960  3
  11826  11827  11829  11830     1  180.0000771  0.8368000  1
  11826  11827  11829  11830     1  180.0000771  1.0460000  2
  11826  11827  11829  11830     1  0.0000000  0.7531200  3
  11826  11827  11829  11836     1  0.0000000  0.6508444  3
  11826  11844  11831  11835     1  0.0000000  1.6038667  3
  11826  11844  11831  11830     1  180.0000771  0.4184000  2
  11826  11844  11831  11830     1  0.0000000  1.6024720  3
  11827  11829  11830  11831     1  180.0000771  0.8368000  1
  11827  11829  11830  11831     1  180.0000771  1.0460000  2
  11827  11829  11830  11831     1  0.0000000  0.7531200  3
  11827  11829  11830  11849     1  0.0000000  0.6508444  3
  11827  11826  11837  11842     1  0.0000000  0.6508444  3
  11827  11826  11844  11831     1  180.0000771  0.4184000  2
  11827  11826  11844  11831     1  0.0000000  1.6024720  3
  11829  11830  11831  11835     1  0.0000000  0.6508444  3
  11829  11830  11831  11844     1  0.0000000  0.6508444  3
  11829  11827  11826  11837     1  180.0000771  0.8368000  1
  11829  11827  11826  11837     1  180.0000771  1.0460000  2
  11829  11827  11826  11837     1  0.0000000  0.7531200  3
  11829  11827  11826  11844     1  0.0000000  0.6508444  3
  11830  11829  11827  11847     1  0.0000000  0.6508444  3
  11831  11844  11826  11837     1  180.0000771  0.4184000  2
  11831  11844  11826  11837     1  0.0000000  1.6024720  3
  11831  11830  11829  11836     1  0.0000000  0.6508444  3
  11835  11831  11830  11849     1  0.0000000  0.6508444  3
  11836  11829  11830  11849     1  0.0000000  0.6508444  3
  11836  11829  11827  11847     1  0.0000000  4.9162000  2
  11836  11829  11827  11847     1  0.0000000  0.6024960  3
  11837  11826  11827  11847     1  0.0000000  0.6508444  3
  11842  11837  11826  11844     1  0.0000000  4.9162000  2
  11842  11837  11826  11844     1  0.0000000  0.6024960  3
  11844  11831  11830  11849     1  0.0000000  0.6508444  3
  11844  11826  11827  11847     1  0.0000000  4.9162000  2
  11844  11826  11827  11847     1  0.0000000  0.6024960  3
  11851  11853  11855  11859     1  0.0000000  0.6508444  3
  11853  11855  11859  11860     1  0.0000000  0.6508444  3
  11853  11855  11859  11861     1  0.0000000  0.6508444  3
  11855  11859  11860  11871     1  0.0000000  0.6508444  3
  11855  11859  11861  11863     1  0.0000000  0.6508444  3
  11859  11860  11871  11874     1  0.0000000  0.6508444  3
  11859  11861  11863  11867     1  0.0000000  0.6508444  3
  11860  11859  11861  11863     1  0.0000000  0.6508444  3
  11860  11871  11874  11875     1  180.0000771  0.0000000  2
  11860  11871  11874  11923     1  180.0000771  0.0000000  2
  11861  11859  11860  11871     1  0.0000000  0.6508444  3
  11861  11863  11867  11868     1  180.0000771  0.0000000  2
  11861  11863  11867  11899     1  180.0000771  0.0000000  2
  11863  11867  11899  11880     1  180.0000771  6.0668000  2
  11863  11867  11899  11880     1  180.0000771  1.4644000  4
  11867  11899  11880  11879     1  0.0000000  1.2552000  3
  11867  11899  11880  11881     1  0.0000000  1.2552000  3
  11868  11867  11899  11880     1  180.0000771  6.0668000  2
  11868  11867  11899  11880     1  180.0000771  1.4644000  4
  11871  11874  11923  11904     1  180.0000771  6.0668000  2
  11871  11874  11923  11904     1  180.0000771  1.4644000  4
  11874  11923  11904  11903     1  0.0000000  1.2552000  3
  11874  11923  11904  11905     1  0.0000000  1.2552000  3
  11875  11874  11923  11904     1  180.0000771  6.0668000  2
  11875  11874  11923  11904     1  180.0000771  1.4644000  4
  11876  11877  11879  11880     1  180.0000771  0.8368000  1
  11876  11877  11879  11880     1  180.0000771  1.0460000  2
  11876  11877  11879  11880     1  0.0000000  0.7531200  3
  11876  11877  11879  11886     1  0.0000000  0.6508444  3
  11876  11894  11881  11880     1  180.0000771  0.4184000  2
  11876  11894  11881  11880     1  0.0000000  1.6024720  3
  11876  11894  11881  11885     1  0.0000000  1.6038667  3
  11877  11876  11887  11892     1  0.0000000  0.6508444  3
  11877  11876  11894  11881     1  180.0000771  0.4184000  2
  11877  11876  11894  11881     1  0.0000000  1.6024720  3
  11877  11879  11880  11881     1  180.0000771  0.8368000  1
  11877  11879  11880  11881     1  180.0000771  1.0460000  2
  11877  11879  11880  11881     1  0.0000000  0.7531200  3
  11877  11879  11880  11899     1  0.0000000  0.6508444  3
  11879  11877  11876  11887     1  180.0000771  0.8368000  1
  11879  11877  11876  11887     1  180.0000771  1.0460000  2
  11879  11877  11876  11887     1  0.0000000  0.7531200  3
  11879  11877  11876  11894     1  0.0000000  0.6508444  3
  11879  11880  11881  11885     1  0.0000000  0.6508444  3
  11879  11880  11881  11894     1  0.0000000  0.6508444  3
  11880  11879  11877  11897     1  0.0000000  0.6508444  3
  11881  11880  11879  11886     1  0.0000000  0.6508444  3
  11881  11894  11876  11887     1  180.0000771  0.4184000  2
  11881  11894  11876  11887     1  0.0000000  1.6024720  3
  11885  11881  11880  11899     1  0.0000000  0.6508444  3
  11886  11879  11877  11897     1  0.0000000  4.9162000  2
  11886  11879  11877  11897     1  0.0000000  0.6024960  3
  11886  11879  11880  11899     1  0.0000000  0.6508444  3
  11887  11876  11877  11897     1  0.0000000  0.6508444  3
  11892  11887  11876  11894     1  0.0000000  4.9162000  2
  11892  11887  11876  11894     1  0.0000000  0.6024960  3
  11894  11876  11877  11897     1  0.0000000  4.9162000  2
  11894  11876  11877  11897     1  0.0000000  0.6024960  3
  11894  11881  11880  11899     1  0.0000000  0.6508444  3
  11900  11901  11903  11904     1  180.0000771  0.8368000  1
  11900  11901  11903  11904     1  180.0000771  1.0460000  2
  11900  11901  11903  11904     1  0.0000000  0.7531200  3
  11900  11901  11903  11910     1  0.0000000  0.6508444  3
  11900  11918  11905  11904     1  180.0000771  0.4184000  2
  11900  11918  11905  11904     1  0.0000000  1.6024720  3
  11900  11918  11905  11909     1  0.0000000  1.6038667  3
  11901  11900  11911  11916     1  0.0000000  0.6508444  3
  11901  11900  11918  11905     1  180.0000771  0.4184000  2
  11901  11900  11918  11905     1  0.0000000  1.6024720  3
  11901  11903  11904  11905     1  180.0000771  0.8368000  1
  11901  11903  11904  11905     1  180.0000771  1.0460000  2
  11901  11903  11904  11905     1  0.0000000  0.7531200  3
  11901  11903  11904  11923     1  0.0000000  0.6508444  3
  11903  11901  11900  11911     1  180.0000771  0.8368000  1
  11903  11901  11900  11911     1  180.0000771  1.0460000  2
  11903  11901  11900  11911     1  0.0000000  0.7531200  3
  11903  11901  11900  11918     1  0.0000000  0.6508444  3
  11903  11904  11905  11909     1  0.0000000  0.6508444  3
  11903  11904  11905  11918     1  0.0000000  0.6508444  3
  11904  11903  11901  11921     1  0.0000000  0.6508444  3
  11905  11904  11903  11910     1  0.0000000  0.6508444  3
  11905  11918  11900  11911     1  180.0000771  0.4184000  2
  11905  11918  11900  11911     1  0.0000000  1.6024720  3
  11909  11905  11904  11923     1  0.0000000  0.6508444  3
  11910  11903  11901  11921     1  0.0000000  4.9162000  2
  11910  11903  11901  11921     1  0.0000000  0.6024960  3
  11910  11903  11904  11923     1  0.0000000  0.6508444  3
  11911  11900  11901  11921     1  0.0000000  0.6508444  3
  11916  11911  11900  11918     1  0.0000000  4.9162000  2
  11916  11911  11900  11918     1  0.0000000  0.6024960  3
  11918  11900  11901  11921     1  0.0000000  4.9162000  2
  11918  11900  11901  11921     1  0.0000000  0.6024960  3
  11918  11905  11904  11923     1  0.0000000  0.6508444  3
  11925  11927  11929  11933     1  0.0000000  0.6508444  3
  11927  11929  11933  11934     1  0.0000000  0.6508444  3
  11927  11929  11933  11935     1  0.0000000  0.6508444  3
  11929  11933  11934  11945     1  0.0000000  0.6508444  3
  11929  11933  11935  11937     1  0.0000000  0.6508444  3
  11933  11934  11945  11948     1  0.0000000  0.6508444  3
  11933  11935  11937  11941     1  0.0000000  0.6508444  3
  11934  11945  11948  11949     1  180.0000771  0.0000000  2
  11934  11945  11948  11997     1  180.0000771  0.0000000  2
  11934  11933  11935  11937     1  0.0000000  0.6508444  3
  11935  11937  11941  11942     1  180.0000771  0.0000000  2
  11935  11937  11941  11973     1  180.0000771  0.0000000  2
  11935  11933  11934  11945     1  0.0000000  0.6508444  3
  11937  11941  11973  11954     1  180.0000771  6.0668000  2
  11937  11941  11973  11954     1  180.0000771  1.4644000  4
  11941  11973  11954  11955     1  0.0000000  1.2552000  3
  11941  11973  11954  11953     1  0.0000000  1.2552000  3
  11942  11941  11973  11954     1  180.0000771  6.0668000  2
  11942  11941  11973  11954     1  180.0000771  1.4644000  4
  11945  11948  11997  11978     1  180.0000771  6.0668000  2
  11945  11948  11997  11978     1  180.0000771  1.4644000  4
  11948  11997  11978  11979     1  0.0000000  1.2552000  3
  11948  11997  11978  11977     1  0.0000000  1.2552000  3
  11949  11948  11997  11978     1  180.0000771  6.0668000  2
  11949  11948  11997  11978     1  180.0000771  1.4644000  4
  11950  11951  11953  11954     1  180.0000771  0.8368000  1
  11950  11951  11953  11954     1  180.0000771  1.0460000  2
  11950  11951  11953  11954     1  0.0000000  0.7531200  3
  11950  11951  11953  11960     1  0.0000000  0.6508444  3
  11950  11968  11955  11959     1  0.0000000  1.6038667  3
  11950  11968  11955  11954     1  180.0000771  0.4184000  2
  11950  11968  11955  11954     1  0.0000000  1.6024720  3
  11951  11953  11954  11955     1  180.0000771  0.8368000  1
  11951  11953  11954  11955     1  180.0000771  1.0460000  2
  11951  11953  11954  11955     1  0.0000000  0.7531200  3
  11951  11953  11954  11973     1  0.0000000  0.6508444  3
  11951  11950  11961  11966     1  0.0000000  0.6508444  3
  11951  11950  11968  11955     1  180.0000771  0.4184000  2
  11951  11950  11968  11955     1  0.0000000  1.6024720  3
  11953  11954  11955  11959     1  0.0000000  0.6508444  3
  11953  11954  11955  11968     1  0.0000000  0.6508444  3
  11953  11951  11950  11961     1  180.0000771  0.8368000  1
  11953  11951  11950  11961     1  180.0000771  1.0460000  2
  11953  11951  11950  11961     1  0.0000000  0.7531200  3
  11953  11951  11950  11968     1  0.0000000  0.6508444  3
  11954  11953  11951  11971     1  0.0000000  0.6508444  3
  11955  11968  11950  11961     1  180.0000771  0.4184000  2
  11955  11968  11950  11961     1  0.0000000  1.6024720  3
  11955  11954  11953  11960     1  0.0000000  0.6508444  3
  11959  11955  11954  11973     1  0.0000000  0.6508444  3
  11960  11953  11954  11973     1  0.0000000  0.6508444  3
  11960  11953  11951  11971     1  0.0000000  4.9162000  2
  11960  11953  11951  11971     1  0.0000000  0.6024960  3
  11961  11950  11951  11971     1  0.0000000  0.6508444  3
  11966  11961  11950  11968     1  0.0000000  4.9162000  2
  11966  11961  11950  11968     1  0.0000000  0.6024960  3
  11968  11955  11954  11973     1  0.0000000  0.6508444  3
  11968  11950  11951  11971     1  0.0000000  4.9162000  2
  11968  11950  11951  11971     1  0.0000000  0.6024960  3
  11974  11975  11977  11978     1  180.0000771  0.8368000  1
  11974  11975  11977  11978     1  180.0000771  1.0460000  2
  11974  11975  11977  11978     1  0.0000000  0.7531200  3
  11974  11975  11977  11984     1  0.0000000  0.6508444  3
  11974  11992  11979  11983     1  0.0000000  1.6038667  3
  11974  11992  11979  11978     1  180.0000771  0.4184000  2
  11974  11992  11979  11978     1  0.0000000  1.6024720  3
  11975  11977  11978  11979     1  180.0000771  0.8368000  1
  11975  11977  11978  11979     1  180.0000771  1.0460000  2
  11975  11977  11978  11979     1  0.0000000  0.7531200  3
  11975  11977  11978  11997     1  0.0000000  0.6508444  3
  11975  11974  11985  11990     1  0.0000000  0.6508444  3
  11975  11974  11992  11979     1  180.0000771  0.4184000  2
  11975  11974  11992  11979     1  0.0000000  1.6024720  3
  11977  11978  11979  11983     1  0.0000000  0.6508444  3
  11977  11978  11979  11992     1  0.0000000  0.6508444  3
  11977  11975  11974  11985     1  180.0000771  0.8368000  1
  11977  11975  11974  11985     1  180.0000771  1.0460000  2
  11977  11975  11974  11985     1  0.0000000  0.7531200  3
  11977  11975  11974  11992     1  0.0000000  0.6508444  3
  11978  11977  11975  11995     1  0.0000000  0.6508444  3
  11979  11992  11974  11985     1  180.0000771  0.4184000  2
  11979  11992  11974  11985     1  0.0000000  1.6024720  3
  11979  11978  11977  11984     1  0.0000000  0.6508444  3
  11983  11979  11978  11997     1  0.0000000  0.6508444  3
  11984  11977  11978  11997     1  0.0000000  0.6508444  3
  11984  11977  11975  11995     1  0.0000000  4.9162000  2
  11984  11977  11975  11995     1  0.0000000  0.6024960  3
  11985  11974  11975  11995     1  0.0000000  0.6508444  3
  11990  11985  11974  11992     1  0.0000000  4.9162000  2
  11990  11985  11974  11992     1  0.0000000  0.6024960  3
  11992  11979  11978  11997     1  0.0000000  0.6508444  3
  11992  11974  11975  11995     1  0.0000000  4.9162000  2
  11992  11974  11975  11995     1  0.0000000  0.6024960  3
  11999  12001  12003  12007     1  0.0000000  0.6508444  3
  12001  12003  12007  12008     1  0.0000000  0.6508444  3
  12001  12003  12007  12009     1  0.0000000  0.6508444  3
  12003  12007  12008  12019     1  0.0000000  0.6508444  3
  12003  12007  12009  12011     1  0.0000000  0.6508444  3
  12007  12008  12019  12022     1  0.0000000  0.6508444  3
  12007  12009  12011  12015     1  0.0000000  0.6508444  3
  12008  12007  12009  12011     1  0.0000000  0.6508444  3
  12008  12019  12022  12023     1  180.0000771  0.0000000  2
  12008  12019  12022  12071     1  180.0000771  0.0000000  2
  12009  12007  12008  12019     1  0.0000000  0.6508444  3
  12009  12011  12015  12016     1  180.0000771  0.0000000  2
  12009  12011  12015  12047     1  180.0000771  0.0000000  2
  12011  12015  12047  12028     1  180.0000771  6.0668000  2
  12011  12015  12047  12028     1  180.0000771  1.4644000  4
  12015  12047  12028  12027     1  0.0000000  1.2552000  3
  12015  12047  12028  12029     1  0.0000000  1.2552000  3
  12016  12015  12047  12028     1  180.0000771  6.0668000  2
  12016  12015  12047  12028     1  180.0000771  1.4644000  4
  12019  12022  12071  12052     1  180.0000771  6.0668000  2
  12019  12022  12071  12052     1  180.0000771  1.4644000  4
  12022  12071  12052  12051     1  0.0000000  1.2552000  3
  12022  12071  12052  12053     1  0.0000000  1.2552000  3
  12023  12022  12071  12052     1  180.0000771  6.0668000  2
  12023  12022  12071  12052     1  180.0000771  1.4644000  4
  12024  12025  12027  12028     1  180.0000771  0.8368000  1
  12024  12025  12027  12028     1  180.0000771  1.0460000  2
  12024  12025  12027  12028     1  0.0000000  0.7531200  3
  12024  12025  12027  12034     1  0.0000000  0.6508444  3
  12024  12042  12029  12028     1  180.0000771  0.4184000  2
  12024  12042  12029  12028     1  0.0000000  1.6024720  3
  12024  12042  12029  12033     1  0.0000000  1.6038667  3
  12025  12024  12035  12040     1  0.0000000  0.6508444  3
  12025  12024  12042  12029     1  180.0000771  0.4184000  2
  12025  12024  12042  12029     1  0.0000000  1.6024720  3
  12025  12027  12028  12029     1  180.0000771  0.8368000  1
  12025  12027  12028  12029     1  180.0000771  1.0460000  2
  12025  12027  12028  12029     1  0.0000000  0.7531200  3
  12025  12027  12028  12047     1  0.0000000  0.6508444  3
  12027  12025  12024  12035     1  180.0000771  0.8368000  1
  12027  12025  12024  12035     1  180.0000771  1.0460000  2
  12027  12025  12024  12035     1  0.0000000  0.7531200  3
  12027  12025  12024  12042     1  0.0000000  0.6508444  3
  12027  12028  12029  12033     1  0.0000000  0.6508444  3
  12027  12028  12029  12042     1  0.0000000  0.6508444  3
  12028  12027  12025  12045     1  0.0000000  0.6508444  3
  12029  12028  12027  12034     1  0.0000000  0.6508444  3
  12029  12042  12024  12035     1  180.0000771  0.4184000  2
  12029  12042  12024  12035     1  0.0000000  1.6024720  3
  12033  12029  12028  12047     1  0.0000000  0.6508444  3
  12034  12027  12025  12045     1  0.0000000  4.9162000  2
  12034  12027  12025  12045     1  0.0000000  0.6024960  3
  12034  12027  12028  12047     1  0.0000000  0.6508444  3
  12035  12024  12025  12045     1  0.0000000  0.6508444  3
  12040  12035  12024  12042     1  0.0000000  4.9162000  2
  12040  12035  12024  12042     1  0.0000000  0.6024960  3
  12042  12024  12025  12045     1  0.0000000  4.9162000  2
  12042  12024  12025  12045     1  0.0000000  0.6024960  3
  12042  12029  12028  12047     1  0.0000000  0.6508444  3
  12048  12049  12051  12052     1  180.0000771  0.8368000  1
  12048  12049  12051  12052     1  180.0000771  1.0460000  2
  12048  12049  12051  12052     1  0.0000000  0.7531200  3
  12048  12049  12051  12058     1  0.0000000  0.6508444  3
  12048  12066  12053  12052     1  180.0000771  0.4184000  2
  12048  12066  12053  12052     1  0.0000000  1.6024720  3
  12048  12066  12053  12057     1  0.0000000  1.6038667  3
  12049  12048  12059  12064     1  0.0000000  0.6508444  3
  12049  12048  12066  12053     1  180.0000771  0.4184000  2
  12049  12048  12066  12053     1  0.0000000  1.6024720  3
  12049  12051  12052  12053     1  180.0000771  0.8368000  1
  12049  12051  12052  12053     1  180.0000771  1.0460000  2
  12049  12051  12052  12053     1  0.0000000  0.7531200  3
  12049  12051  12052  12071     1  0.0000000  0.6508444  3
  12051  12049  12048  12059     1  180.0000771  0.8368000  1
  12051  12049  12048  12059     1  180.0000771  1.0460000  2
  12051  12049  12048  12059     1  0.0000000  0.7531200  3
  12051  12049  12048  12066     1  0.0000000  0.6508444  3
  12051  12052  12053  12057     1  0.0000000  0.6508444  3
  12051  12052  12053  12066     1  0.0000000  0.6508444  3
  12052  12051  12049  12069     1  0.0000000  0.6508444  3
  12053  12052  12051  12058     1  0.0000000  0.6508444  3
  12053  12066  12048  12059     1  180.0000771  0.4184000  2
  12053  12066  12048  12059     1  0.0000000  1.6024720  3
  12057  12053  12052  12071     1  0.0000000  0.6508444  3
  12058  12051  12049  12069     1  0.0000000  4.9162000  2
  12058  12051  12049  12069     1  0.0000000  0.6024960  3
  12058  12051  12052  12071     1  0.0000000  0.6508444  3
  12059  12048  12049  12069     1  0.0000000  0.6508444  3
  12064  12059  12048  12066     1  0.0000000  4.9162000  2
  12064  12059  12048  12066     1  0.0000000  0.6024960  3
  12066  12048  12049  12069     1  0.0000000  4.9162000  2
  12066  12048  12049  12069     1  0.0000000  0.6024960  3
  12066  12053  12052  12071     1  0.0000000  0.6508444  3
  12073  12075  12077  12081     1  0.0000000  0.6508444  3
  12075  12077  12081  12082     1  0.0000000  0.6508444  3
  12075  12077  12081  12083     1  0.0000000  0.6508444  3
  12077  12081  12082  12093     1  0.0000000  0.6508444  3
  12077  12081  12083  12085     1  0.0000000  0.6508444  3
  12081  12082  12093  12096     1  0.0000000  0.6508444  3
  12081  12083  12085  12089     1  0.0000000  0.6508444  3
  12082  12093  12096  12097     1  180.0000771  0.0000000  2
  12082  12093  12096  12145     1  180.0000771  0.0000000  2
  12082  12081  12083  12085     1  0.0000000  0.6508444  3
  12083  12085  12089  12090     1  180.0000771  0.0000000  2
  12083  12085  12089  12121     1  180.0000771  0.0000000  2
  12083  12081  12082  12093     1  0.0000000  0.6508444  3
  12085  12089  12121  12102     1  180.0000771  6.0668000  2
  12085  12089  12121  12102     1  180.0000771  1.4644000  4
  12089  12121  12102  12103     1  0.0000000  1.2552000  3
  12089  12121  12102  12101     1  0.0000000  1.2552000  3
  12090  12089  12121  12102     1  180.0000771  6.0668000  2
  12090  12089  12121  12102     1  180.0000771  1.4644000  4
  12093  12096  12145  12126     1  180.0000771  6.0668000  2
  12093  12096  12145  12126     1  180.0000771  1.4644000  4
  12096  12145  12126  12127     1  0.0000000  1.2552000  3
  12096  12145  12126  12125     1  0.0000000  1.2552000  3
  12097  12096  12145  12126     1  180.0000771  6.0668000  2
  12097  12096  12145  12126     1  180.0000771  1.4644000  4
  12098  12099  12101  12102     1  180.0000771  0.8368000  1
  12098  12099  12101  12102     1  180.0000771  1.0460000  2
  12098  12099  12101  12102     1  0.0000000  0.7531200  3
  12098  12099  12101  12108     1  0.0000000  0.6508444  3
  12098  12116  12103  12107     1  0.0000000  1.6038667  3
  12098  12116  12103  12102     1  180.0000771  0.4184000  2
  12098  12116  12103  12102     1  0.0000000  1.6024720  3
  12099  12101  12102  12103     1  180.0000771  0.8368000  1
  12099  12101  12102  12103     1  180.0000771  1.0460000  2
  12099  12101  12102  12103     1  0.0000000  0.7531200  3
  12099  12101  12102  12121     1  0.0000000  0.6508444  3
  12099  12098  12109  12114     1  0.0000000  0.6508444  3
  12099  12098  12116  12103     1  180.0000771  0.4184000  2
  12099  12098  12116  12103     1  0.0000000  1.6024720  3
  12101  12102  12103  12107     1  0.0000000  0.6508444  3
  12101  12102  12103  12116     1  0.0000000  0.6508444  3
  12101  12099  12098  12109     1  180.0000771  0.8368000  1
  12101  12099  12098  12109     1  180.0000771  1.0460000  2
  12101  12099  12098  12109     1  0.0000000  0.7531200  3
  12101  12099  12098  12116     1  0.0000000  0.6508444  3
  12102  12101  12099  12119     1  0.0000000  0.6508444  3
  12103  12116  12098  12109     1  180.0000771  0.4184000  2
  12103  12116  12098  12109     1  0.0000000  1.6024720  3
  12103  12102  12101  12108     1  0.0000000  0.6508444  3
  12107  12103  12102  12121     1  0.0000000  0.6508444  3
  12108  12101  12102  12121     1  0.0000000  0.6508444  3
  12108  12101  12099  12119     1  0.0000000  4.9162000  2
  12108  12101  12099  12119     1  0.0000000  0.6024960  3
  12109  12098  12099  12119     1  0.0000000  0.6508444  3
  12114  12109  12098  12116     1  0.0000000  4.9162000  2
  12114  12109  12098  12116     1  0.0000000  0.6024960  3
  12116  12103  12102  12121     1  0.0000000  0.6508444  3
  12116  12098  12099  12119     1  0.0000000  4.9162000  2
  12116  12098  12099  12119     1  0.0000000  0.6024960  3
  12122  12123  12125  12126     1  180.0000771  0.8368000  1
  12122  12123  12125  12126     1  180.0000771  1.0460000  2
  12122  12123  12125  12126     1  0.0000000  0.7531200  3
  12122  12123  12125  12132     1  0.0000000  0.6508444  3
  12122  12140  12127  12131     1  0.0000000  1.6038667  3
  12122  12140  12127  12126     1  180.0000771  0.4184000  2
  12122  12140  12127  12126     1  0.0000000  1.6024720  3
  12123  12125  12126  12127     1  180.0000771  0.8368000  1
  12123  12125  12126  12127     1  180.0000771  1.0460000  2
  12123  12125  12126  12127     1  0.0000000  0.7531200  3
  12123  12125  12126  12145     1  0.0000000  0.6508444  3
  12123  12122  12133  12138     1  0.0000000  0.6508444  3
  12123  12122  12140  12127     1  180.0000771  0.4184000  2
  12123  12122  12140  12127     1  0.0000000  1.6024720  3
  12125  12126  12127  12131     1  0.0000000  0.6508444  3
  12125  12126  12127  12140     1  0.0000000  0.6508444  3
  12125  12123  12122  12133     1  180.0000771  0.8368000  1
  12125  12123  12122  12133     1  180.0000771  1.0460000  2
  12125  12123  12122  12133     1  0.0000000  0.7531200  3
  12125  12123  12122  12140     1  0.0000000  0.6508444  3
  12126  12125  12123  12143     1  0.0000000  0.6508444  3
  12127  12140  12122  12133     1  180.0000771  0.4184000  2
  12127  12140  12122  12133     1  0.0000000  1.6024720  3
  12127  12126  12125  12132     1  0.0000000  0.6508444  3
  12131  12127  12126  12145     1  0.0000000  0.6508444  3
  12132  12125  12126  12145     1  0.0000000  0.6508444  3
  12132  12125  12123  12143     1  0.0000000  4.9162000  2
  12132  12125  12123  12143     1  0.0000000  0.6024960  3
  12133  12122  12123  12143     1  0.0000000  0.6508444  3
  12138  12133  12122  12140     1  0.0000000  4.9162000  2
  12138  12133  12122  12140     1  0.0000000  0.6024960  3
  12140  12127  12126  12145     1  0.0000000  0.6508444  3
  12140  12122  12123  12143     1  0.0000000  4.9162000  2
  12140  12122  12123  12143     1  0.0000000  0.6024960  3
  12147  12149  12151  12155     1  0.0000000  0.6508444  3
  12149  12151  12155  12156     1  0.0000000  0.6508444  3
  12149  12151  12155  12157     1  0.0000000  0.6508444  3
  12151  12155  12156  12167     1  0.0000000  0.6508444  3
  12151  12155  12157  12159     1  0.0000000  0.6508444  3
  12155  12156  12167  12170     1  0.0000000  0.6508444  3
  12155  12157  12159  12163     1  0.0000000  0.6508444  3
  12156  12155  12157  12159     1  0.0000000  0.6508444  3
  12156  12167  12170  12171     1  180.0000771  0.0000000  2
  12156  12167  12170  12219     1  180.0000771  0.0000000  2
  12157  12155  12156  12167     1  0.0000000  0.6508444  3
  12157  12159  12163  12164     1  180.0000771  0.0000000  2
  12157  12159  12163  12195     1  180.0000771  0.0000000  2
  12159  12163  12195  12176     1  180.0000771  6.0668000  2
  12159  12163  12195  12176     1  180.0000771  1.4644000  4
  12163  12195  12176  12175     1  0.0000000  1.2552000  3
  12163  12195  12176  12177     1  0.0000000  1.2552000  3
  12164  12163  12195  12176     1  180.0000771  6.0668000  2
  12164  12163  12195  12176     1  180.0000771  1.4644000  4
  12167  12170  12219  12200     1  180.0000771  6.0668000  2
  12167  12170  12219  12200     1  180.0000771  1.4644000  4
  12170  12219  12200  12199     1  0.0000000  1.2552000  3
  12170  12219  12200  12201     1  0.0000000  1.2552000  3
  12171  12170  12219  12200     1  180.0000771  6.0668000  2
  12171  12170  12219  12200     1  180.0000771  1.4644000  4
  12172  12173  12175  12176     1  180.0000771  0.8368000  1
  12172  12173  12175  12176     1  180.0000771  1.0460000  2
  12172  12173  12175  12176     1  0.0000000  0.7531200  3
  12172  12173  12175  12182     1  0.0000000  0.6508444  3
  12172  12190  12177  12176     1  180.0000771  0.4184000  2
  12172  12190  12177  12176     1  0.0000000  1.6024720  3
  12172  12190  12177  12181     1  0.0000000  1.6038667  3
  12173  12172  12183  12188     1  0.0000000  0.6508444  3
  12173  12172  12190  12177     1  180.0000771  0.4184000  2
  12173  12172  12190  12177     1  0.0000000  1.6024720  3
  12173  12175  12176  12177     1  180.0000771  0.8368000  1
  12173  12175  12176  12177     1  180.0000771  1.0460000  2
  12173  12175  12176  12177     1  0.0000000  0.7531200  3
  12173  12175  12176  12195     1  0.0000000  0.6508444  3
  12175  12173  12172  12183     1  180.0000771  0.8368000  1
  12175  12173  12172  12183     1  180.0000771  1.0460000  2
  12175  12173  12172  12183     1  0.0000000  0.7531200  3
  12175  12173  12172  12190     1  0.0000000  0.6508444  3
  12175  12176  12177  12181     1  0.0000000  0.6508444  3
  12175  12176  12177  12190     1  0.0000000  0.6508444  3
  12176  12175  12173  12193     1  0.0000000  0.6508444  3
  12177  12176  12175  12182     1  0.0000000  0.6508444  3
  12177  12190  12172  12183     1  180.0000771  0.4184000  2
  12177  12190  12172  12183     1  0.0000000  1.6024720  3
  12181  12177  12176  12195     1  0.0000000  0.6508444  3
  12182  12175  12173  12193     1  0.0000000  4.9162000  2
  12182  12175  12173  12193     1  0.0000000  0.6024960  3
  12182  12175  12176  12195     1  0.0000000  0.6508444  3
  12183  12172  12173  12193     1  0.0000000  0.6508444  3
  12188  12183  12172  12190     1  0.0000000  4.9162000  2
  12188  12183  12172  12190     1  0.0000000  0.6024960  3
  12190  12172  12173  12193     1  0.0000000  4.9162000  2
  12190  12172  12173  12193     1  0.0000000  0.6024960  3
  12190  12177  12176  12195     1  0.0000000  0.6508444  3
  12196  12197  12199  12200     1  180.0000771  0.8368000  1
  12196  12197  12199  12200     1  180.0000771  1.0460000  2
  12196  12197  12199  12200     1  0.0000000  0.7531200  3
  12196  12197  12199  12206     1  0.0000000  0.6508444  3
  12196  12214  12201  12200     1  180.0000771  0.4184000  2
  12196  12214  12201  12200     1  0.0000000  1.6024720  3
  12196  12214  12201  12205     1  0.0000000  1.6038667  3
  12197  12196  12207  12212     1  0.0000000  0.6508444  3
  12197  12196  12214  12201     1  180.0000771  0.4184000  2
  12197  12196  12214  12201     1  0.0000000  1.6024720  3
  12197  12199  12200  12201     1  180.0000771  0.8368000  1
  12197  12199  12200  12201     1  180.0000771  1.0460000  2
  12197  12199  12200  12201     1  0.0000000  0.7531200  3
  12197  12199  12200  12219     1  0.0000000  0.6508444  3
  12199  12197  12196  12207     1  180.0000771  0.8368000  1
  12199  12197  12196  12207     1  180.0000771  1.0460000  2
  12199  12197  12196  12207     1  0.0000000  0.7531200  3
  12199  12197  12196  12214     1  0.0000000  0.6508444  3
  12199  12200  12201  12205     1  0.0000000  0.6508444  3
  12199  12200  12201  12214     1  0.0000000  0.6508444  3
  12200  12199  12197  12217     1  0.0000000  0.6508444  3
  12201  12200  12199  12206     1  0.0000000  0.6508444  3
  12201  12214  12196  12207     1  180.0000771  0.4184000  2
  12201  12214  12196  12207     1  0.0000000  1.6024720  3
  12205  12201  12200  12219     1  0.0000000  0.6508444  3
  12206  12199  12197  12217     1  0.0000000  4.9162000  2
  12206  12199  12197  12217     1  0.0000000  0.6024960  3
  12206  12199  12200  12219     1  0.0000000  0.6508444  3
  12207  12196  12197  12217     1  0.0000000  0.6508444  3
  12212  12207  12196  12214     1  0.0000000  4.9162000  2
  12212  12207  12196  12214     1  0.0000000  0.6024960  3
  12214  12196  12197  12217     1  0.0000000  4.9162000  2
  12214  12196  12197  12217     1  0.0000000  0.6024960  3
  12214  12201  12200  12219     1  0.0000000  0.6508444  3
  12221  12223  12225  12229     1  0.0000000  0.6508444  3
  12223  12225  12229  12230     1  0.0000000  0.6508444  3
  12223  12225  12229  12231     1  0.0000000  0.6508444  3
  12225  12229  12230  12241     1  0.0000000  0.6508444  3
  12225  12229  12231  12233     1  0.0000000  0.6508444  3
  12229  12230  12241  12244     1  0.0000000  0.6508444  3
  12229  12231  12233  12237     1  0.0000000  0.6508444  3
  12230  12241  12244  12245     1  180.0000771  0.0000000  2
  12230  12241  12244  12293     1  180.0000771  0.0000000  2
  12230  12229  12231  12233     1  0.0000000  0.6508444  3
  12231  12233  12237  12238     1  180.0000771  0.0000000  2
  12231  12233  12237  12269     1  180.0000771  0.0000000  2
  12231  12229  12230  12241     1  0.0000000  0.6508444  3
  12233  12237  12269  12250     1  180.0000771  6.0668000  2
  12233  12237  12269  12250     1  180.0000771  1.4644000  4
  12237  12269  12250  12251     1  0.0000000  1.2552000  3
  12237  12269  12250  12249     1  0.0000000  1.2552000  3
  12238  12237  12269  12250     1  180.0000771  6.0668000  2
  12238  12237  12269  12250     1  180.0000771  1.4644000  4
  12241  12244  12293  12274     1  180.0000771  6.0668000  2
  12241  12244  12293  12274     1  180.0000771  1.4644000  4
  12244  12293  12274  12275     1  0.0000000  1.2552000  3
  12244  12293  12274  12273     1  0.0000000  1.2552000  3
  12245  12244  12293  12274     1  180.0000771  6.0668000  2
  12245  12244  12293  12274     1  180.0000771  1.4644000  4
  12246  12247  12249  12250     1  180.0000771  0.8368000  1
  12246  12247  12249  12250     1  180.0000771  1.0460000  2
  12246  12247  12249  12250     1  0.0000000  0.7531200  3
  12246  12247  12249  12256     1  0.0000000  0.6508444  3
  12246  12264  12251  12255     1  0.0000000  1.6038667  3
  12246  12264  12251  12250     1  180.0000771  0.4184000  2
  12246  12264  12251  12250     1  0.0000000  1.6024720  3
  12247  12249  12250  12251     1  180.0000771  0.8368000  1
  12247  12249  12250  12251     1  180.0000771  1.0460000  2
  12247  12249  12250  12251     1  0.0000000  0.7531200  3
  12247  12249  12250  12269     1  0.0000000  0.6508444  3
  12247  12246  12257  12262     1  0.0000000  0.6508444  3
  12247  12246  12264  12251     1  180.0000771  0.4184000  2
  12247  12246  12264  12251     1  0.0000000  1.6024720  3
  12249  12250  12251  12255     1  0.0000000  0.6508444  3
  12249  12250  12251  12264     1  0.0000000  0.6508444  3
  12249  12247  12246  12257     1  180.0000771  0.8368000  1
  12249  12247  12246  12257     1  180.0000771  1.0460000  2
  12249  12247  12246  12257     1  0.0000000  0.7531200  3
  12249  12247  12246  12264     1  0.0000000  0.6508444  3
  12250  12249  12247  12267     1  0.0000000  0.6508444  3
  12251  12264  12246  12257     1  180.0000771  0.4184000  2
  12251  12264  12246  12257     1  0.0000000  1.6024720  3
  12251  12250  12249  12256     1  0.0000000  0.6508444  3
  12255  12251  12250  12269     1  0.0000000  0.6508444  3
  12256  12249  12250  12269     1  0.0000000  0.6508444  3
  12256  12249  12247  12267     1  0.0000000  4.9162000  2
  12256  12249  12247  12267     1  0.0000000  0.6024960  3
  12257  12246  12247  12267     1  0.0000000  0.6508444  3
  12262  12257  12246  12264     1  0.0000000  4.9162000  2
  12262  12257  12246  12264     1  0.0000000  0.6024960  3
  12264  12251  12250  12269     1  0.0000000  0.6508444  3
  12264  12246  12247  12267     1  0.0000000  4.9162000  2
  12264  12246  12247  12267     1  0.0000000  0.6024960  3
  12270  12271  12273  12274     1  180.0000771  0.8368000  1
  12270  12271  12273  12274     1  180.0000771  1.0460000  2
  12270  12271  12273  12274     1  0.0000000  0.7531200  3
  12270  12271  12273  12280     1  0.0000000  0.6508444  3
  12270  12288  12275  12279     1  0.0000000  1.6038667  3
  12270  12288  12275  12274     1  180.0000771  0.4184000  2
  12270  12288  12275  12274     1  0.0000000  1.6024720  3
  12271  12273  12274  12275     1  180.0000771  0.8368000  1
  12271  12273  12274  12275     1  180.0000771  1.0460000  2
  12271  12273  12274  12275     1  0.0000000  0.7531200  3
  12271  12273  12274  12293     1  0.0000000  0.6508444  3
  12271  12270  12281  12286     1  0.0000000  0.6508444  3
  12271  12270  12288  12275     1  180.0000771  0.4184000  2
  12271  12270  12288  12275     1  0.0000000  1.6024720  3
  12273  12274  12275  12279     1  0.0000000  0.6508444  3
  12273  12274  12275  12288     1  0.0000000  0.6508444  3
  12273  12271  12270  12281     1  180.0000771  0.8368000  1
  12273  12271  12270  12281     1  180.0000771  1.0460000  2
  12273  12271  12270  12281     1  0.0000000  0.7531200  3
  12273  12271  12270  12288     1  0.0000000  0.6508444  3
  12274  12273  12271  12291     1  0.0000000  0.6508444  3
  12275  12288  12270  12281     1  180.0000771  0.4184000  2
  12275  12288  12270  12281     1  0.0000000  1.6024720  3
  12275  12274  12273  12280     1  0.0000000  0.6508444  3
  12279  12275  12274  12293     1  0.0000000  0.6508444  3
  12280  12273  12274  12293     1  0.0000000  0.6508444  3
  12280  12273  12271  12291     1  0.0000000  4.9162000  2
  12280  12273  12271  12291     1  0.0000000  0.6024960  3
  12281  12270  12271  12291     1  0.0000000  0.6508444  3
  12286  12281  12270  12288     1  0.0000000  4.9162000  2
  12286  12281  12270  12288     1  0.0000000  0.6024960  3
  12288  12275  12274  12293     1  0.0000000  0.6508444  3
  12288  12270  12271  12291     1  0.0000000  4.9162000  2
  12288  12270  12271  12291     1  0.0000000  0.6024960  3
  12295  12297  12299  12303     1  0.0000000  0.6508444  3
  12297  12299  12303  12304     1  0.0000000  0.6508444  3
  12297  12299  12303  12305     1  0.0000000  0.6508444  3
  12299  12303  12304  12315     1  0.0000000  0.6508444  3
  12299  12303  12305  12307     1  0.0000000  0.6508444  3
  12303  12304  12315  12318     1  0.0000000  0.6508444  3
  12303  12305  12307  12311     1  0.0000000  0.6508444  3
  12304  12303  12305  12307     1  0.0000000  0.6508444  3
  12304  12315  12318  12319     1  180.0000771  0.0000000  2
  12304  12315  12318  12367     1  180.0000771  0.0000000  2
  12305  12303  12304  12315     1  0.0000000  0.6508444  3
  12305  12307  12311  12312     1  180.0000771  0.0000000  2
  12305  12307  12311  12343     1  180.0000771  0.0000000  2
  12307  12311  12343  12324     1  180.0000771  6.0668000  2
  12307  12311  12343  12324     1  180.0000771  1.4644000  4
  12311  12343  12324  12323     1  0.0000000  1.2552000  3
  12311  12343  12324  12325     1  0.0000000  1.2552000  3
  12312  12311  12343  12324     1  180.0000771  6.0668000  2
  12312  12311  12343  12324     1  180.0000771  1.4644000  4
  12315  12318  12367  12348     1  180.0000771  6.0668000  2
  12315  12318  12367  12348     1  180.0000771  1.4644000  4
  12318  12367  12348  12347     1  0.0000000  1.2552000  3
  12318  12367  12348  12349     1  0.0000000  1.2552000  3
  12319  12318  12367  12348     1  180.0000771  6.0668000  2
  12319  12318  12367  12348     1  180.0000771  1.4644000  4
  12320  12321  12323  12324     1  180.0000771  0.8368000  1
  12320  12321  12323  12324     1  180.0000771  1.0460000  2
  12320  12321  12323  12324     1  0.0000000  0.7531200  3
  12320  12321  12323  12330     1  0.0000000  0.6508444  3
  12320  12338  12325  12324     1  180.0000771  0.4184000  2
  12320  12338  12325  12324     1  0.0000000  1.6024720  3
  12320  12338  12325  12329     1  0.0000000  1.6038667  3
  12321  12320  12331  12336     1  0.0000000  0.6508444  3
  12321  12320  12338  12325     1  180.0000771  0.4184000  2
  12321  12320  12338  12325     1  0.0000000  1.6024720  3
  12321  12323  12324  12325     1  180.0000771  0.8368000  1
  12321  12323  12324  12325     1  180.0000771  1.0460000  2
  12321  12323  12324  12325     1  0.0000000  0.7531200  3
  12321  12323  12324  12343     1  0.0000000  0.6508444  3
  12323  12321  12320  12331     1  180.0000771  0.8368000  1
  12323  12321  12320  12331     1  180.0000771  1.0460000  2
  12323  12321  12320  12331     1  0.0000000  0.7531200  3
  12323  12321  12320  12338     1  0.0000000  0.6508444  3
  12323  12324  12325  12329     1  0.0000000  0.6508444  3
  12323  12324  12325  12338     1  0.0000000  0.6508444  3
  12324  12323  12321  12341     1  0.0000000  0.6508444  3
  12325  12324  12323  12330     1  0.0000000  0.6508444  3
  12325  12338  12320  12331     1  180.0000771  0.4184000  2
  12325  12338  12320  12331     1  0.0000000  1.6024720  3
  12329  12325  12324  12343     1  0.0000000  0.6508444  3
  12330  12323  12321  12341     1  0.0000000  4.9162000  2
  12330  12323  12321  12341     1  0.0000000  0.6024960  3
  12330  12323  12324  12343     1  0.0000000  0.6508444  3
  12331  12320  12321  12341     1  0.0000000  0.6508444  3
  12336  12331  12320  12338     1  0.0000000  4.9162000  2
  12336  12331  12320  12338     1  0.0000000  0.6024960  3
  12338  12320  12321  12341     1  0.0000000  4.9162000  2
  12338  12320  12321  12341     1  0.0000000  0.6024960  3
  12338  12325  12324  12343     1  0.0000000  0.6508444  3
  12344  12345  12347  12348     1  180.0000771  0.8368000  1
  12344  12345  12347  12348     1  180.0000771  1.0460000  2
  12344  12345  12347  12348     1  0.0000000  0.7531200  3
  12344  12345  12347  12354     1  0.0000000  0.6508444  3
  12344  12362  12349  12348     1  180.0000771  0.4184000  2
  12344  12362  12349  12348     1  0.0000000  1.6024720  3
  12344  12362  12349  12353     1  0.0000000  1.6038667  3
  12345  12344  12355  12360     1  0.0000000  0.6508444  3
  12345  12344  12362  12349     1  180.0000771  0.4184000  2
  12345  12344  12362  12349     1  0.0000000  1.6024720  3
  12345  12347  12348  12349     1  180.0000771  0.8368000  1
  12345  12347  12348  12349     1  180.0000771  1.0460000  2
  12345  12347  12348  12349     1  0.0000000  0.7531200  3
  12345  12347  12348  12367     1  0.0000000  0.6508444  3
  12347  12345  12344  12355     1  180.0000771  0.8368000  1
  12347  12345  12344  12355     1  180.0000771  1.0460000  2
  12347  12345  12344  12355     1  0.0000000  0.7531200  3
  12347  12345  12344  12362     1  0.0000000  0.6508444  3
  12347  12348  12349  12353     1  0.0000000  0.6508444  3
  12347  12348  12349  12362     1  0.0000000  0.6508444  3
  12348  12347  12345  12365     1  0.0000000  0.6508444  3
  12349  12348  12347  12354     1  0.0000000  0.6508444  3
  12349  12362  12344  12355     1  180.0000771  0.4184000  2
  12349  12362  12344  12355     1  0.0000000  1.6024720  3
  12353  12349  12348  12367     1  0.0000000  0.6508444  3
  12354  12347  12345  12365     1  0.0000000  4.9162000  2
  12354  12347  12345  12365     1  0.0000000  0.6024960  3
  12354  12347  12348  12367     1  0.0000000  0.6508444  3
  12355  12344  12345  12365     1  0.0000000  0.6508444  3
  12360  12355  12344  12362     1  0.0000000  4.9162000  2
  12360  12355  12344  12362     1  0.0000000  0.6024960  3
  12362  12344  12345  12365     1  0.0000000  4.9162000  2
  12362  12344  12345  12365     1  0.0000000  0.6024960  3
  12362  12349  12348  12367     1  0.0000000  0.6508444  3
  12369  12371  12373  12377     1  0.0000000  0.6508444  3
  12371  12373  12377  12378     1  0.0000000  0.6508444  3
  12371  12373  12377  12379     1  0.0000000  0.6508444  3
  12373  12377  12378  12389     1  0.0000000  0.6508444  3
  12373  12377  12379  12381     1  0.0000000  0.6508444  3
  12377  12378  12389  12392     1  0.0000000  0.6508444  3
  12377  12379  12381  12385     1  0.0000000  0.6508444  3
  12378  12389  12392  12393     1  180.0000771  0.0000000  2
  12378  12389  12392  12441     1  180.0000771  0.0000000  2
  12378  12377  12379  12381     1  0.0000000  0.6508444  3
  12379  12381  12385  12386     1  180.0000771  0.0000000  2
  12379  12381  12385  12417     1  180.0000771  0.0000000  2
  12379  12377  12378  12389     1  0.0000000  0.6508444  3
  12381  12385  12417  12398     1  180.0000771  6.0668000  2
  12381  12385  12417  12398     1  180.0000771  1.4644000  4
  12385  12417  12398  12399     1  0.0000000  1.2552000  3
  12385  12417  12398  12397     1  0.0000000  1.2552000  3
  12386  12385  12417  12398     1  180.0000771  6.0668000  2
  12386  12385  12417  12398     1  180.0000771  1.4644000  4
  12389  12392  12441  12422     1  180.0000771  6.0668000  2
  12389  12392  12441  12422     1  180.0000771  1.4644000  4
  12392  12441  12422  12423     1  0.0000000  1.2552000  3
  12392  12441  12422  12421     1  0.0000000  1.2552000  3
  12393  12392  12441  12422     1  180.0000771  6.0668000  2
  12393  12392  12441  12422     1  180.0000771  1.4644000  4
  12394  12395  12397  12398     1  180.0000771  0.8368000  1
  12394  12395  12397  12398     1  180.0000771  1.0460000  2
  12394  12395  12397  12398     1  0.0000000  0.7531200  3
  12394  12395  12397  12404     1  0.0000000  0.6508444  3
  12394  12412  12399  12403     1  0.0000000  1.6038667  3
  12394  12412  12399  12398     1  180.0000771  0.4184000  2
  12394  12412  12399  12398     1  0.0000000  1.6024720  3
  12395  12397  12398  12399     1  180.0000771  0.8368000  1
  12395  12397  12398  12399     1  180.0000771  1.0460000  2
  12395  12397  12398  12399     1  0.0000000  0.7531200  3
  12395  12397  12398  12417     1  0.0000000  0.6508444  3
  12395  12394  12405  12410     1  0.0000000  0.6508444  3
  12395  12394  12412  12399     1  180.0000771  0.4184000  2
  12395  12394  12412  12399     1  0.0000000  1.6024720  3
  12397  12398  12399  12403     1  0.0000000  0.6508444  3
  12397  12398  12399  12412     1  0.0000000  0.6508444  3
  12397  12395  12394  12405     1  180.0000771  0.8368000  1
  12397  12395  12394  12405     1  180.0000771  1.0460000  2
  12397  12395  12394  12405     1  0.0000000  0.7531200  3
  12397  12395  12394  12412     1  0.0000000  0.6508444  3
  12398  12397  12395  12415     1  0.0000000  0.6508444  3
  12399  12412  12394  12405     1  180.0000771  0.4184000  2
  12399  12412  12394  12405     1  0.0000000  1.6024720  3
  12399  12398  12397  12404     1  0.0000000  0.6508444  3
  12403  12399  12398  12417     1  0.0000000  0.6508444  3
  12404  12397  12398  12417     1  0.0000000  0.6508444  3
  12404  12397  12395  12415     1  0.0000000  4.9162000  2
  12404  12397  12395  12415     1  0.0000000  0.6024960  3
  12405  12394  12395  12415     1  0.0000000  0.6508444  3
  12410  12405  12394  12412     1  0.0000000  4.9162000  2
  12410  12405  12394  12412     1  0.0000000  0.6024960  3
  12412  12399  12398  12417     1  0.0000000  0.6508444  3
  12412  12394  12395  12415     1  0.0000000  4.9162000  2
  12412  12394  12395  12415     1  0.0000000  0.6024960  3
  12418  12419  12421  12422     1  180.0000771  0.8368000  1
  12418  12419  12421  12422     1  180.0000771  1.0460000  2
  12418  12419  12421  12422     1  0.0000000  0.7531200  3
  12418  12419  12421  12428     1  0.0000000  0.6508444  3
  12418  12436  12423  12427     1  0.0000000  1.6038667  3
  12418  12436  12423  12422     1  180.0000771  0.4184000  2
  12418  12436  12423  12422     1  0.0000000  1.6024720  3
  12419  12421  12422  12423     1  180.0000771  0.8368000  1
  12419  12421  12422  12423     1  180.0000771  1.0460000  2
  12419  12421  12422  12423     1  0.0000000  0.7531200  3
  12419  12421  12422  12441     1  0.0000000  0.6508444  3
  12419  12418  12429  12434     1  0.0000000  0.6508444  3
  12419  12418  12436  12423     1  180.0000771  0.4184000  2
  12419  12418  12436  12423     1  0.0000000  1.6024720  3
  12421  12422  12423  12427     1  0.0000000  0.6508444  3
  12421  12422  12423  12436     1  0.0000000  0.6508444  3
  12421  12419  12418  12429     1  180.0000771  0.8368000  1
  12421  12419  12418  12429     1  180.0000771  1.0460000  2
  12421  12419  12418  12429     1  0.0000000  0.7531200  3
  12421  12419  12418  12436     1  0.0000000  0.6508444  3
  12422  12421  12419  12439     1  0.0000000  0.6508444  3
  12423  12436  12418  12429     1  180.0000771  0.4184000  2
  12423  12436  12418  12429     1  0.0000000  1.6024720  3
  12423  12422  12421  12428     1  0.0000000  0.6508444  3
  12427  12423  12422  12441     1  0.0000000  0.6508444  3
  12428  12421  12422  12441     1  0.0000000  0.6508444  3
  12428  12421  12419  12439     1  0.0000000  4.9162000  2
  12428  12421  12419  12439     1  0.0000000  0.6024960  3
  12429  12418  12419  12439     1  0.0000000  0.6508444  3
  12434  12429  12418  12436     1  0.0000000  4.9162000  2
  12434  12429  12418  12436     1  0.0000000  0.6024960  3
  12436  12423  12422  12441     1  0.0000000  0.6508444  3
  12436  12418  12419  12439     1  0.0000000  4.9162000  2
  12436  12418  12419  12439     1  0.0000000  0.6024960  3
  12443  12445  12447  12451     1  0.0000000  0.6508444  3
  12445  12447  12451  12452     1  0.0000000  0.6508444  3
  12445  12447  12451  12453     1  0.0000000  0.6508444  3
  12447  12451  12452  12463     1  0.0000000  0.6508444  3
  12447  12451  12453  12455     1  0.0000000  0.6508444  3
  12451  12452  12463  12466     1  0.0000000  0.6508444  3
  12451  12453  12455  12459     1  0.0000000  0.6508444  3
  12452  12451  12453  12455     1  0.0000000  0.6508444  3
  12452  12463  12466  12467     1  180.0000771  0.0000000  2
  12452  12463  12466  12515     1  180.0000771  0.0000000  2
  12453  12451  12452  12463     1  0.0000000  0.6508444  3
  12453  12455  12459  12460     1  180.0000771  0.0000000  2
  12453  12455  12459  12491     1  180.0000771  0.0000000  2
  12455  12459  12491  12472     1  180.0000771  6.0668000  2
  12455  12459  12491  12472     1  180.0000771  1.4644000  4
  12459  12491  12472  12471     1  0.0000000  1.2552000  3
  12459  12491  12472  12473     1  0.0000000  1.2552000  3
  12460  12459  12491  12472     1  180.0000771  6.0668000  2
  12460  12459  12491  12472     1  180.0000771  1.4644000  4
  12463  12466  12515  12496     1  180.0000771  6.0668000  2
  12463  12466  12515  12496     1  180.0000771  1.4644000  4
  12466  12515  12496  12495     1  0.0000000  1.2552000  3
  12466  12515  12496  12497     1  0.0000000  1.2552000  3
  12467  12466  12515  12496     1  180.0000771  6.0668000  2
  12467  12466  12515  12496     1  180.0000771  1.4644000  4
  12468  12469  12471  12472     1  180.0000771  0.8368000  1
  12468  12469  12471  12472     1  180.0000771  1.0460000  2
  12468  12469  12471  12472     1  0.0000000  0.7531200  3
  12468  12469  12471  12478     1  0.0000000  0.6508444  3
  12468  12486  12473  12472     1  180.0000771  0.4184000  2
  12468  12486  12473  12472     1  0.0000000  1.6024720  3
  12468  12486  12473  12477     1  0.0000000  1.6038667  3
  12469  12468  12479  12484     1  0.0000000  0.6508444  3
  12469  12468  12486  12473     1  180.0000771  0.4184000  2
  12469  12468  12486  12473     1  0.0000000  1.6024720  3
  12469  12471  12472  12473     1  180.0000771  0.8368000  1
  12469  12471  12472  12473     1  180.0000771  1.0460000  2
  12469  12471  12472  12473     1  0.0000000  0.7531200  3
  12469  12471  12472  12491     1  0.0000000  0.6508444  3
  12471  12469  12468  12479     1  180.0000771  0.8368000  1
  12471  12469  12468  12479     1  180.0000771  1.0460000  2
  12471  12469  12468  12479     1  0.0000000  0.7531200  3
  12471  12469  12468  12486     1  0.0000000  0.6508444  3
  12471  12472  12473  12477     1  0.0000000  0.6508444  3
  12471  12472  12473  12486     1  0.0000000  0.6508444  3
  12472  12471  12469  12489     1  0.0000000  0.6508444  3
  12473  12472  12471  12478     1  0.0000000  0.6508444  3
  12473  12486  12468  12479     1  180.0000771  0.4184000  2
  12473  12486  12468  12479     1  0.0000000  1.6024720  3
  12477  12473  12472  12491     1  0.0000000  0.6508444  3
  12478  12471  12469  12489     1  0.0000000  4.9162000  2
  12478  12471  12469  12489     1  0.0000000  0.6024960  3
  12478  12471  12472  12491     1  0.0000000  0.6508444  3
  12479  12468  12469  12489     1  0.0000000  0.6508444  3
  12484  12479  12468  12486     1  0.0000000  4.9162000  2
  12484  12479  12468  12486     1  0.0000000  0.6024960  3
  12486  12468  12469  12489     1  0.0000000  4.9162000  2
  12486  12468  12469  12489     1  0.0000000  0.6024960  3
  12486  12473  12472  12491     1  0.0000000  0.6508444  3
  12492  12493  12495  12496     1  180.0000771  0.8368000  1
  12492  12493  12495  12496     1  180.0000771  1.0460000  2
  12492  12493  12495  12496     1  0.0000000  0.7531200  3
  12492  12493  12495  12502     1  0.0000000  0.6508444  3
  12492  12510  12497  12496     1  180.0000771  0.4184000  2
  12492  12510  12497  12496     1  0.0000000  1.6024720  3
  12492  12510  12497  12501     1  0.0000000  1.6038667  3
  12493  12492  12503  12508     1  0.0000000  0.6508444  3
  12493  12492  12510  12497     1  180.0000771  0.4184000  2
  12493  12492  12510  12497     1  0.0000000  1.6024720  3
  12493  12495  12496  12497     1  180.0000771  0.8368000  1
  12493  12495  12496  12497     1  180.0000771  1.0460000  2
  12493  12495  12496  12497     1  0.0000000  0.7531200  3
  12493  12495  12496  12515     1  0.0000000  0.6508444  3
  12495  12493  12492  12503     1  180.0000771  0.8368000  1
  12495  12493  12492  12503     1  180.0000771  1.0460000  2
  12495  12493  12492  12503     1  0.0000000  0.7531200  3
  12495  12493  12492  12510     1  0.0000000  0.6508444  3
  12495  12496  12497  12501     1  0.0000000  0.6508444  3
  12495  12496  12497  12510     1  0.0000000  0.6508444  3
  12496  12495  12493  12513     1  0.0000000  0.6508444  3
  12497  12496  12495  12502     1  0.0000000  0.6508444  3
  12497  12510  12492  12503     1  180.0000771  0.4184000  2
  12497  12510  12492  12503     1  0.0000000  1.6024720  3
  12501  12497  12496  12515     1  0.0000000  0.6508444  3
  12502  12495  12493  12513     1  0.0000000  4.9162000  2
  12502  12495  12493  12513     1  0.0000000  0.6024960  3
  12502  12495  12496  12515     1  0.0000000  0.6508444  3
  12503  12492  12493  12513     1  0.0000000  0.6508444  3
  12508  12503  12492  12510     1  0.0000000  4.9162000  2
  12508  12503  12492  12510     1  0.0000000  0.6024960  3
  12510  12492  12493  12513     1  0.0000000  4.9162000  2
  12510  12492  12493  12513     1  0.0000000  0.6024960  3
  12510  12497  12496  12515     1  0.0000000  0.6508444  3
  12517  12519  12521  12525     1  0.0000000  0.6508444  3
  12519  12521  12525  12526     1  0.0000000  0.6508444  3
  12519  12521  12525  12527     1  0.0000000  0.6508444  3
  12521  12525  12526  12537     1  0.0000000  0.6508444  3
  12521  12525  12527  12529     1  0.0000000  0.6508444  3
  12525  12526  12537  12540     1  0.0000000  0.6508444  3
  12525  12527  12529  12533     1  0.0000000  0.6508444  3
  12526  12537  12540  12541     1  180.0000771  0.0000000  2
  12526  12537  12540  12589     1  180.0000771  0.0000000  2
  12526  12525  12527  12529     1  0.0000000  0.6508444  3
  12527  12529  12533  12534     1  180.0000771  0.0000000  2
  12527  12529  12533  12565     1  180.0000771  0.0000000  2
  12527  12525  12526  12537     1  0.0000000  0.6508444  3
  12529  12533  12565  12546     1  180.0000771  6.0668000  2
  12529  12533  12565  12546     1  180.0000771  1.4644000  4
  12533  12565  12546  12547     1  0.0000000  1.2552000  3
  12533  12565  12546  12545     1  0.0000000  1.2552000  3
  12534  12533  12565  12546     1  180.0000771  6.0668000  2
  12534  12533  12565  12546     1  180.0000771  1.4644000  4
  12537  12540  12589  12570     1  180.0000771  6.0668000  2
  12537  12540  12589  12570     1  180.0000771  1.4644000  4
  12540  12589  12570  12571     1  0.0000000  1.2552000  3
  12540  12589  12570  12569     1  0.0000000  1.2552000  3
  12541  12540  12589  12570     1  180.0000771  6.0668000  2
  12541  12540  12589  12570     1  180.0000771  1.4644000  4
  12542  12543  12545  12546     1  180.0000771  0.8368000  1
  12542  12543  12545  12546     1  180.0000771  1.0460000  2
  12542  12543  12545  12546     1  0.0000000  0.7531200  3
  12542  12543  12545  12552     1  0.0000000  0.6508444  3
  12542  12560  12547  12551     1  0.0000000  1.6038667  3
  12542  12560  12547  12546     1  180.0000771  0.4184000  2
  12542  12560  12547  12546     1  0.0000000  1.6024720  3
  12543  12545  12546  12547     1  180.0000771  0.8368000  1
  12543  12545  12546  12547     1  180.0000771  1.0460000  2
  12543  12545  12546  12547     1  0.0000000  0.7531200  3
  12543  12545  12546  12565     1  0.0000000  0.6508444  3
  12543  12542  12553  12558     1  0.0000000  0.6508444  3
  12543  12542  12560  12547     1  180.0000771  0.4184000  2
  12543  12542  12560  12547     1  0.0000000  1.6024720  3
  12545  12546  12547  12551     1  0.0000000  0.6508444  3
  12545  12546  12547  12560     1  0.0000000  0.6508444  3
  12545  12543  12542  12553     1  180.0000771  0.8368000  1
  12545  12543  12542  12553     1  180.0000771  1.0460000  2
  12545  12543  12542  12553     1  0.0000000  0.7531200  3
  12545  12543  12542  12560     1  0.0000000  0.6508444  3
  12546  12545  12543  12563     1  0.0000000  0.6508444  3
  12547  12560  12542  12553     1  180.0000771  0.4184000  2
  12547  12560  12542  12553     1  0.0000000  1.6024720  3
  12547  12546  12545  12552     1  0.0000000  0.6508444  3
  12551  12547  12546  12565     1  0.0000000  0.6508444  3
  12552  12545  12546  12565     1  0.0000000  0.6508444  3
  12552  12545  12543  12563     1  0.0000000  4.9162000  2
  12552  12545  12543  12563     1  0.0000000  0.6024960  3
  12553  12542  12543  12563     1  0.0000000  0.6508444  3
  12558  12553  12542  12560     1  0.0000000  4.9162000  2
  12558  12553  12542  12560     1  0.0000000  0.6024960  3
  12560  12547  12546  12565     1  0.0000000  0.6508444  3
  12560  12542  12543  12563     1  0.0000000  4.9162000  2
  12560  12542  12543  12563     1  0.0000000  0.6024960  3
  12566  12567  12569  12570     1  180.0000771  0.8368000  1
  12566  12567  12569  12570     1  180.0000771  1.0460000  2
  12566  12567  12569  12570     1  0.0000000  0.7531200  3
  12566  12567  12569  12576     1  0.0000000  0.6508444  3
  12566  12584  12571  12575     1  0.0000000  1.6038667  3
  12566  12584  12571  12570     1  180.0000771  0.4184000  2
  12566  12584  12571  12570     1  0.0000000  1.6024720  3
  12567  12569  12570  12571     1  180.0000771  0.8368000  1
  12567  12569  12570  12571     1  180.0000771  1.0460000  2
  12567  12569  12570  12571     1  0.0000000  0.7531200  3
  12567  12569  12570  12589     1  0.0000000  0.6508444  3
  12567  12566  12577  12582     1  0.0000000  0.6508444  3
  12567  12566  12584  12571     1  180.0000771  0.4184000  2
  12567  12566  12584  12571     1  0.0000000  1.6024720  3
  12569  12570  12571  12575     1  0.0000000  0.6508444  3
  12569  12570  12571  12584     1  0.0000000  0.6508444  3
  12569  12567  12566  12577     1  180.0000771  0.8368000  1
  12569  12567  12566  12577     1  180.0000771  1.0460000  2
  12569  12567  12566  12577     1  0.0000000  0.7531200  3
  12569  12567  12566  12584     1  0.0000000  0.6508444  3
  12570  12569  12567  12587     1  0.0000000  0.6508444  3
  12571  12584  12566  12577     1  180.0000771  0.4184000  2
  12571  12584  12566  12577     1  0.0000000  1.6024720  3
  12571  12570  12569  12576     1  0.0000000  0.6508444  3
  12575  12571  12570  12589     1  0.0000000  0.6508444  3
  12576  12569  12570  12589     1  0.0000000  0.6508444  3
  12576  12569  12567  12587     1  0.0000000  4.9162000  2
  12576  12569  12567  12587     1  0.0000000  0.6024960  3
  12577  12566  12567  12587     1  0.0000000  0.6508444  3
  12582  12577  12566  12584     1  0.0000000  4.9162000  2
  12582  12577  12566  12584     1  0.0000000  0.6024960  3
  12584  12571  12570  12589     1  0.0000000  0.6508444  3
  12584  12566  12567  12587     1  0.0000000  4.9162000  2
  12584  12566  12567  12587     1  0.0000000  0.6024960  3
  12591  12593  12595  12599     1  0.0000000  0.6508444  3
  12593  12595  12599  12600     1  0.0000000  0.6508444  3
  12593  12595  12599  12601     1  0.0000000  0.6508444  3
  12595  12599  12600  12611     1  0.0000000  0.6508444  3
  12595  12599  12601  12603     1  0.0000000  0.6508444  3
  12599  12600  12611  12614     1  0.0000000  0.6508444  3
  12599  12601  12603  12607     1  0.0000000  0.6508444  3
  12600  12599  12601  12603     1  0.0000000  0.6508444  3
  12600  12611  12614  12615     1  180.0000771  0.0000000  2
  12600  12611  12614  12663     1  180.0000771  0.0000000  2
  12601  12599  12600  12611     1  0.0000000  0.6508444  3
  12601  12603  12607  12608     1  180.0000771  0.0000000  2
  12601  12603  12607  12639     1  180.0000771  0.0000000  2
  12603  12607  12639  12620     1  180.0000771  6.0668000  2
  12603  12607  12639  12620     1  180.0000771  1.4644000  4
  12607  12639  12620  12619     1  0.0000000  1.2552000  3
  12607  12639  12620  12621     1  0.0000000  1.2552000  3
  12608  12607  12639  12620     1  180.0000771  6.0668000  2
  12608  12607  12639  12620     1  180.0000771  1.4644000  4
  12611  12614  12663  12644     1  180.0000771  6.0668000  2
  12611  12614  12663  12644     1  180.0000771  1.4644000  4
  12614  12663  12644  12643     1  0.0000000  1.2552000  3
  12614  12663  12644  12645     1  0.0000000  1.2552000  3
  12615  12614  12663  12644     1  180.0000771  6.0668000  2
  12615  12614  12663  12644     1  180.0000771  1.4644000  4
  12616  12617  12619  12620     1  180.0000771  0.8368000  1
  12616  12617  12619  12620     1  180.0000771  1.0460000  2
  12616  12617  12619  12620     1  0.0000000  0.7531200  3
  12616  12617  12619  12626     1  0.0000000  0.6508444  3
  12616  12634  12621  12620     1  180.0000771  0.4184000  2
  12616  12634  12621  12620     1  0.0000000  1.6024720  3
  12616  12634  12621  12625     1  0.0000000  1.6038667  3
  12617  12616  12627  12632     1  0.0000000  0.6508444  3
  12617  12616  12634  12621     1  180.0000771  0.4184000  2
  12617  12616  12634  12621     1  0.0000000  1.6024720  3
  12617  12619  12620  12621     1  180.0000771  0.8368000  1
  12617  12619  12620  12621     1  180.0000771  1.0460000  2
  12617  12619  12620  12621     1  0.0000000  0.7531200  3
  12617  12619  12620  12639     1  0.0000000  0.6508444  3
  12619  12617  12616  12627     1  180.0000771  0.8368000  1
  12619  12617  12616  12627     1  180.0000771  1.0460000  2
  12619  12617  12616  12627     1  0.0000000  0.7531200  3
  12619  12617  12616  12634     1  0.0000000  0.6508444  3
  12619  12620  12621  12625     1  0.0000000  0.6508444  3
  12619  12620  12621  12634     1  0.0000000  0.6508444  3
  12620  12619  12617  12637     1  0.0000000  0.6508444  3
  12621  12620  12619  12626     1  0.0000000  0.6508444  3
  12621  12634  12616  12627     1  180.0000771  0.4184000  2
  12621  12634  12616  12627     1  0.0000000  1.6024720  3
  12625  12621  12620  12639     1  0.0000000  0.6508444  3
  12626  12619  12617  12637     1  0.0000000  4.9162000  2
  12626  12619  12617  12637     1  0.0000000  0.6024960  3
  12626  12619  12620  12639     1  0.0000000  0.6508444  3
  12627  12616  12617  12637     1  0.0000000  0.6508444  3
  12632  12627  12616  12634     1  0.0000000  4.9162000  2
  12632  12627  12616  12634     1  0.0000000  0.6024960  3
  12634  12616  12617  12637     1  0.0000000  4.9162000  2
  12634  12616  12617  12637     1  0.0000000  0.6024960  3
  12634  12621  12620  12639     1  0.0000000  0.6508444  3
  12640  12641  12643  12644     1  180.0000771  0.8368000  1
  12640  12641  12643  12644     1  180.0000771  1.0460000  2
  12640  12641  12643  12644     1  0.0000000  0.7531200  3
  12640  12641  12643  12650     1  0.0000000  0.6508444  3
  12640  12658  12645  12644     1  180.0000771  0.4184000  2
  12640  12658  12645  12644     1  0.0000000  1.6024720  3
  12640  12658  12645  12649     1  0.0000000  1.6038667  3
  12641  12640  12651  12656     1  0.0000000  0.6508444  3
  12641  12640  12658  12645     1  180.0000771  0.4184000  2
  12641  12640  12658  12645     1  0.0000000  1.6024720  3
  12641  12643  12644  12645     1  180.0000771  0.8368000  1
  12641  12643  12644  12645     1  180.0000771  1.0460000  2
  12641  12643  12644  12645     1  0.0000000  0.7531200  3
  12641  12643  12644  12663     1  0.0000000  0.6508444  3
  12643  12641  12640  12651     1  180.0000771  0.8368000  1
  12643  12641  12640  12651     1  180.0000771  1.0460000  2
  12643  12641  12640  12651     1  0.0000000  0.7531200  3
  12643  12641  12640  12658     1  0.0000000  0.6508444  3
  12643  12644  12645  12649     1  0.0000000  0.6508444  3
  12643  12644  12645  12658     1  0.0000000  0.6508444  3
  12644  12643  12641  12661     1  0.0000000  0.6508444  3
  12645  12644  12643  12650     1  0.0000000  0.6508444  3
  12645  12658  12640  12651     1  180.0000771  0.4184000  2
  12645  12658  12640  12651     1  0.0000000  1.6024720  3
  12649  12645  12644  12663     1  0.0000000  0.6508444  3
  12650  12643  12641  12661     1  0.0000000  4.9162000  2
  12650  12643  12641  12661     1  0.0000000  0.6024960  3
  12650  12643  12644  12663     1  0.0000000  0.6508444  3
  12651  12640  12641  12661     1  0.0000000  0.6508444  3
  12656  12651  12640  12658     1  0.0000000  4.9162000  2
  12656  12651  12640  12658     1  0.0000000  0.6024960  3
  12658  12640  12641  12661     1  0.0000000  4.9162000  2
  12658  12640  12641  12661     1  0.0000000  0.6024960  3
  12658  12645  12644  12663     1  0.0000000  0.6508444  3
  12665  12667  12669  12673     1  0.0000000  0.6508444  3
  12667  12669  12673  12674     1  0.0000000  0.6508444  3
  12667  12669  12673  12675     1  0.0000000  0.6508444  3
  12669  12673  12674  12685     1  0.0000000  0.6508444  3
  12669  12673  12675  12677     1  0.0000000  0.6508444  3
  12673  12674  12685  12688     1  0.0000000  0.6508444  3
  12673  12675  12677  12681     1  0.0000000  0.6508444  3
  12674  12685  12688  12689     1  180.0000771  0.0000000  2
  12674  12685  12688  12737     1  180.0000771  0.0000000  2
  12674  12673  12675  12677     1  0.0000000  0.6508444  3
  12675  12677  12681  12682     1  180.0000771  0.0000000  2
  12675  12677  12681  12713     1  180.0000771  0.0000000  2
  12675  12673  12674  12685     1  0.0000000  0.6508444  3
  12677  12681  12713  12694     1  180.0000771  6.0668000  2
  12677  12681  12713  12694     1  180.0000771  1.4644000  4
  12681  12713  12694  12695     1  0.0000000  1.2552000  3
  12681  12713  12694  12693     1  0.0000000  1.2552000  3
  12682  12681  12713  12694     1  180.0000771  6.0668000  2
  12682  12681  12713  12694     1  180.0000771  1.4644000  4
  12685  12688  12737  12718     1  180.0000771  6.0668000  2
  12685  12688  12737  12718     1  180.0000771  1.4644000  4
  12688  12737  12718  12719     1  0.0000000  1.2552000  3
  12688  12737  12718  12717     1  0.0000000  1.2552000  3
  12689  12688  12737  12718     1  180.0000771  6.0668000  2
  12689  12688  12737  12718     1  180.0000771  1.4644000  4
  12690  12691  12693  12694     1  180.0000771  0.8368000  1
  12690  12691  12693  12694     1  180.0000771  1.0460000  2
  12690  12691  12693  12694     1  0.0000000  0.7531200  3
  12690  12691  12693  12700     1  0.0000000  0.6508444  3
  12690  12708  12695  12699     1  0.0000000  1.6038667  3
  12690  12708  12695  12694     1  180.0000771  0.4184000  2
  12690  12708  12695  12694     1  0.0000000  1.6024720  3
  12691  12693  12694  12695     1  180.0000771  0.8368000  1
  12691  12693  12694  12695     1  180.0000771  1.0460000  2
  12691  12693  12694  12695     1  0.0000000  0.7531200  3
  12691  12693  12694  12713     1  0.0000000  0.6508444  3
  12691  12690  12701  12706     1  0.0000000  0.6508444  3
  12691  12690  12708  12695     1  180.0000771  0.4184000  2
  12691  12690  12708  12695     1  0.0000000  1.6024720  3
  12693  12694  12695  12699     1  0.0000000  0.6508444  3
  12693  12694  12695  12708     1  0.0000000  0.6508444  3
  12693  12691  12690  12701     1  180.0000771  0.8368000  1
  12693  12691  12690  12701     1  180.0000771  1.0460000  2
  12693  12691  12690  12701     1  0.0000000  0.7531200  3
  12693  12691  12690  12708     1  0.0000000  0.6508444  3
  12694  12693  12691  12711     1  0.0000000  0.6508444  3
  12695  12708  12690  12701     1  180.0000771  0.4184000  2
  12695  12708  12690  12701     1  0.0000000  1.6024720  3
  12695  12694  12693  12700     1  0.0000000  0.6508444  3
  12699  12695  12694  12713     1  0.0000000  0.6508444  3
  12700  12693  12694  12713     1  0.0000000  0.6508444  3
  12700  12693  12691  12711     1  0.0000000  4.9162000  2
  12700  12693  12691  12711     1  0.0000000  0.6024960  3
  12701  12690  12691  12711     1  0.0000000  0.6508444  3
  12706  12701  12690  12708     1  0.0000000  4.9162000  2
  12706  12701  12690  12708     1  0.0000000  0.6024960  3
  12708  12695  12694  12713     1  0.0000000  0.6508444  3
  12708  12690  12691  12711     1  0.0000000  4.9162000  2
  12708  12690  12691  12711     1  0.0000000  0.6024960  3
  12714  12715  12717  12718     1  180.0000771  0.8368000  1
  12714  12715  12717  12718     1  180.0000771  1.0460000  2
  12714  12715  12717  12718     1  0.0000000  0.7531200  3
  12714  12715  12717  12724     1  0.0000000  0.6508444  3
  12714  12732  12719  12723     1  0.0000000  1.6038667  3
  12714  12732  12719  12718     1  180.0000771  0.4184000  2
  12714  12732  12719  12718     1  0.0000000  1.6024720  3
  12715  12717  12718  12719     1  180.0000771  0.8368000  1
  12715  12717  12718  12719     1  180.0000771  1.0460000  2
  12715  12717  12718  12719     1  0.0000000  0.7531200  3
  12715  12717  12718  12737     1  0.0000000  0.6508444  3
  12715  12714  12725  12730     1  0.0000000  0.6508444  3
  12715  12714  12732  12719     1  180.0000771  0.4184000  2
  12715  12714  12732  12719     1  0.0000000  1.6024720  3
  12717  12718  12719  12723     1  0.0000000  0.6508444  3
  12717  12718  12719  12732     1  0.0000000  0.6508444  3
  12717  12715  12714  12725     1  180.0000771  0.8368000  1
  12717  12715  12714  12725     1  180.0000771  1.0460000  2
  12717  12715  12714  12725     1  0.0000000  0.7531200  3
  12717  12715  12714  12732     1  0.0000000  0.6508444  3
  12718  12717  12715  12735     1  0.0000000  0.6508444  3
  12719  12732  12714  12725     1  180.0000771  0.4184000  2
  12719  12732  12714  12725     1  0.0000000  1.6024720  3
  12719  12718  12717  12724     1  0.0000000  0.6508444  3
  12723  12719  12718  12737     1  0.0000000  0.6508444  3
  12724  12717  12718  12737     1  0.0000000  0.6508444  3
  12724  12717  12715  12735     1  0.0000000  4.9162000  2
  12724  12717  12715  12735     1  0.0000000  0.6024960  3
  12725  12714  12715  12735     1  0.0000000  0.6508444  3
  12730  12725  12714  12732     1  0.0000000  4.9162000  2
  12730  12725  12714  12732     1  0.0000000  0.6024960  3
  12732  12719  12718  12737     1  0.0000000  0.6508444  3
  12732  12714  12715  12735     1  0.0000000  4.9162000  2
  12732  12714  12715  12735     1  0.0000000  0.6024960  3
      9     52     10     18     4  180.0000771  43.9320000  2
     11     78     12     17     4  180.0000771  43.9320000  2
     13    104     14     20     4  180.0000771  43.9320000  2
     15    130     16     19     4  180.0000771  43.9320000  2
     46    156     47     53     4  180.0000771  43.9320000  2
     48    182     49     54     4  180.0000771  43.9320000  2
     72    208     73     79     4  180.0000771  43.9320000  2
     74    234     75     80     4  180.0000771  43.9320000  2
     98    260     99    105     4  180.0000771  43.9320000  2
    100    286    101    106     4  180.0000771  43.9320000  2
    124    312    125    131     4  180.0000771  43.9320000  2
    126    338    127    132     4  180.0000771  43.9320000  2
    150    364    151    157     4  180.0000771  43.9320000  2
    152    390    153    158     4  180.0000771  43.9320000  2
    176    416    177    183     4  180.0000771  43.9320000  2
    178    442    179    184     4  180.0000771  43.9320000  2
    202    468    203    209     4  180.0000771  43.9320000  2
    204    494    205    210     4  180.0000771  43.9320000  2
    228    520    229    235     4  180.0000771  43.9320000  2
    230    546    231    236     4  180.0000771  43.9320000  2
    254    572    255    261     4  180.0000771  43.9320000  2
    256    598    257    262     4  180.0000771  43.9320000  2
    280    624    281    287     4  180.0000771  43.9320000  2
    282    650    283    288     4  180.0000771  43.9320000  2
    306    676    307    313     4  180.0000771  43.9320000  2
    308    702    309    314     4  180.0000771  43.9320000  2
    332    728    333    339     4  180.0000771  43.9320000  2
    334    754    335    340     4  180.0000771  43.9320000  2
    358    780    359    365     4  180.0000771  43.9320000  2
    360    806    361    366     4  180.0000771  43.9320000  2
    384    832    385    391     4  180.0000771  43.9320000  2
    386    858    387    392     4  180.0000771  43.9320000  2
    410    884    411    417     4  180.0000771  43.9320000  2
    412    910    413    418     4  180.0000771  43.9320000  2
    436    936    437    443     4  180.0000771  43.9320000  2
    438    962    439    444     4  180.0000771  43.9320000  2
    462    988    463    469     4  180.0000771  43.9320000  2
    464   1014    465    470     4  180.0000771  43.9320000  2
    488   1040    489    495     4  180.0000771  43.9320000  2
    490   1066    491    496     4  180.0000771  43.9320000  2
    514   1092    515    521     4  180.0000771  43.9320000  2
    516   1118    517    522     4  180.0000771  43.9320000  2
    540   1144    541    547     4  180.0000771  43.9320000  2
    542   1170    543    548     4  180.0000771  43.9320000  2
    566   1196    567    573     4  180.0000771  43.9320000  2
    568   1222    569    574     4  180.0000771  43.9320000  2
    592   1248    593    599     4  180.0000771  43.9320000  2
    594   1274    595    600     4  180.0000771  43.9320000  2
    618   1300    619    625     4  180.0000771  43.9320000  2
    620   1326    621    626     4  180.0000771  43.9320000  2
    644   1352    645    651     4  180.0000771  43.9320000  2
    646   1378    647    652     4  180.0000771  43.9320000  2
    670   1404    671    677     4  180.0000771  43.9320000  2
    672   1430    673    678     4  180.0000771  43.9320000  2
    696   1456    697    703     4  180.0000771  43.9320000  2
    698   1482    699    704     4  180.0000771  43.9320000  2
    722   1508    723    729     4  180.0000771  43.9320000  2
    724   1534    725    730     4  180.0000771  43.9320000  2
    748   1560    749    755     4  180.0000771  43.9320000  2
    750   1586    751    756     4  180.0000771  43.9320000  2
    774   1612    775    781     4  180.0000771  43.9320000  2
    776   1638    777    782     4  180.0000771  43.9320000  2
    800   1664    801    807     4  180.0000771  43.9320000  2
    802   1690    803    808     4  180.0000771  43.9320000  2
    826   1716    827    833     4  180.0000771  43.9320000  2
    828   1742    829    834     4  180.0000771  43.9320000  2
    852   1768    853    859     4  180.0000771  43.9320000  2
    854   1794    855    860     4  180.0000771  43.9320000  2
    878   1820    879    885     4  180.0000771  43.9320000  2
    880   1846    881    886     4  180.0000771  43.9320000  2
    904   1872    905    911     4  180.0000771  43.9320000  2
    906   1898    907    912     4  180.0000771  43.9320000  2
    930   1924    931    937     4  180.0000771  43.9320000  2
    932   1950    933    938     4  180.0000771  43.9320000  2
    956   1976    957    963     4  180.0000771  43.9320000  2
    958   2002    959    964     4  180.0000771  43.9320000  2
    982   2028    983    989     4  180.0000771  43.9320000  2
    984   2054    985    990     4  180.0000771  43.9320000  2
   1008   2080   1009   1015     4  180.0000771  43.9320000  2
   1010   2106   1011   1016     4  180.0000771  43.9320000  2
   1034   2132   1035   1041     4  180.0000771  43.9320000  2
   1036   2158   1037   1042     4  180.0000771  43.9320000  2
   1060   2184   1061   1067     4  180.0000771  43.9320000  2
   1062   2210   1063   1068     4  180.0000771  43.9320000  2
   1086   2236   1087   1093     4  180.0000771  43.9320000  2
   1088   2262   1089   1094     4  180.0000771  43.9320000  2
   1112   2288   1113   1119     4  180.0000771  43.9320000  2
   1114   2314   1115   1120     4  180.0000771  43.9320000  2
   1138   2340   1139   1145     4  180.0000771  43.9320000  2
   1140   2366   1141   1146     4  180.0000771  43.9320000  2
   1164   2392   1165   1171     4  180.0000771  43.9320000  2
   1166   2418   1167   1172     4  180.0000771  43.9320000  2
   1190   2444   1191   1197     4  180.0000771  43.9320000  2
   1192   2470   1193   1198     4  180.0000771  43.9320000  2
   1216   2496   1217   1223     4  180.0000771  43.9320000  2
   1218   2522   1219   1224     4  180.0000771  43.9320000  2
   1242   2548   1243   1249     4  180.0000771  43.9320000  2
   1244   2574   1245   1250     4  180.0000771  43.9320000  2
   1268   2600   1269   1275     4  180.0000771  43.9320000  2
   1270   2626   1271   1276     4  180.0000771  43.9320000  2
   1294   2652   1295   1301     4  180.0000771  43.9320000  2
   1296   2678   1297   1302     4  180.0000771  43.9320000  2
   1320   2704   1321   1327     4  180.0000771  43.9320000  2
   1322   2730   1323   1328     4  180.0000771  43.9320000  2
   1346   2756   1347   1353     4  180.0000771  43.9320000  2
   1348   2782   1349   1354     4  180.0000771  43.9320000  2
   1372   2808   1373   1379     4  180.0000771  43.9320000  2
   1374   2834   1375   1380     4  180.0000771  43.9320000  2
   1398   2860   1399   1405     4  180.0000771  43.9320000  2
   1400   2886   1401   1406     4  180.0000771  43.9320000  2
   1424   2912   1425   1431     4  180.0000771  43.9320000  2
   1426   2938   1427   1432     4  180.0000771  43.9320000  2
   1450   2964   1451   1457     4  180.0000771  43.9320000  2
   1452   2990   1453   1458     4  180.0000771  43.9320000  2
   1476   3016   1477   1483     4  180.0000771  43.9320000  2
   1478   3042   1479   1484     4  180.0000771  43.9320000  2
   1502   3068   1503   1509     4  180.0000771  43.9320000  2
   1504   3094   1505   1510     4  180.0000771  43.9320000  2
   1528   3120   1529   1535     4  180.0000771  43.9320000  2
   1530   3146   1531   1536     4  180.0000771  43.9320000  2
   1554   3172   1555   1561     4  180.0000771  43.9320000  2
   1556   3198   1557   1562     4  180.0000771  43.9320000  2
   1580   3224   1581   1587     4  180.0000771  43.9320000  2
   1582   3250   1583   1588     4  180.0000771  43.9320000  2
   1606   3267   1607   1613     4  180.0000771  43.9320000  2
   1608   3341   1609   1614     4  180.0000771  43.9320000  2
   1632   3415   1633   1639     4  180.0000771  43.9320000  2
   1634   3489   1635   1640     4  180.0000771  43.9320000  2
   1658   3563   1659   1665     4  180.0000771  43.9320000  2
   1660   3637   1661   1666     4  180.0000771  43.9320000  2
   1684   3711   1685   1691     4  180.0000771  43.9320000  2
   1686   3785   1687   1692     4  180.0000771  43.9320000  2
   1710   3859   1711   1717     4  180.0000771  43.9320000  2
   1712   3933   1713   1718     4  180.0000771  43.9320000  2
   1736   4007   1737   1743     4  180.0000771  43.9320000  2
   1738   4081   1739   1744     4  180.0000771  43.9320000  2
   1762   4155   1763   1769     4  180.0000771  43.9320000  2
   1764   4229   1765   1770     4  180.0000771  43.9320000  2
   1788   4303   1789   1795     4  180.0000771  43.9320000  2
   1790   4377   1791   1796     4  180.0000771  43.9320000  2
   1814   4451   1815   1821     4  180.0000771  43.9320000  2
   1816   4525   1817   1822     4  180.0000771  43.9320000  2
   1840   4599   1841   1847     4  180.0000771  43.9320000  2
   1842   4673   1843   1848     4  180.0000771  43.9320000  2
   1866   4747   1867   1873     4  180.0000771  43.9320000  2
   1868   4821   1869   1874     4  180.0000771  43.9320000  2
   1892   4895   1893   1899     4  180.0000771  43.9320000  2
   1894   4969   1895   1900     4  180.0000771  43.9320000  2
   1918   5043   1919   1925     4  180.0000771  43.9320000  2
   1920   5117   1921   1926     4  180.0000771  43.9320000  2
   1944   5191   1945   1951     4  180.0000771  43.9320000  2
   1946   5265   1947   1952     4  180.0000771  43.9320000  2
   1970   5339   1971   1977     4  180.0000771  43.9320000  2
   1972   5413   1973   1978     4  180.0000771  43.9320000  2
   1996   5487   1997   2003     4  180.0000771  43.9320000  2
   1998   5561   1999   2004     4  180.0000771  43.9320000  2
   2022   5635   2023   2029     4  180.0000771  43.9320000  2
   2024   5709   2025   2030     4  180.0000771  43.9320000  2
   2048   5783   2049   2055     4  180.0000771  43.9320000  2
   2050   5857   2051   2056     4  180.0000771  43.9320000  2
   2074   5931   2075   2081     4  180.0000771  43.9320000  2
   2076   6005   2077   2082     4  180.0000771  43.9320000  2
   2100   6079   2101   2107     4  180.0000771  43.9320000  2
   2102   6153   2103   2108     4  180.0000771  43.9320000  2
   2126   6227   2127   2133     4  180.0000771  43.9320000  2
   2128   6301   2129   2134     4  180.0000771  43.9320000  2
   2152   6375   2153   2159     4  180.0000771  43.9320000  2
   2154   6449   2155   2160     4  180.0000771  43.9320000  2
   2178   6523   2179   2185     4  180.0000771  43.9320000  2
   2180   6597   2181   2186     4  180.0000771  43.9320000  2
   2204   6671   2205   2211     4  180.0000771  43.9320000  2
   2206   6745   2207   2212     4  180.0000771  43.9320000  2
   2230   6819   2231   2237     4  180.0000771  43.9320000  2
   2232   6893   2233   2238     4  180.0000771  43.9320000  2
   2256   6967   2257   2263     4  180.0000771  43.9320000  2
   2258   7041   2259   2264     4  180.0000771  43.9320000  2
   2282   7115   2283   2289     4  180.0000771  43.9320000  2
   2284   7189   2285   2290     4  180.0000771  43.9320000  2
   2308   7263   2309   2315     4  180.0000771  43.9320000  2
   2310   7337   2311   2316     4  180.0000771  43.9320000  2
   2334   7411   2335   2341     4  180.0000771  43.9320000  2
   2336   7485   2337   2342     4  180.0000771  43.9320000  2
   2360   7559   2361   2367     4  180.0000771  43.9320000  2
   2362   7633   2363   2368     4  180.0000771  43.9320000  2
   2386   7707   2387   2393     4  180.0000771  43.9320000  2
   2388   7781   2389   2394     4  180.0000771  43.9320000  2
   2412   7855   2413   2419     4  180.0000771  43.9320000  2
   2414   7929   2415   2420     4  180.0000771  43.9320000  2
   2438   8003   2439   2445     4  180.0000771  43.9320000  2
   2440   8077   2441   2446     4  180.0000771  43.9320000  2
   2464   8151   2465   2471     4  180.0000771  43.9320000  2
   2466   8225   2467   2472     4  180.0000771  43.9320000  2
   2490   8299   2491   2497     4  180.0000771  43.9320000  2
   2492   8373   2493   2498     4  180.0000771  43.9320000  2
   2516   8447   2517   2523     4  180.0000771  43.9320000  2
   2518   8521   2519   2524     4  180.0000771  43.9320000  2
   2542   8595   2543   2549     4  180.0000771  43.9320000  2
   2544   8669   2545   2550     4  180.0000771  43.9320000  2
   2568   8743   2569   2575     4  180.0000771  43.9320000  2
   2570   8817   2571   2576     4  180.0000771  43.9320000  2
   2594   8891   2595   2601     4  180.0000771  43.9320000  2
   2596   8965   2597   2602     4  180.0000771  43.9320000  2
   2620   9039   2621   2627     4  180.0000771  43.9320000  2
   2622   9113   2623   2628     4  180.0000771  43.9320000  2
   2646   9187   2647   2653     4  180.0000771  43.9320000  2
   2648   9261   2649   2654     4  180.0000771  43.9320000  2
   2672   9335   2673   2679     4  180.0000771  43.9320000  2
   2674   9409   2675   2680     4  180.0000771  43.9320000  2
   2698   9483   2699   2705     4  180.0000771  43.9320000  2
   2700   9557   2701   2706     4  180.0000771  43.9320000  2
   2724   9631   2725   2731     4  180.0000771  43.9320000  2
   2726   9705   2727   2732     4  180.0000771  43.9320000  2
   2750   9779   2751   2757     4  180.0000771  43.9320000  2
   2752   9853   2753   2758     4  180.0000771  43.9320000  2
   2776   9927   2777   2783     4  180.0000771  43.9320000  2
   2778  10001   2779   2784     4  180.0000771  43.9320000  2
   2802  10075   2803   2809     4  180.0000771  43.9320000  2
   2804  10149   2805   2810     4  180.0000771  43.9320000  2
   2828  10223   2829   2835     4  180.0000771  43.9320000  2
   2830  10297   2831   2836     4  180.0000771  43.9320000  2
   2854  10371   2855   2861     4  180.0000771  43.9320000  2
   2856  10445   2857   2862     4  180.0000771  43.9320000  2
   2880  10519   2881   2887     4  180.0000771  43.9320000  2
   2882  10593   2883   2888     4  180.0000771  43.9320000  2
   2906  10667   2907   2913     4  180.0000771  43.9320000  2
   2908  10741   2909   2914     4  180.0000771  43.9320000  2
   2932  10815   2933   2939     4  180.0000771  43.9320000  2
   2934  10889   2935   2940     4  180.0000771  43.9320000  2
   2958  10963   2959   2965     4  180.0000771  43.9320000  2
   2960  11037   2961   2966     4  180.0000771  43.9320000  2
   2984  11111   2985   2991     4  180.0000771  43.9320000  2
   2986  11185   2987   2992     4  180.0000771  43.9320000  2
   3010  11259   3011   3017     4  180.0000771  43.9320000  2
   3012  11333   3013   3018     4  180.0000771  43.9320000  2
   3036  11407   3037   3043     4  180.0000771  43.9320000  2
   3038  11481   3039   3044     4  180.0000771  43.9320000  2
   3062  11555   3063   3069     4  180.0000771  43.9320000  2
   3064  11629   3065   3070     4  180.0000771  43.9320000  2
   3088  11703   3089   3095     4  180.0000771  43.9320000  2
   3090  11777   3091   3096     4  180.0000771  43.9320000  2
   3114  11851   3115   3121     4  180.0000771  43.9320000  2
   3116  11925   3117   3122     4  180.0000771  43.9320000  2
   3140  11999   3141   3147     4  180.0000771  43.9320000  2
   3142  12073   3143   3148     4  180.0000771  43.9320000  2
   3166  12147   3167   3173     4  180.0000771  43.9320000  2
   3168  12221   3169   3174     4  180.0000771  43.9320000  2
   3192  12295   3193   3199     4  180.0000771  43.9320000  2
   3194  12369   3195   3200     4  180.0000771  43.9320000  2
   3218  12443   3219   3225     4  180.0000771  43.9320000  2
   3220  12517   3221   3226     4  180.0000771  43.9320000  2
   3244  12591   3245   3251     4  180.0000771  43.9320000  2
   3246  12665   3247   3252     4  180.0000771  43.9320000  2
   3279   3315   3283   3284     4  180.0000771  43.9320000  2
   3287   3339   3290   3291     4  180.0000771  43.9320000  2
   3353   3389   3357   3358     4  180.0000771  43.9320000  2
   3361   3413   3364   3365     4  180.0000771  43.9320000  2
   3427   3463   3431   3432     4  180.0000771  43.9320000  2
   3435   3487   3438   3439     4  180.0000771  43.9320000  2
   3501   3537   3505   3506     4  180.0000771  43.9320000  2
   3509   3561   3512   3513     4  180.0000771  43.9320000  2
   3575   3611   3579   3580     4  180.0000771  43.9320000  2
   3583   3635   3586   3587     4  180.0000771  43.9320000  2
   3649   3685   3653   3654     4  180.0000771  43.9320000  2
   3657   3709   3660   3661     4  180.0000771  43.9320000  2
   3723   3759   3727   3728     4  180.0000771  43.9320000  2
   3731   3783   3734   3735     4  180.0000771  43.9320000  2
   3797   3833   3801   3802     4  180.0000771  43.9320000  2
   3805   3857   3808   3809     4  180.0000771  43.9320000  2
   3871   3907   3875   3876     4  180.0000771  43.9320000  2
   3879   3931   3882   3883     4  180.0000771  43.9320000  2
   3945   3981   3949   3950     4  180.0000771  43.9320000  2
   3953   4005   3956   3957     4  180.0000771  43.9320000  2
   4019   4055   4023   4024     4  180.0000771  43.9320000  2
   4027   4079   4030   4031     4  180.0000771  43.9320000  2
   4093   4129   4097   4098     4  180.0000771  43.9320000  2
   4101   4153   4104   4105     4  180.0000771  43.9320000  2
   4167   4203   4171   4172     4  180.0000771  43.9320000  2
   4175   4227   4178   4179     4  180.0000771  43.9320000  2
   4241   4277   4245   4246     4  180.0000771  43.9320000  2
   4249   4301   4252   4253     4  180.0000771  43.9320000  2
   4315   4351   4319   4320     4  180.0000771  43.9320000  2
   4323   4375   4326   4327     4  180.0000771  43.9320000  2
   4389   4425   4393   4394     4  180.0000771  43.9320000  2
   4397   4449   4400   4401     4  180.0000771  43.9320000  2
   4463   4499   4467   4468     4  180.0000771  43.9320000  2
   4471   4523   4474   4475     4  180.0000771  43.9320000  2
   4537   4573   4541   4542     4  180.0000771  43.9320000  2
   4545   4597   4548   4549     4  180.0000771  43.9320000  2
   4611   4647   4615   4616     4  180.0000771  43.9320000  2
   4619   4671   4622   4623     4  180.0000771  43.9320000  2
   4685   4721   4689   4690     4  180.0000771  43.9320000  2
   4693   4745   4696   4697     4  180.0000771  43.9320000  2
   4759   4795   4763   4764     4  180.0000771  43.9320000  2
   4767   4819   4770   4771     4  180.0000771  43.9320000  2
   4833   4869   4837   4838     4  180.0000771  43.9320000  2
   4841   4893   4844   4845     4  180.0000771  43.9320000  2
   4907   4943   4911   4912     4  180.0000771  43.9320000  2
   4915   4967   4918   4919     4  180.0000771  43.9320000  2
   4981   5017   4985   4986     4  180.0000771  43.9320000  2
   4989   5041   4992   4993     4  180.0000771  43.9320000  2
   5055   5091   5059   5060     4  180.0000771  43.9320000  2
   5063   5115   5066   5067     4  180.0000771  43.9320000  2
   5129   5165   5133   5134     4  180.0000771  43.9320000  2
   5137   5189   5140   5141     4  180.0000771  43.9320000  2
   5203   5239   5207   5208     4  180.0000771  43.9320000  2
   5211   5263   5214   5215     4  180.0000771  43.9320000  2
   5277   5313   5281   5282     4  180.0000771  43.9320000  2
   5285   5337   5288   5289     4  180.0000771  43.9320000  2
   5351   5387   5355   5356     4  180.0000771  43.9320000  2
   5359   5411   5362   5363     4  180.0000771  43.9320000  2
   5425   5461   5429   5430     4  180.0000771  43.9320000  2
   5433   5485   5436   5437     4  180.0000771  43.9320000  2
   5499   5535   5503   5504     4  180.0000771  43.9320000  2
   5507   5559   5510   5511     4  180.0000771  43.9320000  2
   5573   5609   5577   5578     4  180.0000771  43.9320000  2
   5581   5633   5584   5585     4  180.0000771  43.9320000  2
   5647   5683   5651   5652     4  180.0000771  43.9320000  2
   5655   5707   5658   5659     4  180.0000771  43.9320000  2
   5721   5757   5725   5726     4  180.0000771  43.9320000  2
   5729   5781   5732   5733     4  180.0000771  43.9320000  2
   5795   5831   5799   5800     4  180.0000771  43.9320000  2
   5803   5855   5806   5807     4  180.0000771  43.9320000  2
   5869   5905   5873   5874     4  180.0000771  43.9320000  2
   5877   5929   5880   5881     4  180.0000771  43.9320000  2
   5943   5979   5947   5948     4  180.0000771  43.9320000  2
   5951   6003   5954   5955     4  180.0000771  43.9320000  2
   6017   6053   6021   6022     4  180.0000771  43.9320000  2
   6025   6077   6028   6029     4  180.0000771  43.9320000  2
   6091   6127   6095   6096     4  180.0000771  43.9320000  2
   6099   6151   6102   6103     4  180.0000771  43.9320000  2
   6165   6201   6169   6170     4  180.0000771  43.9320000  2
   6173   6225   6176   6177     4  180.0000771  43.9320000  2
   6239   6275   6243   6244     4  180.0000771  43.9320000  2
   6247   6299   6250   6251     4  180.0000771  43.9320000  2
   6313   6349   6317   6318     4  180.0000771  43.9320000  2
   6321   6373   6324   6325     4  180.0000771  43.9320000  2
   6387   6423   6391   6392     4  180.0000771  43.9320000  2
   6395   6447   6398   6399     4  180.0000771  43.9320000  2
   6461   6497   6465   6466     4  180.0000771  43.9320000  2
   6469   6521   6472   6473     4  180.0000771  43.9320000  2
   6535   6571   6539   6540     4  180.0000771  43.9320000  2
   6543   6595   6546   6547     4  180.0000771  43.9320000  2
   6609   6645   6613   6614     4  180.0000771  43.9320000  2
   6617   6669   6620   6621     4  180.0000771  43.9320000  2
   6683   6719   6687   6688     4  180.0000771  43.9320000  2
   6691   6743   6694   6695     4  180.0000771  43.9320000  2
   6757   6793   6761   6762     4  180.0000771  43.9320000  2
   6765   6817   6768   6769     4  180.0000771  43.9320000  2
   6831   6867   6835   6836     4  180.0000771  43.9320000  2
   6839   6891   6842   6843     4  180.0000771  43.9320000  2
   6905   6941   6909   6910     4  180.0000771  43.9320000  2
   6913   6965   6916   6917     4  180.0000771  43.9320000  2
   6979   7015   6983   6984     4  180.0000771  43.9320000  2
   6987   7039   6990   6991     4  180.0000771  43.9320000  2
   7053   7089   7057   7058     4  180.0000771  43.9320000  2
   7061   7113   7064   7065     4  180.0000771  43.9320000  2
   7127   7163   7131   7132     4  180.0000771  43.9320000  2
   7135   7187   7138   7139     4  180.0000771  43.9320000  2
   7201   7237   7205   7206     4  180.0000771  43.9320000  2
   7209   7261   7212   7213     4  180.0000771  43.9320000  2
   7275   7311   7279   7280     4  180.0000771  43.9320000  2
   7283   7335   7286   7287     4  180.0000771  43.9320000  2
   7349   7385   7353   7354     4  180.0000771  43.9320000  2
   7357   7409   7360   7361     4  180.0000771  43.9320000  2
   7423   7459   7427   7428     4  180.0000771  43.9320000  2
   7431   7483   7434   7435     4  180.0000771  43.9320000  2
   7497   7533   7501   7502     4  180.0000771  43.9320000  2
   7505   7557   7508   7509     4  180.0000771  43.9320000  2
   7571   7607   7575   7576     4  180.0000771  43.9320000  2
   7579   7631   7582   7583     4  180.0000771  43.9320000  2
   7645   7681   7649   7650     4  180.0000771  43.9320000  2
   7653   7705   7656   7657     4  180.0000771  43.9320000  2
   7719   7755   7723   7724     4  180.0000771  43.9320000  2
   7727   7779   7730   7731     4  180.0000771  43.9320000  2
   7793   7829   7797   7798     4  180.0000771  43.9320000  2
   7801   7853   7804   7805     4  180.0000771  43.9320000  2
   7867   7903   7871   7872     4  180.0000771  43.9320000  2
   7875   7927   7878   7879     4  180.0000771  43.9320000  2
   7941   7977   7945   7946     4  180.0000771  43.9320000  2
   7949   8001   7952   7953     4  180.0000771  43.9320000  2
   8015   8051   8019   8020     4  180.0000771  43.9320000  2
   8023   8075   8026   8027     4  180.0000771  43.9320000  2
   8089   8125   8093   8094     4  180.0000771  43.9320000  2
   8097   8149   8100   8101     4  180.0000771  43.9320000  2
   8163   8199   8167   8168     4  180.0000771  43.9320000  2
   8171   8223   8174   8175     4  180.0000771  43.9320000  2
   8237   8273   8241   8242     4  180.0000771  43.9320000  2
   8245   8297   8248   8249     4  180.0000771  43.9320000  2
   8311   8347   8315   8316     4  180.0000771  43.9320000  2
   8319   8371   8322   8323     4  180.0000771  43.9320000  2
   8385   8421   8389   8390     4  180.0000771  43.9320000  2
   8393   8445   8396   8397     4  180.0000771  43.9320000  2
   8459   8495   8463   8464     4  180.0000771  43.9320000  2
   8467   8519   8470   8471     4  180.0000771  43.9320000  2
   8533   8569   8537   8538     4  180.0000771  43.9320000  2
   8541   8593   8544   8545     4  180.0000771  43.9320000  2
   8607   8643   8611   8612     4  180.0000771  43.9320000  2
   8615   8667   8618   8619     4  180.0000771  43.9320000  2
   8681   8717   8685   8686     4  180.0000771  43.9320000  2
   8689   8741   8692   8693     4  180.0000771  43.9320000  2
   8755   8791   8759   8760     4  180.0000771  43.9320000  2
   8763   8815   8766   8767     4  180.0000771  43.9320000  2
   8829   8865   8833   8834     4  180.0000771  43.9320000  2
   8837   8889   8840   8841     4  180.0000771  43.9320000  2
   8903   8939   8907   8908     4  180.0000771  43.9320000  2
   8911   8963   8914   8915     4  180.0000771  43.9320000  2
   8977   9013   8981   8982     4  180.0000771  43.9320000  2
   8985   9037   8988   8989     4  180.0000771  43.9320000  2
   9051   9087   9055   9056     4  180.0000771  43.9320000  2
   9059   9111   9062   9063     4  180.0000771  43.9320000  2
   9125   9161   9129   9130     4  180.0000771  43.9320000  2
   9133   9185   9136   9137     4  180.0000771  43.9320000  2
   9199   9235   9203   9204     4  180.0000771  43.9320000  2
   9207   9259   9210   9211     4  180.0000771  43.9320000  2
   9273   9309   9277   9278     4  180.0000771  43.9320000  2
   9281   9333   9284   9285     4  180.0000771  43.9320000  2
   9347   9383   9351   9352     4  180.0000771  43.9320000  2
   9355   9407   9358   9359     4  180.0000771  43.9320000  2
   9421   9457   9425   9426     4  180.0000771  43.9320000  2
   9429   9481   9432   9433     4  180.0000771  43.9320000  2
   9495   9531   9499   9500     4  180.0000771  43.9320000  2
   9503   9555   9506   9507     4  180.0000771  43.9320000  2
   9569   9605   9573   9574     4  180.0000771  43.9320000  2
   9577   9629   9580   9581     4  180.0000771  43.9320000  2
   9643   9679   9647   9648     4  180.0000771  43.9320000  2
   9651   9703   9654   9655     4  180.0000771  43.9320000  2
   9717   9753   9721   9722     4  180.0000771  43.9320000  2
   9725   9777   9728   9729     4  180.0000771  43.9320000  2
   9791   9827   9795   9796     4  180.0000771  43.9320000  2
   9799   9851   9802   9803     4  180.0000771  43.9320000  2
   9865   9901   9869   9870     4  180.0000771  43.9320000  2
   9873   9925   9876   9877     4  180.0000771  43.9320000  2
   9939   9975   9943   9944     4  180.0000771  43.9320000  2
   9947   9999   9950   9951     4  180.0000771  43.9320000  2
  10013  10049  10017  10018     4  180.0000771  43.9320000  2
  10021  10073  10024  10025     4  180.0000771  43.9320000  2
  10087  10123  10091  10092     4  180.0000771  43.9320000  2
  10095  10147  10098  10099     4  180.0000771  43.9320000  2
  10161  10197  10165  10166     4  180.0000771  43.9320000  2
  10169  10221  10172  10173     4  180.0000771  43.9320000  2
  10235  10271  10239  10240     4  180.0000771  43.9320000  2
  10243  10295  10246  10247     4  180.0000771  43.9320000  2
  10309  10345  10313  10314     4  180.0000771  43.9320000  2
  10317  10369  10320  10321     4  180.0000771  43.9320000  2
  10383  10419  10387  10388     4  180.0000771  43.9320000  2
  10391  10443  10394  10395     4  180.0000771  43.9320000  2
  10457  10493  10461  10462     4  180.0000771  43.9320000  2
  10465  10517  10468  10469     4  180.0000771  43.9320000  2
  10531  10567  10535  10536     4  180.0000771  43.9320000  2
  10539  10591  10542  10543     4  180.0000771  43.9320000  2
  10605  10641  10609  10610     4  180.0000771  43.9320000  2
  10613  10665  10616  10617     4  180.0000771  43.9320000  2
  10679  10715  10683  10684     4  180.0000771  43.9320000  2
  10687  10739  10690  10691     4  180.0000771  43.9320000  2
  10753  10789  10757  10758     4  180.0000771  43.9320000  2
  10761  10813  10764  10765     4  180.0000771  43.9320000  2
  10827  10863  10831  10832     4  180.0000771  43.9320000  2
  10835  10887  10838  10839     4  180.0000771  43.9320000  2
  10901  10937  10905  10906     4  180.0000771  43.9320000  2
  10909  10961  10912  10913     4  180.0000771  43.9320000  2
  10975  11011  10979  10980     4  180.0000771  43.9320000  2
  10983  11035  10986  10987     4  180.0000771  43.9320000  2
  11049  11085  11053  11054     4  180.0000771  43.9320000  2
  11057  11109  11060  11061     4  180.0000771  43.9320000  2
  11123  11159  11127  11128     4  180.0000771  43.9320000  2
  11131  11183  11134  11135     4  180.0000771  43.9320000  2
  11197  11233  11201  11202     4  180.0000771  43.9320000  2
  11205  11257  11208  11209     4  180.0000771  43.9320000  2
  11271  11307  11275  11276     4  180.0000771  43.9320000  2
  11279  11331  11282  11283     4  180.0000771  43.9320000  2
  11345  11381  11349  11350     4  180.0000771  43.9320000  2
  11353  11405  11356  11357     4  180.0000771  43.9320000  2
  11419  11455  11423  11424     4  180.0000771  43.9320000  2
  11427  11479  11430  11431     4  180.0000771  43.9320000  2
  11493  11529  11497  11498     4  180.0000771  43.9320000  2
  11501  11553  11504  11505     4  180.0000771  43.9320000  2
  11567  11603  11571  11572     4  180.0000771  43.9320000  2
  11575  11627  11578  11579     4  180.0000771  43.9320000  2
  11641  11677  11645  11646     4  180.0000771  43.9320000  2
  11649  11701  11652  11653     4  180.0000771  43.9320000  2
  11715  11751  11719  11720     4  180.0000771  43.9320000  2
  11723  11775  11726  11727     4  180.0000771  43.9320000  2
  11789  11825  11793  11794     4  180.0000771  43.9320000  2
  11797  11849  11800  11801     4  180.0000771  43.9320000  2
  11863  11899  11867  11868     4  180.0000771  43.9320000  2
  11871  11923  11874  11875     4  180.0000771  43.9320000  2
  11937  11973  11941  11942     4  180.0000771  43.9320000  2
  11945  11997  11948  11949     4  180.0000771  43.9320000  2
  12011  12047  12015  12016     4  180.0000771  43.9320000  2
  12019  12071  12022  12023     4  180.0000771  43.9320000  2
  12085  12121  12089  12090     4  180.0000771  43.9320000  2
  12093  12145  12096  12097     4  180.0000771  43.9320000  2
  12159  12195  12163  12164     4  180.0000771  43.9320000  2
  12167  12219  12170  12171     4  180.0000771  43.9320000  2
  12233  12269  12237  12238     4  180.0000771  43.9320000  2
  12241  12293  12244  12245     4  180.0000771  43.9320000  2
  12307  12343  12311  12312     4  180.0000771  43.9320000  2
  12315  12367  12318  12319     4  180.0000771  43.9320000  2
  12381  12417  12385  12386     4  180.0000771  43.9320000  2
  12389  12441  12392  12393     4  180.0000771  43.9320000  2
  12455  12491  12459  12460     4  180.0000771  43.9320000  2
  12463  12515  12466  12467     4  180.0000771  43.9320000  2
  12529  12565  12533  12534     4  180.0000771  43.9320000  2
  12537  12589  12540  12541     4  180.0000771  43.9320000  2
  12603  12639  12607  12608     4  180.0000771  43.9320000  2
  12611  12663  12614  12615     4  180.0000771  43.9320000  2
  12677  12713  12681  12682     4  180.0000771  43.9320000  2
  12685  12737  12688  12689     4  180.0000771  43.9320000  2
      1      2      3     23     1  0.0000000  0.6508444  3
      1      2      3     24     1  0.0000000  0.6508444  3
      1      7     13     37     1  0.0000000  0.6508444  3
      1      7     13     38     1  0.0000000  0.6508444  3
      1      8     15     39     1  0.0000000  0.6508444  3
      1      8     15     40     1  0.0000000  0.6508444  3
      2      1      7     29     1  0.0000000  0.6508444  3
      2      1      7     30     1  0.0000000  0.6508444  3
      2      1      8     31     1  0.0000000  0.6508444  3
      2      1      8     32     1  0.0000000  0.6508444  3
      2      3      4     42     1  0.0000000  0.6508444  3
     41      1      2      3     1  0.0000000  0.6508444  3
      3      4      5     25     1  0.0000000  0.6508444  3
      3      4      5     26     1  0.0000000  0.6508444  3
      3      4      6     27     1  0.0000000  0.6508444  3
      3      4      6     28     1  0.0000000  0.6508444  3
      4      3      2     21     1  0.0000000  0.6508444  3
      4      3      2     22     1  0.0000000  0.6508444  3
      4      5     11     35     1  0.0000000  0.6508444  3
      4      5     11     36     1  0.0000000  0.6508444  3
      4      6      9     33     1  0.0000000  0.6508444  3
      4      6      9     34     1  0.0000000  0.6508444  3
      5      4      3     23     1  0.0000000  0.6508444  3
      5      4      3     24     1  0.0000000  0.6508444  3
      5      4      6     27     1  0.0000000  0.6508444  3
      5      4      6     28     1  0.0000000  0.6508444  3
      6      4      3     23     1  0.0000000  0.6508444  3
      6      4      3     24     1  0.0000000  0.6508444  3
      6      4      5     25     1  0.0000000  0.6508444  3
      6      4      5     26     1  0.0000000  0.6508444  3
      7      1      2     21     1  0.0000000  0.6508444  3
      7      1      2     22     1  0.0000000  0.6508444  3
      7      1      8     31     1  0.0000000  0.6508444  3
      7      1      8     32     1  0.0000000  0.6508444  3
      8      1      2     21     1  0.0000000  0.6508444  3
      8      1      2     22     1  0.0000000  0.6508444  3
      8      1      7     29     1  0.0000000  0.6508444  3
      8      1      7     30     1  0.0000000  0.6508444  3
      9      6      4     42     1  0.0000000  0.6508444  3
      9     10     52     67     1  180.0000771  10.4600000  2
     10      9      6     27     1  0.0000000  0.6508444  3
     10      9      6     28     1  0.0000000  0.6508444  3
     10     52     51     65     1  0.0000000  0.0000000  2
     10     52     51     66     1  0.0000000  0.0000000  2
     11      5      4     42     1  0.0000000  0.6508444  3
     11     12     78     93     1  180.0000771  10.4600000  2
     12     11      5     25     1  0.0000000  0.6508444  3
     12     11      5     26     1  0.0000000  0.6508444  3
     12     78     77     91     1  0.0000000  0.0000000  2
     12     78     77     92     1  0.0000000  0.0000000  2
     41      1      7     13     1  0.0000000  0.6508444  3
     13     14    104    119     1  180.0000771  10.4600000  2
     14     13      7     29     1  0.0000000  0.6508444  3
     14     13      7     30     1  0.0000000  0.6508444  3
     14    104    103    117     1  0.0000000  0.0000000  2
     14    104    103    118     1  0.0000000  0.0000000  2
     41      1      8     15     1  0.0000000  0.6508444  3
     15     16    130    145     1  180.0000771  10.4600000  2
     16     15      8     31     1  0.0000000  0.6508444  3
     16     15      8     32     1  0.0000000  0.6508444  3
     16    130    129    143     1  0.0000000  0.0000000  2
     16    130    129    144     1  0.0000000  0.0000000  2
     17     12     11     35     1  0.0000000  3.3472000  1
     17     12     11     35     1  0.0000000  0.0000000  2
     17     12     11     35     1  180.0000771  0.3347200  3
     17     12     11     36     1  0.0000000  3.3472000  1
     17     12     11     36     1  0.0000000  0.0000000  2
     17     12     11     36     1  180.0000771  0.3347200  3
     17     12     78     93     1  0.0000000  8.3680000  1
     17     12     78     93     1  180.0000771  10.4600000  2
     18     10      9     33     1  0.0000000  3.3472000  1
     18     10      9     33     1  0.0000000  0.0000000  2
     18     10      9     33     1  180.0000771  0.3347200  3
     18     10      9     34     1  0.0000000  3.3472000  1
     18     10      9     34     1  0.0000000  0.0000000  2
     18     10      9     34     1  180.0000771  0.3347200  3
     18     10     52     67     1  0.0000000  8.3680000  1
     18     10     52     67     1  180.0000771  10.4600000  2
     19     16     15     39     1  0.0000000  3.3472000  1
     19     16     15     39     1  0.0000000  0.0000000  2
     19     16     15     39     1  180.0000771  0.3347200  3
     19     16     15     40     1  0.0000000  3.3472000  1
     19     16     15     40     1  0.0000000  0.0000000  2
     19     16     15     40     1  180.0000771  0.3347200  3
     19     16    130    145     1  0.0000000  8.3680000  1
     19     16    130    145     1  180.0000771  10.4600000  2
     20     14     13     37     1  0.0000000  3.3472000  1
     20     14     13     37     1  0.0000000  0.0000000  2
     20     14     13     37     1  180.0000771  0.3347200  3
     20     14     13     38     1  0.0000000  3.3472000  1
     20     14     13     38     1  0.0000000  0.0000000  2
     20     14     13     38     1  180.0000771  0.3347200  3
     20     14    104    119     1  0.0000000  8.3680000  1
     20     14    104    119     1  180.0000771  10.4600000  2
     41      1      2     21     1  0.0000000  0.6508444  3
     21      2      3     23     1  0.0000000  0.6508444  3
     21      2      3     24     1  0.0000000  0.6508444  3
     41      1      2     22     1  0.0000000  0.6508444  3
     22      2      3     23     1  0.0000000  0.6508444  3
     22      2      3     24     1  0.0000000  0.6508444  3
     23      3      4     42     1  0.0000000  0.6508444  3
     24      3      4     42     1  0.0000000  0.6508444  3
     25      5      4     42     1  0.0000000  0.6508444  3
     25      5     11     35     1  0.0000000  0.6508444  3
     25      5     11     36     1  0.0000000  0.6508444  3
     26      5      4     42     1  0.0000000  0.6508444  3
     26      5     11     35     1  0.0000000  0.6508444  3
     26      5     11     36     1  0.0000000  0.6508444  3
     27      6      4     42     1  0.0000000  0.6508444  3
     27      6      9     33     1  0.0000000  0.6508444  3
     27      6      9     34     1  0.0000000  0.6508444  3
     28      6      4     42     1  0.0000000  0.6508444  3
     28      6      9     33     1  0.0000000  0.6508444  3
     28      6      9     34     1  0.0000000  0.6508444  3
     41      1      7     29     1  0.0000000  0.6508444  3
     29      7     13     37     1  0.0000000  0.6508444  3
     29      7     13     38     1  0.0000000  0.6508444  3
     41      1      7     30     1  0.0000000  0.6508444  3
     30      7     13     37     1  0.0000000  0.6508444  3
     30      7     13     38     1  0.0000000  0.6508444  3
     41      1      8     31     1  0.0000000  0.6508444  3
     31      8     15     39     1  0.0000000  0.6508444  3
     31      8     15     40     1  0.0000000  0.6508444  3
     41      1      8     32     1  0.0000000  0.6508444  3
     32      8     15     39     1  0.0000000  0.6508444  3
     32      8     15     40     1  0.0000000  0.6508444  3
     33      9     10     52     1  180.0000771  0.0000000  2
     34      9     10     52     1  180.0000771  0.0000000  2
     35     11     12     78     1  180.0000771  0.0000000  2
     36     11     12     78     1  180.0000771  0.0000000  2
     37     13     14    104     1  180.0000771  0.0000000  2
     38     13     14    104     1  180.0000771  0.0000000  2
     39     15     16    130     1  180.0000771  0.0000000  2
     40     15     16    130     1  180.0000771  0.0000000  2
     43     44     46     59     1  0.0000000  0.6508444  3
     43     44     46     60     1  0.0000000  0.6508444  3
     43     45     48     61     1  0.0000000  0.6508444  3
     43     45     48     62     1  0.0000000  0.6508444  3
     43     50     51     65     1  0.0000000  0.6508444  3
     43     50     51     66     1  0.0000000  0.6508444  3
     44     43     45     57     1  0.0000000  0.6508444  3
     44     43     45     58     1  0.0000000  0.6508444  3
     44     43     50     63     1  0.0000000  0.6508444  3
     44     43     50     64     1  0.0000000  0.6508444  3
     45     43     44     55     1  0.0000000  0.6508444  3
     45     43     44     56     1  0.0000000  0.6508444  3
     45     43     50     63     1  0.0000000  0.6508444  3
     45     43     50     64     1  0.0000000  0.6508444  3
     46     44     43     68     1  0.0000000  0.6508444  3
     46     47    156    171     1  180.0000771  10.4600000  2
     47     46     44     55     1  0.0000000  0.6508444  3
     47     46     44     56     1  0.0000000  0.6508444  3
     47    156    155    169     1  0.0000000  0.0000000  2
     47    156    155    170     1  0.0000000  0.0000000  2
     48     45     43     68     1  0.0000000  0.6508444  3
     48     49    182    197     1  180.0000771  10.4600000  2
     49     48     45     57     1  0.0000000  0.6508444  3
     49     48     45     58     1  0.0000000  0.6508444  3
     49    182    181    195     1  0.0000000  0.0000000  2
     49    182    181    196     1  0.0000000  0.0000000  2
     50     43     44     55     1  0.0000000  0.6508444  3
     50     43     44     56     1  0.0000000  0.6508444  3
     50     43     45     57     1  0.0000000  0.6508444  3
     50     43     45     58     1  0.0000000  0.6508444  3
     50     51     52     67     1  0.0000000  0.0000000  2
     51     50     43     68     1  0.0000000  0.6508444  3
     52     51     50     63     1  0.0000000  0.6508444  3
     52     51     50     64     1  0.0000000  0.6508444  3
     53     47     46     59     1  0.0000000  3.3472000  1
     53     47     46     59     1  0.0000000  0.0000000  2
     53     47     46     59     1  180.0000771  0.3347200  3
     53     47     46     60     1  0.0000000  3.3472000  1
     53     47     46     60     1  0.0000000  0.0000000  2
     53     47     46     60     1  180.0000771  0.3347200  3
     53     47    156    171     1  0.0000000  8.3680000  1
     53     47    156    171     1  180.0000771  10.4600000  2
     54     49     48     61     1  0.0000000  3.3472000  1
     54     49     48     61     1  0.0000000  0.0000000  2
     54     49     48     61     1  180.0000771  0.3347200  3
     54     49     48     62     1  0.0000000  3.3472000  1
     54     49     48     62     1  0.0000000  0.0000000  2
     54     49     48     62     1  180.0000771  0.3347200  3
     54     49    182    197     1  0.0000000  8.3680000  1
     54     49    182    197     1  180.0000771  10.4600000  2
     55     44     43     68     1  0.0000000  0.6508444  3
     55     44     46     59     1  0.0000000  0.6508444  3
     55     44     46     60     1  0.0000000  0.6508444  3
     56     44     43     68     1  0.0000000  0.6508444  3
     56     44     46     59     1  0.0000000  0.6508444  3
     56     44     46     60     1  0.0000000  0.6508444  3
     57     45     43     68     1  0.0000000  0.6508444  3
     57     45     48     61     1  0.0000000  0.6508444  3
     57     45     48     62     1  0.0000000  0.6508444  3
     58     45     43     68     1  0.0000000  0.6508444  3
     58     45     48     61     1  0.0000000  0.6508444  3
     58     45     48     62     1  0.0000000  0.6508444  3
     59     46     47    156     1  180.0000771  0.0000000  2
     60     46     47    156     1  180.0000771  0.0000000  2
     61     48     49    182     1  180.0000771  0.0000000  2
     62     48     49    182     1  180.0000771  0.0000000  2
     63     50     43     68     1  0.0000000  0.6508444  3
     63     50     51     65     1  0.0000000  0.6508444  3
     63     50     51     66     1  0.0000000  0.6508444  3
     64     50     43     68     1  0.0000000  0.6508444  3
     64     50     51     65     1  0.0000000  0.6508444  3
     64     50     51     66     1  0.0000000  0.6508444  3
     65     51     52     67     1  0.0000000  0.0000000  2
     66     51     52     67     1  0.0000000  0.0000000  2
     69     70     72     85     1  0.0000000  0.6508444  3
     69     70     72     86     1  0.0000000  0.6508444  3
     69     71     74     87     1  0.0000000  0.6508444  3
     69     71     74     88     1  0.0000000  0.6508444  3
     69     76     77     91     1  0.0000000  0.6508444  3
     69     76     77     92     1  0.0000000  0.6508444  3
     70     69     71     83     1  0.0000000  0.6508444  3
     70     69     71     84     1  0.0000000  0.6508444  3
     70     69     76     89     1  0.0000000  0.6508444  3
     70     69     76     90     1  0.0000000  0.6508444  3
     71     69     70     81     1  0.0000000  0.6508444  3
     71     69     70     82     1  0.0000000  0.6508444  3
     71     69     76     89     1  0.0000000  0.6508444  3
     71     69     76     90     1  0.0000000  0.6508444  3
     72     70     69     94     1  0.0000000  0.6508444  3
     72     73    208    223     1  180.0000771  10.4600000  2
     73     72     70     81     1  0.0000000  0.6508444  3
     73     72     70     82     1  0.0000000  0.6508444  3
     73    208    207    221     1  0.0000000  0.0000000  2
     73    208    207    222     1  0.0000000  0.0000000  2
     74     71     69     94     1  0.0000000  0.6508444  3
     74     75    234    249     1  180.0000771  10.4600000  2
     75     74     71     83     1  0.0000000  0.6508444  3
     75     74     71     84     1  0.0000000  0.6508444  3
     75    234    233    247     1  0.0000000  0.0000000  2
     75    234    233    248     1  0.0000000  0.0000000  2
     76     69     70     81     1  0.0000000  0.6508444  3
     76     69     70     82     1  0.0000000  0.6508444  3
     76     69     71     83     1  0.0000000  0.6508444  3
     76     69     71     84     1  0.0000000  0.6508444  3
     76     77     78     93     1  0.0000000  0.0000000  2
     77     76     69     94     1  0.0000000  0.6508444  3
     78     77     76     89     1  0.0000000  0.6508444  3
     78     77     76     90     1  0.0000000  0.6508444  3
     79     73     72     85     1  0.0000000  3.3472000  1
     79     73     72     85     1  0.0000000  0.0000000  2
     79     73     72     85     1  180.0000771  0.3347200  3
     79     73     72     86     1  0.0000000  3.3472000  1
     79     73     72     86     1  0.0000000  0.0000000  2
     79     73     72     86     1  180.0000771  0.3347200  3
     79     73    208    223     1  0.0000000  8.3680000  1
     79     73    208    223     1  180.0000771  10.4600000  2
     80     75     74     87     1  0.0000000  3.3472000  1
     80     75     74     87     1  0.0000000  0.0000000  2
     80     75     74     87     1  180.0000771  0.3347200  3
     80     75     74     88     1  0.0000000  3.3472000  1
     80     75     74     88     1  0.0000000  0.0000000  2
     80     75     74     88     1  180.0000771  0.3347200  3
     80     75    234    249     1  0.0000000  8.3680000  1
     80     75    234    249     1  180.0000771  10.4600000  2
     81     70     69     94     1  0.0000000  0.6508444  3
     81     70     72     85     1  0.0000000  0.6508444  3
     81     70     72     86     1  0.0000000  0.6508444  3
     82     70     69     94     1  0.0000000  0.6508444  3
     82     70     72     85     1  0.0000000  0.6508444  3
     82     70     72     86     1  0.0000000  0.6508444  3
     83     71     69     94     1  0.0000000  0.6508444  3
     83     71     74     87     1  0.0000000  0.6508444  3
     83     71     74     88     1  0.0000000  0.6508444  3
     84     71     69     94     1  0.0000000  0.6508444  3
     84     71     74     87     1  0.0000000  0.6508444  3
     84     71     74     88     1  0.0000000  0.6508444  3
     85     72     73    208     1  180.0000771  0.0000000  2
     86     72     73    208     1  180.0000771  0.0000000  2
     87     74     75    234     1  180.0000771  0.0000000  2
     88     74     75    234     1  180.0000771  0.0000000  2
     89     76     69     94     1  0.0000000  0.6508444  3
     89     76     77     91     1  0.0000000  0.6508444  3
     89     76     77     92     1  0.0000000  0.6508444  3
     90     76     69     94     1  0.0000000  0.6508444  3
     90     76     77     91     1  0.0000000  0.6508444  3
     90     76     77     92     1  0.0000000  0.6508444  3
     91     77     78     93     1  0.0000000  0.0000000  2
     92     77     78     93     1  0.0000000  0.0000000  2
     95     96     98    111     1  0.0000000  0.6508444  3
     95     96     98    112     1  0.0000000  0.6508444  3
     95     97    100    113     1  0.0000000  0.6508444  3
     95     97    100    114     1  0.0000000  0.6508444  3
     95    102    103    117     1  0.0000000  0.6508444  3
     95    102    103    118     1  0.0000000  0.6508444  3
     96     95     97    109     1  0.0000000  0.6508444  3
     96     95     97    110     1  0.0000000  0.6508444  3
     96     95    102    115     1  0.0000000  0.6508444  3
     96     95    102    116     1  0.0000000  0.6508444  3
     97     95     96    107     1  0.0000000  0.6508444  3
     97     95     96    108     1  0.0000000  0.6508444  3
     97     95    102    115     1  0.0000000  0.6508444  3
     97     95    102    116     1  0.0000000  0.6508444  3
     98     96     95    120     1  0.0000000  0.6508444  3
     98     99    260    275     1  180.0000771  10.4600000  2
     99     98     96    107     1  0.0000000  0.6508444  3
     99     98     96    108     1  0.0000000  0.6508444  3
     99    260    259    273     1  0.0000000  0.0000000  2
     99    260    259    274     1  0.0000000  0.0000000  2
    100     97     95    120     1  0.0000000  0.6508444  3
    100    101    286    301     1  180.0000771  10.4600000  2
    101    100     97    109     1  0.0000000  0.6508444  3
    101    100     97    110     1  0.0000000  0.6508444  3
    101    286    285    299     1  0.0000000  0.0000000  2
    101    286    285    300     1  0.0000000  0.0000000  2
    102     95     96    107     1  0.0000000  0.6508444  3
    102     95     96    108     1  0.0000000  0.6508444  3
    102     95     97    109     1  0.0000000  0.6508444  3
    102     95     97    110     1  0.0000000  0.6508444  3
    102    103    104    119     1  0.0000000  0.0000000  2
    103    102     95    120     1  0.0000000  0.6508444  3
    104    103    102    115     1  0.0000000  0.6508444  3
    104    103    102    116     1  0.0000000  0.6508444  3
    105     99     98    111     1  0.0000000  3.3472000  1
    105     99     98    111     1  0.0000000  0.0000000  2
    105     99     98    111     1  180.0000771  0.3347200  3
    105     99     98    112     1  0.0000000  3.3472000  1
    105     99     98    112     1  0.0000000  0.0000000  2
    105     99     98    112     1  180.0000771  0.3347200  3
    105     99    260    275     1  0.0000000  8.3680000  1
    105     99    260    275     1  180.0000771  10.4600000  2
    106    101    100    113     1  0.0000000  3.3472000  1
    106    101    100    113     1  0.0000000  0.0000000  2
    106    101    100    113     1  180.0000771  0.3347200  3
    106    101    100    114     1  0.0000000  3.3472000  1
    106    101    100    114     1  0.0000000  0.0000000  2
    106    101    100    114     1  180.0000771  0.3347200  3
    106    101    286    301     1  0.0000000  8.3680000  1
    106    101    286    301     1  180.0000771  10.4600000  2
    107     96     95    120     1  0.0000000  0.6508444  3
    107     96     98    111     1  0.0000000  0.6508444  3
    107     96     98    112     1  0.0000000  0.6508444  3
    108     96     95    120     1  0.0000000  0.6508444  3
    108     96     98    111     1  0.0000000  0.6508444  3
    108     96     98    112     1  0.0000000  0.6508444  3
    109     97     95    120     1  0.0000000  0.6508444  3
    109     97    100    113     1  0.0000000  0.6508444  3
    109     97    100    114     1  0.0000000  0.6508444  3
    110     97     95    120     1  0.0000000  0.6508444  3
    110     97    100    113     1  0.0000000  0.6508444  3
    110     97    100    114     1  0.0000000  0.6508444  3
    111     98     99    260     1  180.0000771  0.0000000  2
    112     98     99    260     1  180.0000771  0.0000000  2
    113    100    101    286     1  180.0000771  0.0000000  2
    114    100    101    286     1  180.0000771  0.0000000  2
    115    102     95    120     1  0.0000000  0.6508444  3
    115    102    103    117     1  0.0000000  0.6508444  3
    115    102    103    118     1  0.0000000  0.6508444  3
    116    102     95    120     1  0.0000000  0.6508444  3
    116    102    103    117     1  0.0000000  0.6508444  3
    116    102    103    118     1  0.0000000  0.6508444  3
    117    103    104    119     1  0.0000000  0.0000000  2
    118    103    104    119     1  0.0000000  0.0000000  2
    121    122    124    137     1  0.0000000  0.6508444  3
    121    122    124    138     1  0.0000000  0.6508444  3
    121    123    126    139     1  0.0000000  0.6508444  3
    121    123    126    140     1  0.0000000  0.6508444  3
    121    128    129    143     1  0.0000000  0.6508444  3
    121    128    129    144     1  0.0000000  0.6508444  3
    122    121    123    135     1  0.0000000  0.6508444  3
    122    121    123    136     1  0.0000000  0.6508444  3
    122    121    128    141     1  0.0000000  0.6508444  3
    122    121    128    142     1  0.0000000  0.6508444  3
    123    121    122    133     1  0.0000000  0.6508444  3
    123    121    122    134     1  0.0000000  0.6508444  3
    123    121    128    141     1  0.0000000  0.6508444  3
    123    121    128    142     1  0.0000000  0.6508444  3
    124    122    121    146     1  0.0000000  0.6508444  3
    124    125    312    327     1  180.0000771  10.4600000  2
    125    124    122    133     1  0.0000000  0.6508444  3
    125    124    122    134     1  0.0000000  0.6508444  3
    125    312    311    325     1  0.0000000  0.0000000  2
    125    312    311    326     1  0.0000000  0.0000000  2
    126    123    121    146     1  0.0000000  0.6508444  3
    126    127    338    353     1  180.0000771  10.4600000  2
    127    126    123    135     1  0.0000000  0.6508444  3
    127    126    123    136     1  0.0000000  0.6508444  3
    127    338    337    351     1  0.0000000  0.0000000  2
    127    338    337    352     1  0.0000000  0.0000000  2
    128    121    122    133     1  0.0000000  0.6508444  3
    128    121    122    134     1  0.0000000  0.6508444  3
    128    121    123    135     1  0.0000000  0.6508444  3
    128    121    123    136     1  0.0000000  0.6508444  3
    128    129    130    145     1  0.0000000  0.0000000  2
    129    128    121    146     1  0.0000000  0.6508444  3
    130    129    128    141     1  0.0000000  0.6508444  3
    130    129    128    142     1  0.0000000  0.6508444  3
    131    125    124    137     1  0.0000000  3.3472000  1
    131    125    124    137     1  0.0000000  0.0000000  2
    131    125    124    137     1  180.0000771  0.3347200  3
    131    125    124    138     1  0.0000000  3.3472000  1
    131    125    124    138     1  0.0000000  0.0000000  2
    131    125    124    138     1  180.0000771  0.3347200  3
    131    125    312    327     1  0.0000000  8.3680000  1
    131    125    312    327     1  180.0000771  10.4600000  2
    132    127    126    139     1  0.0000000  3.3472000  1
    132    127    126    139     1  0.0000000  0.0000000  2
    132    127    126    139     1  180.0000771  0.3347200  3
    132    127    126    140     1  0.0000000  3.3472000  1
    132    127    126    140     1  0.0000000  0.0000000  2
    132    127    126    140     1  180.0000771  0.3347200  3
    132    127    338    353     1  0.0000000  8.3680000  1
    132    127    338    353     1  180.0000771  10.4600000  2
    133    122    121    146     1  0.0000000  0.6508444  3
    133    122    124    137     1  0.0000000  0.6508444  3
    133    122    124    138     1  0.0000000  0.6508444  3
    134    122    121    146     1  0.0000000  0.6508444  3
    134    122    124    137     1  0.0000000  0.6508444  3
    134    122    124    138     1  0.0000000  0.6508444  3
    135    123    121    146     1  0.0000000  0.6508444  3
    135    123    126    139     1  0.0000000  0.6508444  3
    135    123    126    140     1  0.0000000  0.6508444  3
    136    123    121    146     1  0.0000000  0.6508444  3
    136    123    126    139     1  0.0000000  0.6508444  3
    136    123    126    140     1  0.0000000  0.6508444  3
    137    124    125    312     1  180.0000771  0.0000000  2
    138    124    125    312     1  180.0000771  0.0000000  2
    139    126    127    338     1  180.0000771  0.0000000  2
    140    126    127    338     1  180.0000771  0.0000000  2
    141    128    121    146     1  0.0000000  0.6508444  3
    141    128    129    143     1  0.0000000  0.6508444  3
    141    128    129    144     1  0.0000000  0.6508444  3
    142    128    121    146     1  0.0000000  0.6508444  3
    142    128    129    143     1  0.0000000  0.6508444  3
    142    128    129    144     1  0.0000000  0.6508444  3
    143    129    130    145     1  0.0000000  0.0000000  2
    144    129    130    145     1  0.0000000  0.0000000  2
    147    148    150    163     1  0.0000000  0.6508444  3
    147    148    150    164     1  0.0000000  0.6508444  3
    147    149    152    165     1  0.0000000  0.6508444  3
    147    149    152    166     1  0.0000000  0.6508444  3
    147    154    155    169     1  0.0000000  0.6508444  3
    147    154    155    170     1  0.0000000  0.6508444  3
    148    147    149    161     1  0.0000000  0.6508444  3
    148    147    149    162     1  0.0000000  0.6508444  3
    148    147    154    167     1  0.0000000  0.6508444  3
    148    147    154    168     1  0.0000000  0.6508444  3
    149    147    148    159     1  0.0000000  0.6508444  3
    149    147    148    160     1  0.0000000  0.6508444  3
    149    147    154    167     1  0.0000000  0.6508444  3
    149    147    154    168     1  0.0000000  0.6508444  3
    150    148    147    172     1  0.0000000  0.6508444  3
    150    151    364    379     1  180.0000771  10.4600000  2
    151    150    148    159     1  0.0000000  0.6508444  3
    151    150    148    160     1  0.0000000  0.6508444  3
    151    364    363    377     1  0.0000000  0.0000000  2
    151    364    363    378     1  0.0000000  0.0000000  2
    152    149    147    172     1  0.0000000  0.6508444  3
    152    153    390    405     1  180.0000771  10.4600000  2
    153    152    149    161     1  0.0000000  0.6508444  3
    153    152    149    162     1  0.0000000  0.6508444  3
    153    390    389    403     1  0.0000000  0.0000000  2
    153    390    389    404     1  0.0000000  0.0000000  2
    154    147    148    159     1  0.0000000  0.6508444  3
    154    147    148    160     1  0.0000000  0.6508444  3
    154    147    149    161     1  0.0000000  0.6508444  3
    154    147    149    162     1  0.0000000  0.6508444  3
    154    155    156    171     1  0.0000000  0.0000000  2
    155    154    147    172     1  0.0000000  0.6508444  3
    156    155    154    167     1  0.0000000  0.6508444  3
    156    155    154    168     1  0.0000000  0.6508444  3
    157    151    150    163     1  0.0000000  3.3472000  1
    157    151    150    163     1  0.0000000  0.0000000  2
    157    151    150    163     1  180.0000771  0.3347200  3
    157    151    150    164     1  0.0000000  3.3472000  1
    157    151    150    164     1  0.0000000  0.0000000  2
    157    151    150    164     1  180.0000771  0.3347200  3
    157    151    364    379     1  0.0000000  8.3680000  1
    157    151    364    379     1  180.0000771  10.4600000  2
    158    153    152    165     1  0.0000000  3.3472000  1
    158    153    152    165     1  0.0000000  0.0000000  2
    158    153    152    165     1  180.0000771  0.3347200  3
    158    153    152    166     1  0.0000000  3.3472000  1
    158    153    152    166     1  0.0000000  0.0000000  2
    158    153    152    166     1  180.0000771  0.3347200  3
    158    153    390    405     1  0.0000000  8.3680000  1
    158    153    390    405     1  180.0000771  10.4600000  2
    159    148    147    172     1  0.0000000  0.6508444  3
    159    148    150    163     1  0.0000000  0.6508444  3
    159    148    150    164     1  0.0000000  0.6508444  3
    160    148    147    172     1  0.0000000  0.6508444  3
    160    148    150    163     1  0.0000000  0.6508444  3
    160    148    150    164     1  0.0000000  0.6508444  3
    161    149    147    172     1  0.0000000  0.6508444  3
    161    149    152    165     1  0.0000000  0.6508444  3
    161    149    152    166     1  0.0000000  0.6508444  3
    162    149    147    172     1  0.0000000  0.6508444  3
    162    149    152    165     1  0.0000000  0.6508444  3
    162    149    152    166     1  0.0000000  0.6508444  3
    163    150    151    364     1  180.0000771  0.0000000  2
    164    150    151    364     1  180.0000771  0.0000000  2
    165    152    153    390     1  180.0000771  0.0000000  2
    166    152    153    390     1  180.0000771  0.0000000  2
    167    154    147    172     1  0.0000000  0.6508444  3
    167    154    155    169     1  0.0000000  0.6508444  3
    167    154    155    170     1  0.0000000  0.6508444  3
    168    154    147    172     1  0.0000000  0.6508444  3
    168    154    155    169     1  0.0000000  0.6508444  3
    168    154    155    170     1  0.0000000  0.6508444  3
    169    155    156    171     1  0.0000000  0.0000000  2
    170    155    156    171     1  0.0000000  0.0000000  2
    173    174    176    189     1  0.0000000  0.6508444  3
    173    174    176    190     1  0.0000000  0.6508444  3
    173    175    178    191     1  0.0000000  0.6508444  3
    173    175    178    192     1  0.0000000  0.6508444  3
    173    180    181    195     1  0.0000000  0.6508444  3
    173    180    181    196     1  0.0000000  0.6508444  3
    174    173    175    187     1  0.0000000  0.6508444  3
    174    173    175    188     1  0.0000000  0.6508444  3
    174    173    180    193     1  0.0000000  0.6508444  3
    174    173    180    194     1  0.0000000  0.6508444  3
    175    173    174    185     1  0.0000000  0.6508444  3
    175    173    174    186     1  0.0000000  0.6508444  3
    175    173    180    193     1  0.0000000  0.6508444  3
    175    173    180    194     1  0.0000000  0.6508444  3
    176    174    173    198     1  0.0000000  0.6508444  3
    176    177    416    431     1  180.0000771  10.4600000  2
    177    176    174    185     1  0.0000000  0.6508444  3
    177    176    174    186     1  0.0000000  0.6508444  3
    177    416    415    429     1  0.0000000  0.0000000  2
    177    416    415    430     1  0.0000000  0.0000000  2
    178    175    173    198     1  0.0000000  0.6508444  3
    178    179    442    457     1  180.0000771  10.4600000  2
    179    178    175    187     1  0.0000000  0.6508444  3
    179    178    175    188     1  0.0000000  0.6508444  3
    179    442    441    455     1  0.0000000  0.0000000  2
    179    442    441    456     1  0.0000000  0.0000000  2
    180    173    174    185     1  0.0000000  0.6508444  3
    180    173    174    186     1  0.0000000  0.6508444  3
    180    173    175    187     1  0.0000000  0.6508444  3
    180    173    175    188     1  0.0000000  0.6508444  3
    180    181    182    197     1  0.0000000  0.0000000  2
    181    180    173    198     1  0.0000000  0.6508444  3
    182    181    180    193     1  0.0000000  0.6508444  3
    182    181    180    194     1  0.0000000  0.6508444  3
    183    177    176    189     1  0.0000000  3.3472000  1
    183    177    176    189     1  0.0000000  0.0000000  2
    183    177    176    189     1  180.0000771  0.3347200  3
    183    177    176    190     1  0.0000000  3.3472000  1
    183    177    176    190     1  0.0000000  0.0000000  2
    183    177    176    190     1  180.0000771  0.3347200  3
    183    177    416    431     1  0.0000000  8.3680000  1
    183    177    416    431     1  180.0000771  10.4600000  2
    184    179    178    191     1  0.0000000  3.3472000  1
    184    179    178    191     1  0.0000000  0.0000000  2
    184    179    178    191     1  180.0000771  0.3347200  3
    184    179    178    192     1  0.0000000  3.3472000  1
    184    179    178    192     1  0.0000000  0.0000000  2
    184    179    178    192     1  180.0000771  0.3347200  3
    184    179    442    457     1  0.0000000  8.3680000  1
    184    179    442    457     1  180.0000771  10.4600000  2
    185    174    173    198     1  0.0000000  0.6508444  3
    185    174    176    189     1  0.0000000  0.6508444  3
    185    174    176    190     1  0.0000000  0.6508444  3
    186    174    173    198     1  0.0000000  0.6508444  3
    186    174    176    189     1  0.0000000  0.6508444  3
    186    174    176    190     1  0.0000000  0.6508444  3
    187    175    173    198     1  0.0000000  0.6508444  3
    187    175    178    191     1  0.0000000  0.6508444  3
    187    175    178    192     1  0.0000000  0.6508444  3
    188    175    173    198     1  0.0000000  0.6508444  3
    188    175    178    191     1  0.0000000  0.6508444  3
    188    175    178    192     1  0.0000000  0.6508444  3
    189    176    177    416     1  180.0000771  0.0000000  2
    190    176    177    416     1  180.0000771  0.0000000  2
    191    178    179    442     1  180.0000771  0.0000000  2
    192    178    179    442     1  180.0000771  0.0000000  2
    193    180    173    198     1  0.0000000  0.6508444  3
    193    180    181    195     1  0.0000000  0.6508444  3
    193    180    181    196     1  0.0000000  0.6508444  3
    194    180    173    198     1  0.0000000  0.6508444  3
    194    180    181    195     1  0.0000000  0.6508444  3
    194    180    181    196     1  0.0000000  0.6508444  3
    195    181    182    197     1  0.0000000  0.0000000  2
    196    181    182    197     1  0.0000000  0.0000000  2
    199    200    202    215     1  0.0000000  0.6508444  3
    199    200    202    216     1  0.0000000  0.6508444  3
    199    201    204    217     1  0.0000000  0.6508444  3
    199    201    204    218     1  0.0000000  0.6508444  3
    199    206    207    221     1  0.0000000  0.6508444  3
    199    206    207    222     1  0.0000000  0.6508444  3
    200    199    201    213     1  0.0000000  0.6508444  3
    200    199    201    214     1  0.0000000  0.6508444  3
    200    199    206    219     1  0.0000000  0.6508444  3
    200    199    206    220     1  0.0000000  0.6508444  3
    201    199    200    211     1  0.0000000  0.6508444  3
    201    199    200    212     1  0.0000000  0.6508444  3
    201    199    206    219     1  0.0000000  0.6508444  3
    201    199    206    220     1  0.0000000  0.6508444  3
    202    200    199    224     1  0.0000000  0.6508444  3
    202    203    468    483     1  180.0000771  10.4600000  2
    203    202    200    211     1  0.0000000  0.6508444  3
    203    202    200    212     1  0.0000000  0.6508444  3
    203    468    467    481     1  0.0000000  0.0000000  2
    203    468    467    482     1  0.0000000  0.0000000  2
    204    201    199    224     1  0.0000000  0.6508444  3
    204    205    494    509     1  180.0000771  10.4600000  2
    205    204    201    213     1  0.0000000  0.6508444  3
    205    204    201    214     1  0.0000000  0.6508444  3
    205    494    493    507     1  0.0000000  0.0000000  2
    205    494    493    508     1  0.0000000  0.0000000  2
    206    199    200    211     1  0.0000000  0.6508444  3
    206    199    200    212     1  0.0000000  0.6508444  3
    206    199    201    213     1  0.0000000  0.6508444  3
    206    199    201    214     1  0.0000000  0.6508444  3
    206    207    208    223     1  0.0000000  0.0000000  2
    207    206    199    224     1  0.0000000  0.6508444  3
    208    207    206    219     1  0.0000000  0.6508444  3
    208    207    206    220     1  0.0000000  0.6508444  3
    209    203    202    215     1  0.0000000  3.3472000  1
    209    203    202    215     1  0.0000000  0.0000000  2
    209    203    202    215     1  180.0000771  0.3347200  3
    209    203    202    216     1  0.0000000  3.3472000  1
    209    203    202    216     1  0.0000000  0.0000000  2
    209    203    202    216     1  180.0000771  0.3347200  3
    209    203    468    483     1  0.0000000  8.3680000  1
    209    203    468    483     1  180.0000771  10.4600000  2
    210    205    204    217     1  0.0000000  3.3472000  1
    210    205    204    217     1  0.0000000  0.0000000  2
    210    205    204    217     1  180.0000771  0.3347200  3
    210    205    204    218     1  0.0000000  3.3472000  1
    210    205    204    218     1  0.0000000  0.0000000  2
    210    205    204    218     1  180.0000771  0.3347200  3
    210    205    494    509     1  0.0000000  8.3680000  1
    210    205    494    509     1  180.0000771  10.4600000  2
    211    200    199    224     1  0.0000000  0.6508444  3
    211    200    202    215     1  0.0000000  0.6508444  3
    211    200    202    216     1  0.0000000  0.6508444  3
    212    200    199    224     1  0.0000000  0.6508444  3
    212    200    202    215     1  0.0000000  0.6508444  3
    212    200    202    216     1  0.0000000  0.6508444  3
    213    201    199    224     1  0.0000000  0.6508444  3
    213    201    204    217     1  0.0000000  0.6508444  3
    213    201    204    218     1  0.0000000  0.6508444  3
    214    201    199    224     1  0.0000000  0.6508444  3
    214    201    204    217     1  0.0000000  0.6508444  3
    214    201    204    218     1  0.0000000  0.6508444  3
    215    202    203    468     1  180.0000771  0.0000000  2
    216    202    203    468     1  180.0000771  0.0000000  2
    217    204    205    494     1  180.0000771  0.0000000  2
    218    204    205    494     1  180.0000771  0.0000000  2
    219    206    199    224     1  0.0000000  0.6508444  3
    219    206    207    221     1  0.0000000  0.6508444  3
    219    206    207    222     1  0.0000000  0.6508444  3
    220    206    199    224     1  0.0000000  0.6508444  3
    220    206    207    221     1  0.0000000  0.6508444  3
    220    206    207    222     1  0.0000000  0.6508444  3
    221    207    208    223     1  0.0000000  0.0000000  2
    222    207    208    223     1  0.0000000  0.0000000  2
    225    226    228    241     1  0.0000000  0.6508444  3
    225    226    228    242     1  0.0000000  0.6508444  3
    225    227    230    243     1  0.0000000  0.6508444  3
    225    227    230    244     1  0.0000000  0.6508444  3
    225    232    233    247     1  0.0000000  0.6508444  3
    225    232    233    248     1  0.0000000  0.6508444  3
    226    225    227    239     1  0.0000000  0.6508444  3
    226    225    227    240     1  0.0000000  0.6508444  3
    226    225    232    245     1  0.0000000  0.6508444  3
    226    225    232    246     1  0.0000000  0.6508444  3
    227    225    226    237     1  0.0000000  0.6508444  3
    227    225    226    238     1  0.0000000  0.6508444  3
    227    225    232    245     1  0.0000000  0.6508444  3
    227    225    232    246     1  0.0000000  0.6508444  3
    228    226    225    250     1  0.0000000  0.6508444  3
    228    229    520    535     1  180.0000771  10.4600000  2
    229    228    226    237     1  0.0000000  0.6508444  3
    229    228    226    238     1  0.0000000  0.6508444  3
    229    520    519    533     1  0.0000000  0.0000000  2
    229    520    519    534     1  0.0000000  0.0000000  2
    230    227    225    250     1  0.0000000  0.6508444  3
    230    231    546    561     1  180.0000771  10.4600000  2
    231    230    227    239     1  0.0000000  0.6508444  3
    231    230    227    240     1  0.0000000  0.6508444  3
    231    546    545    559     1  0.0000000  0.0000000  2
    231    546    545    560     1  0.0000000  0.0000000  2
    232    225    226    237     1  0.0000000  0.6508444  3
    232    225    226    238     1  0.0000000  0.6508444  3
    232    225    227    239     1  0.0000000  0.6508444  3
    232    225    227    240     1  0.0000000  0.6508444  3
    232    233    234    249     1  0.0000000  0.0000000  2
    233    232    225    250     1  0.0000000  0.6508444  3
    234    233    232    245     1  0.0000000  0.6508444  3
    234    233    232    246     1  0.0000000  0.6508444  3
    235    229    228    241     1  0.0000000  3.3472000  1
    235    229    228    241     1  0.0000000  0.0000000  2
    235    229    228    241     1  180.0000771  0.3347200  3
    235    229    228    242     1  0.0000000  3.3472000  1
    235    229    228    242     1  0.0000000  0.0000000  2
    235    229    228    242     1  180.0000771  0.3347200  3
    235    229    520    535     1  0.0000000  8.3680000  1
    235    229    520    535     1  180.0000771  10.4600000  2
    236    231    230    243     1  0.0000000  3.3472000  1
    236    231    230    243     1  0.0000000  0.0000000  2
    236    231    230    243     1  180.0000771  0.3347200  3
    236    231    230    244     1  0.0000000  3.3472000  1
    236    231    230    244     1  0.0000000  0.0000000  2
    236    231    230    244     1  180.0000771  0.3347200  3
    236    231    546    561     1  0.0000000  8.3680000  1
    236    231    546    561     1  180.0000771  10.4600000  2
    237    226    225    250     1  0.0000000  0.6508444  3
    237    226    228    241     1  0.0000000  0.6508444  3
    237    226    228    242     1  0.0000000  0.6508444  3
    238    226    225    250     1  0.0000000  0.6508444  3
    238    226    228    241     1  0.0000000  0.6508444  3
    238    226    228    242     1  0.0000000  0.6508444  3
    239    227    225    250     1  0.0000000  0.6508444  3
    239    227    230    243     1  0.0000000  0.6508444  3
    239    227    230    244     1  0.0000000  0.6508444  3
    240    227    225    250     1  0.0000000  0.6508444  3
    240    227    230    243     1  0.0000000  0.6508444  3
    240    227    230    244     1  0.0000000  0.6508444  3
    241    228    229    520     1  180.0000771  0.0000000  2
    242    228    229    520     1  180.0000771  0.0000000  2
    243    230    231    546     1  180.0000771  0.0000000  2
    244    230    231    546     1  180.0000771  0.0000000  2
    245    232    225    250     1  0.0000000  0.6508444  3
    245    232    233    247     1  0.0000000  0.6508444  3
    245    232    233    248     1  0.0000000  0.6508444  3
    246    232    225    250     1  0.0000000  0.6508444  3
    246    232    233    247     1  0.0000000  0.6508444  3
    246    232    233    248     1  0.0000000  0.6508444  3
    247    233    234    249     1  0.0000000  0.0000000  2
    248    233    234    249     1  0.0000000  0.0000000  2
    251    252    254    267     1  0.0000000  0.6508444  3
    251    252    254    268     1  0.0000000  0.6508444  3
    251    253    256    269     1  0.0000000  0.6508444  3
    251    253    256    270     1  0.0000000  0.6508444  3
    251    258    259    273     1  0.0000000  0.6508444  3
    251    258    259    274     1  0.0000000  0.6508444  3
    252    251    253    265     1  0.0000000  0.6508444  3
    252    251    253    266     1  0.0000000  0.6508444  3
    252    251    258    271     1  0.0000000  0.6508444  3
    252    251    258    272     1  0.0000000  0.6508444  3
    253    251    252    263     1  0.0000000  0.6508444  3
    253    251    252    264     1  0.0000000  0.6508444  3
    253    251    258    271     1  0.0000000  0.6508444  3
    253    251    258    272     1  0.0000000  0.6508444  3
    254    252    251    276     1  0.0000000  0.6508444  3
    254    255    572    587     1  180.0000771  10.4600000  2
    255    254    252    263     1  0.0000000  0.6508444  3
    255    254    252    264     1  0.0000000  0.6508444  3
    255    572    571    585     1  0.0000000  0.0000000  2
    255    572    571    586     1  0.0000000  0.0000000  2
    256    253    251    276     1  0.0000000  0.6508444  3
    256    257    598    613     1  180.0000771  10.4600000  2
    257    256    253    265     1  0.0000000  0.6508444  3
    257    256    253    266     1  0.0000000  0.6508444  3
    257    598    597    611     1  0.0000000  0.0000000  2
    257    598    597    612     1  0.0000000  0.0000000  2
    258    251    252    263     1  0.0000000  0.6508444  3
    258    251    252    264     1  0.0000000  0.6508444  3
    258    251    253    265     1  0.0000000  0.6508444  3
    258    251    253    266     1  0.0000000  0.6508444  3
    258    259    260    275     1  0.0000000  0.0000000  2
    259    258    251    276     1  0.0000000  0.6508444  3
    260    259    258    271     1  0.0000000  0.6508444  3
    260    259    258    272     1  0.0000000  0.6508444  3
    261    255    254    267     1  0.0000000  3.3472000  1
    261    255    254    267     1  0.0000000  0.0000000  2
    261    255    254    267     1  180.0000771  0.3347200  3
    261    255    254    268     1  0.0000000  3.3472000  1
    261    255    254    268     1  0.0000000  0.0000000  2
    261    255    254    268     1  180.0000771  0.3347200  3
    261    255    572    587     1  0.0000000  8.3680000  1
    261    255    572    587     1  180.0000771  10.4600000  2
    262    257    256    269     1  0.0000000  3.3472000  1
    262    257    256    269     1  0.0000000  0.0000000  2
    262    257    256    269     1  180.0000771  0.3347200  3
    262    257    256    270     1  0.0000000  3.3472000  1
    262    257    256    270     1  0.0000000  0.0000000  2
    262    257    256    270     1  180.0000771  0.3347200  3
    262    257    598    613     1  0.0000000  8.3680000  1
    262    257    598    613     1  180.0000771  10.4600000  2
    263    252    251    276     1  0.0000000  0.6508444  3
    263    252    254    267     1  0.0000000  0.6508444  3
    263    252    254    268     1  0.0000000  0.6508444  3
    264    252    251    276     1  0.0000000  0.6508444  3
    264    252    254    267     1  0.0000000  0.6508444  3
    264    252    254    268     1  0.0000000  0.6508444  3
    265    253    251    276     1  0.0000000  0.6508444  3
    265    253    256    269     1  0.0000000  0.6508444  3
    265    253    256    270     1  0.0000000  0.6508444  3
    266    253    251    276     1  0.0000000  0.6508444  3
    266    253    256    269     1  0.0000000  0.6508444  3
    266    253    256    270     1  0.0000000  0.6508444  3
    267    254    255    572     1  180.0000771  0.0000000  2
    268    254    255    572     1  180.0000771  0.0000000  2
    269    256    257    598     1  180.0000771  0.0000000  2
    270    256    257    598     1  180.0000771  0.0000000  2
    271    258    251    276     1  0.0000000  0.6508444  3
    271    258    259    273     1  0.0000000  0.6508444  3
    271    258    259    274     1  0.0000000  0.6508444  3
    272    258    251    276     1  0.0000000  0.6508444  3
    272    258    259    273     1  0.0000000  0.6508444  3
    272    258    259    274     1  0.0000000  0.6508444  3
    273    259    260    275     1  0.0000000  0.0000000  2
    274    259    260    275     1  0.0000000  0.0000000  2
    277    278    280    293     1  0.0000000  0.6508444  3
    277    278    280    294     1  0.0000000  0.6508444  3
    277    279    282    295     1  0.0000000  0.6508444  3
    277    279    282    296     1  0.0000000  0.6508444  3
    277    284    285    299     1  0.0000000  0.6508444  3
    277    284    285    300     1  0.0000000  0.6508444  3
    278    277    279    291     1  0.0000000  0.6508444  3
    278    277    279    292     1  0.0000000  0.6508444  3
    278    277    284    297     1  0.0000000  0.6508444  3
    278    277    284    298     1  0.0000000  0.6508444  3
    279    277    278    289     1  0.0000000  0.6508444  3
    279    277    278    290     1  0.0000000  0.6508444  3
    279    277    284    297     1  0.0000000  0.6508444  3
    279    277    284    298     1  0.0000000  0.6508444  3
    280    278    277    302     1  0.0000000  0.6508444  3
    280    281    624    639     1  180.0000771  10.4600000  2
    281    280    278    289     1  0.0000000  0.6508444  3
    281    280    278    290     1  0.0000000  0.6508444  3
    281    624    623    637     1  0.0000000  0.0000000  2
    281    624    623    638     1  0.0000000  0.0000000  2
    282    279    277    302     1  0.0000000  0.6508444  3
    282    283    650    665     1  180.0000771  10.4600000  2
    283    282    279    291     1  0.0000000  0.6508444  3
    283    282    279    292     1  0.0000000  0.6508444  3
    283    650    649    663     1  0.0000000  0.0000000  2
    283    650    649    664     1  0.0000000  0.0000000  2
    284    277    278    289     1  0.0000000  0.6508444  3
    284    277    278    290     1  0.0000000  0.6508444  3
    284    277    279    291     1  0.0000000  0.6508444  3
    284    277    279    292     1  0.0000000  0.6508444  3
    284    285    286    301     1  0.0000000  0.0000000  2
    285    284    277    302     1  0.0000000  0.6508444  3
    286    285    284    297     1  0.0000000  0.6508444  3
    286    285    284    298     1  0.0000000  0.6508444  3
    287    281    280    293     1  0.0000000  3.3472000  1
    287    281    280    293     1  0.0000000  0.0000000  2
    287    281    280    293     1  180.0000771  0.3347200  3
    287    281    280    294     1  0.0000000  3.3472000  1
    287    281    280    294     1  0.0000000  0.0000000  2
    287    281    280    294     1  180.0000771  0.3347200  3
    287    281    624    639     1  0.0000000  8.3680000  1
    287    281    624    639     1  180.0000771  10.4600000  2
    288    283    282    295     1  0.0000000  3.3472000  1
    288    283    282    295     1  0.0000000  0.0000000  2
    288    283    282    295     1  180.0000771  0.3347200  3
    288    283    282    296     1  0.0000000  3.3472000  1
    288    283    282    296     1  0.0000000  0.0000000  2
    288    283    282    296     1  180.0000771  0.3347200  3
    288    283    650    665     1  0.0000000  8.3680000  1
    288    283    650    665     1  180.0000771  10.4600000  2
    289    278    277    302     1  0.0000000  0.6508444  3
    289    278    280    293     1  0.0000000  0.6508444  3
    289    278    280    294     1  0.0000000  0.6508444  3
    290    278    277    302     1  0.0000000  0.6508444  3
    290    278    280    293     1  0.0000000  0.6508444  3
    290    278    280    294     1  0.0000000  0.6508444  3
    291    279    277    302     1  0.0000000  0.6508444  3
    291    279    282    295     1  0.0000000  0.6508444  3
    291    279    282    296     1  0.0000000  0.6508444  3
    292    279    277    302     1  0.0000000  0.6508444  3
    292    279    282    295     1  0.0000000  0.6508444  3
    292    279    282    296     1  0.0000000  0.6508444  3
    293    280    281    624     1  180.0000771  0.0000000  2
    294    280    281    624     1  180.0000771  0.0000000  2
    295    282    283    650     1  180.0000771  0.0000000  2
    296    282    283    650     1  180.0000771  0.0000000  2
    297    284    277    302     1  0.0000000  0.6508444  3
    297    284    285    299     1  0.0000000  0.6508444  3
    297    284    285    300     1  0.0000000  0.6508444  3
    298    284    277    302     1  0.0000000  0.6508444  3
    298    284    285    299     1  0.0000000  0.6508444  3
    298    284    285    300     1  0.0000000  0.6508444  3
    299    285    286    301     1  0.0000000  0.0000000  2
    300    285    286    301     1  0.0000000  0.0000000  2
    303    304    306    319     1  0.0000000  0.6508444  3
    303    304    306    320     1  0.0000000  0.6508444  3
    303    305    308    321     1  0.0000000  0.6508444  3
    303    305    308    322     1  0.0000000  0.6508444  3
    303    310    311    325     1  0.0000000  0.6508444  3
    303    310    311    326     1  0.0000000  0.6508444  3
    304    303    305    317     1  0.0000000  0.6508444  3
    304    303    305    318     1  0.0000000  0.6508444  3
    304    303    310    323     1  0.0000000  0.6508444  3
    304    303    310    324     1  0.0000000  0.6508444  3
    305    303    304    315     1  0.0000000  0.6508444  3
    305    303    304    316     1  0.0000000  0.6508444  3
    305    303    310    323     1  0.0000000  0.6508444  3
    305    303    310    324     1  0.0000000  0.6508444  3
    306    304    303    328     1  0.0000000  0.6508444  3
    306    307    676    691     1  180.0000771  10.4600000  2
    307    306    304    315     1  0.0000000  0.6508444  3
    307    306    304    316     1  0.0000000  0.6508444  3
    307    676    675    689     1  0.0000000  0.0000000  2
    307    676    675    690     1  0.0000000  0.0000000  2
    308    305    303    328     1  0.0000000  0.6508444  3
    308    309    702    717     1  180.0000771  10.4600000  2
    309    308    305    317     1  0.0000000  0.6508444  3
    309    308    305    318     1  0.0000000  0.6508444  3
    309    702    701    715     1  0.0000000  0.0000000  2
    309    702    701    716     1  0.0000000  0.0000000  2
    310    303    304    315     1  0.0000000  0.6508444  3
    310    303    304    316     1  0.0000000  0.6508444  3
    310    303    305    317     1  0.0000000  0.6508444  3
    310    303    305    318     1  0.0000000  0.6508444  3
    310    311    312    327     1  0.0000000  0.0000000  2
    311    310    303    328     1  0.0000000  0.6508444  3
    312    311    310    323     1  0.0000000  0.6508444  3
    312    311    310    324     1  0.0000000  0.6508444  3
    313    307    306    319     1  0.0000000  3.3472000  1
    313    307    306    319     1  0.0000000  0.0000000  2
    313    307    306    319     1  180.0000771  0.3347200  3
    313    307    306    320     1  0.0000000  3.3472000  1
    313    307    306    320     1  0.0000000  0.0000000  2
    313    307    306    320     1  180.0000771  0.3347200  3
    313    307    676    691     1  0.0000000  8.3680000  1
    313    307    676    691     1  180.0000771  10.4600000  2
    314    309    308    321     1  0.0000000  3.3472000  1
    314    309    308    321     1  0.0000000  0.0000000  2
    314    309    308    321     1  180.0000771  0.3347200  3
    314    309    308    322     1  0.0000000  3.3472000  1
    314    309    308    322     1  0.0000000  0.0000000  2
    314    309    308    322     1  180.0000771  0.3347200  3
    314    309    702    717     1  0.0000000  8.3680000  1
    314    309    702    717     1  180.0000771  10.4600000  2
    315    304    303    328     1  0.0000000  0.6508444  3
    315    304    306    319     1  0.0000000  0.6508444  3
    315    304    306    320     1  0.0000000  0.6508444  3
    316    304    303    328     1  0.0000000  0.6508444  3
    316    304    306    319     1  0.0000000  0.6508444  3
    316    304    306    320     1  0.0000000  0.6508444  3
    317    305    303    328     1  0.0000000  0.6508444  3
    317    305    308    321     1  0.0000000  0.6508444  3
    317    305    308    322     1  0.0000000  0.6508444  3
    318    305    303    328     1  0.0000000  0.6508444  3
    318    305    308    321     1  0.0000000  0.6508444  3
    318    305    308    322     1  0.0000000  0.6508444  3
    319    306    307    676     1  180.0000771  0.0000000  2
    320    306    307    676     1  180.0000771  0.0000000  2
    321    308    309    702     1  180.0000771  0.0000000  2
    322    308    309    702     1  180.0000771  0.0000000  2
    323    310    303    328     1  0.0000000  0.6508444  3
    323    310    311    325     1  0.0000000  0.6508444  3
    323    310    311    326     1  0.0000000  0.6508444  3
    324    310    303    328     1  0.0000000  0.6508444  3
    324    310    311    325     1  0.0000000  0.6508444  3
    324    310    311    326     1  0.0000000  0.6508444  3
    325    311    312    327     1  0.0000000  0.0000000  2
    326    311    312    327     1  0.0000000  0.0000000  2
    329    330    332    345     1  0.0000000  0.6508444  3
    329    330    332    346     1  0.0000000  0.6508444  3
    329    331    334    347     1  0.0000000  0.6508444  3
    329    331    334    348     1  0.0000000  0.6508444  3
    329    336    337    351     1  0.0000000  0.6508444  3
    329    336    337    352     1  0.0000000  0.6508444  3
    330    329    331    343     1  0.0000000  0.6508444  3
    330    329    331    344     1  0.0000000  0.6508444  3
    330    329    336    349     1  0.0000000  0.6508444  3
    330    329    336    350     1  0.0000000  0.6508444  3
    331    329    330    341     1  0.0000000  0.6508444  3
    331    329    330    342     1  0.0000000  0.6508444  3
    331    329    336    349     1  0.0000000  0.6508444  3
    331    329    336    350     1  0.0000000  0.6508444  3
    332    330    329    354     1  0.0000000  0.6508444  3
    332    333    728    743     1  180.0000771  10.4600000  2
    333    332    330    341     1  0.0000000  0.6508444  3
    333    332    330    342     1  0.0000000  0.6508444  3
    333    728    727    741     1  0.0000000  0.0000000  2
    333    728    727    742     1  0.0000000  0.0000000  2
    334    331    329    354     1  0.0000000  0.6508444  3
    334    335    754    769     1  180.0000771  10.4600000  2
    335    334    331    343     1  0.0000000  0.6508444  3
    335    334    331    344     1  0.0000000  0.6508444  3
    335    754    753    767     1  0.0000000  0.0000000  2
    335    754    753    768     1  0.0000000  0.0000000  2
    336    329    330    341     1  0.0000000  0.6508444  3
    336    329    330    342     1  0.0000000  0.6508444  3
    336    329    331    343     1  0.0000000  0.6508444  3
    336    329    331    344     1  0.0000000  0.6508444  3
    336    337    338    353     1  0.0000000  0.0000000  2
    337    336    329    354     1  0.0000000  0.6508444  3
    338    337    336    349     1  0.0000000  0.6508444  3
    338    337    336    350     1  0.0000000  0.6508444  3
    339    333    332    345     1  0.0000000  3.3472000  1
    339    333    332    345     1  0.0000000  0.0000000  2
    339    333    332    345     1  180.0000771  0.3347200  3
    339    333    332    346     1  0.0000000  3.3472000  1
    339    333    332    346     1  0.0000000  0.0000000  2
    339    333    332    346     1  180.0000771  0.3347200  3
    339    333    728    743     1  0.0000000  8.3680000  1
    339    333    728    743     1  180.0000771  10.4600000  2
    340    335    334    347     1  0.0000000  3.3472000  1
    340    335    334    347     1  0.0000000  0.0000000  2
    340    335    334    347     1  180.0000771  0.3347200  3
    340    335    334    348     1  0.0000000  3.3472000  1
    340    335    334    348     1  0.0000000  0.0000000  2
    340    335    334    348     1  180.0000771  0.3347200  3
    340    335    754    769     1  0.0000000  8.3680000  1
    340    335    754    769     1  180.0000771  10.4600000  2
    341    330    329    354     1  0.0000000  0.6508444  3
    341    330    332    345     1  0.0000000  0.6508444  3
    341    330    332    346     1  0.0000000  0.6508444  3
    342    330    329    354     1  0.0000000  0.6508444  3
    342    330    332    345     1  0.0000000  0.6508444  3
    342    330    332    346     1  0.0000000  0.6508444  3
    343    331    329    354     1  0.0000000  0.6508444  3
    343    331    334    347     1  0.0000000  0.6508444  3
    343    331    334    348     1  0.0000000  0.6508444  3
    344    331    329    354     1  0.0000000  0.6508444  3
    344    331    334    347     1  0.0000000  0.6508444  3
    344    331    334    348     1  0.0000000  0.6508444  3
    345    332    333    728     1  180.0000771  0.0000000  2
    346    332    333    728     1  180.0000771  0.0000000  2
    347    334    335    754     1  180.0000771  0.0000000  2
    348    334    335    754     1  180.0000771  0.0000000  2
    349    336    329    354     1  0.0000000  0.6508444  3
    349    336    337    351     1  0.0000000  0.6508444  3
    349    336    337    352     1  0.0000000  0.6508444  3
    350    336    329    354     1  0.0000000  0.6508444  3
    350    336    337    351     1  0.0000000  0.6508444  3
    350    336    337    352     1  0.0000000  0.6508444  3
    351    337    338    353     1  0.0000000  0.0000000  2
    352    337    338    353     1  0.0000000  0.0000000  2
    355    356    358    371     1  0.0000000  0.6508444  3
    355    356    358    372     1  0.0000000  0.6508444  3
    355    357    360    373     1  0.0000000  0.6508444  3
    355    357    360    374     1  0.0000000  0.6508444  3
    355    362    363    377     1  0.0000000  0.6508444  3
    355    362    363    378     1  0.0000000  0.6508444  3
    356    355    357    369     1  0.0000000  0.6508444  3
    356    355    357    370     1  0.0000000  0.6508444  3
    356    355    362    375     1  0.0000000  0.6508444  3
    356    355    362    376     1  0.0000000  0.6508444  3
    357    355    356    367     1  0.0000000  0.6508444  3
    357    355    356    368     1  0.0000000  0.6508444  3
    357    355    362    375     1  0.0000000  0.6508444  3
    357    355    362    376     1  0.0000000  0.6508444  3
    358    356    355    380     1  0.0000000  0.6508444  3
    358    359    780    795     1  180.0000771  10.4600000  2
    359    358    356    367     1  0.0000000  0.6508444  3
    359    358    356    368     1  0.0000000  0.6508444  3
    359    780    779    793     1  0.0000000  0.0000000  2
    359    780    779    794     1  0.0000000  0.0000000  2
    360    357    355    380     1  0.0000000  0.6508444  3
    360    361    806    821     1  180.0000771  10.4600000  2
    361    360    357    369     1  0.0000000  0.6508444  3
    361    360    357    370     1  0.0000000  0.6508444  3
    361    806    805    819     1  0.0000000  0.0000000  2
    361    806    805    820     1  0.0000000  0.0000000  2
    362    355    356    367     1  0.0000000  0.6508444  3
    362    355    356    368     1  0.0000000  0.6508444  3
    362    355    357    369     1  0.0000000  0.6508444  3
    362    355    357    370     1  0.0000000  0.6508444  3
    362    363    364    379     1  0.0000000  0.0000000  2
    363    362    355    380     1  0.0000000  0.6508444  3
    364    363    362    375     1  0.0000000  0.6508444  3
    364    363    362    376     1  0.0000000  0.6508444  3
    365    359    358    371     1  0.0000000  3.3472000  1
    365    359    358    371     1  0.0000000  0.0000000  2
    365    359    358    371     1  180.0000771  0.3347200  3
    365    359    358    372     1  0.0000000  3.3472000  1
    365    359    358    372     1  0.0000000  0.0000000  2
    365    359    358    372     1  180.0000771  0.3347200  3
    365    359    780    795     1  0.0000000  8.3680000  1
    365    359    780    795     1  180.0000771  10.4600000  2
    366    361    360    373     1  0.0000000  3.3472000  1
    366    361    360    373     1  0.0000000  0.0000000  2
    366    361    360    373     1  180.0000771  0.3347200  3
    366    361    360    374     1  0.0000000  3.3472000  1
    366    361    360    374     1  0.0000000  0.0000000  2
    366    361    360    374     1  180.0000771  0.3347200  3
    366    361    806    821     1  0.0000000  8.3680000  1
    366    361    806    821     1  180.0000771  10.4600000  2
    367    356    355    380     1  0.0000000  0.6508444  3
    367    356    358    371     1  0.0000000  0.6508444  3
    367    356    358    372     1  0.0000000  0.6508444  3
    368    356    355    380     1  0.0000000  0.6508444  3
    368    356    358    371     1  0.0000000  0.6508444  3
    368    356    358    372     1  0.0000000  0.6508444  3
    369    357    355    380     1  0.0000000  0.6508444  3
    369    357    360    373     1  0.0000000  0.6508444  3
    369    357    360    374     1  0.0000000  0.6508444  3
    370    357    355    380     1  0.0000000  0.6508444  3
    370    357    360    373     1  0.0000000  0.6508444  3
    370    357    360    374     1  0.0000000  0.6508444  3
    371    358    359    780     1  180.0000771  0.0000000  2
    372    358    359    780     1  180.0000771  0.0000000  2
    373    360    361    806     1  180.0000771  0.0000000  2
    374    360    361    806     1  180.0000771  0.0000000  2
    375    362    355    380     1  0.0000000  0.6508444  3
    375    362    363    377     1  0.0000000  0.6508444  3
    375    362    363    378     1  0.0000000  0.6508444  3
    376    362    355    380     1  0.0000000  0.6508444  3
    376    362    363    377     1  0.0000000  0.6508444  3
    376    362    363    378     1  0.0000000  0.6508444  3
    377    363    364    379     1  0.0000000  0.0000000  2
    378    363    364    379     1  0.0000000  0.0000000  2
    381    382    384    397     1  0.0000000  0.6508444  3
    381    382    384    398     1  0.0000000  0.6508444  3
    381    383    386    399     1  0.0000000  0.6508444  3
    381    383    386    400     1  0.0000000  0.6508444  3
    381    388    389    403     1  0.0000000  0.6508444  3
    381    388    389    404     1  0.0000000  0.6508444  3
    382    381    383    395     1  0.0000000  0.6508444  3
    382    381    383    396     1  0.0000000  0.6508444  3
    382    381    388    401     1  0.0000000  0.6508444  3
    382    381    388    402     1  0.0000000  0.6508444  3
    383    381    382    393     1  0.0000000  0.6508444  3
    383    381    382    394     1  0.0000000  0.6508444  3
    383    381    388    401     1  0.0000000  0.6508444  3
    383    381    388    402     1  0.0000000  0.6508444  3
    384    382    381    406     1  0.0000000  0.6508444  3
    384    385    832    847     1  180.0000771  10.4600000  2
    385    384    382    393     1  0.0000000  0.6508444  3
    385    384    382    394     1  0.0000000  0.6508444  3
    385    832    831    845     1  0.0000000  0.0000000  2
    385    832    831    846     1  0.0000000  0.0000000  2
    386    383    381    406     1  0.0000000  0.6508444  3
    386    387    858    873     1  180.0000771  10.4600000  2
    387    386    383    395     1  0.0000000  0.6508444  3
    387    386    383    396     1  0.0000000  0.6508444  3
    387    858    857    871     1  0.0000000  0.0000000  2
    387    858    857    872     1  0.0000000  0.0000000  2
    388    381    382    393     1  0.0000000  0.6508444  3
    388    381    382    394     1  0.0000000  0.6508444  3
    388    381    383    395     1  0.0000000  0.6508444  3
    388    381    383    396     1  0.0000000  0.6508444  3
    388    389    390    405     1  0.0000000  0.0000000  2
    389    388    381    406     1  0.0000000  0.6508444  3
    390    389    388    401     1  0.0000000  0.6508444  3
    390    389    388    402     1  0.0000000  0.6508444  3
    391    385    384    397     1  0.0000000  3.3472000  1
    391    385    384    397     1  0.0000000  0.0000000  2
    391    385    384    397     1  180.0000771  0.3347200  3
    391    385    384    398     1  0.0000000  3.3472000  1
    391    385    384    398     1  0.0000000  0.0000000  2
    391    385    384    398     1  180.0000771  0.3347200  3
    391    385    832    847     1  0.0000000  8.3680000  1
    391    385    832    847     1  180.0000771  10.4600000  2
    392    387    386    399     1  0.0000000  3.3472000  1
    392    387    386    399     1  0.0000000  0.0000000  2
    392    387    386    399     1  180.0000771  0.3347200  3
    392    387    386    400     1  0.0000000  3.3472000  1
    392    387    386    400     1  0.0000000  0.0000000  2
    392    387    386    400     1  180.0000771  0.3347200  3
    392    387    858    873     1  0.0000000  8.3680000  1
    392    387    858    873     1  180.0000771  10.4600000  2
    393    382    381    406     1  0.0000000  0.6508444  3
    393    382    384    397     1  0.0000000  0.6508444  3
    393    382    384    398     1  0.0000000  0.6508444  3
    394    382    381    406     1  0.0000000  0.6508444  3
    394    382    384    397     1  0.0000000  0.6508444  3
    394    382    384    398     1  0.0000000  0.6508444  3
    395    383    381    406     1  0.0000000  0.6508444  3
    395    383    386    399     1  0.0000000  0.6508444  3
    395    383    386    400     1  0.0000000  0.6508444  3
    396    383    381    406     1  0.0000000  0.6508444  3
    396    383    386    399     1  0.0000000  0.6508444  3
    396    383    386    400     1  0.0000000  0.6508444  3
    397    384    385    832     1  180.0000771  0.0000000  2
    398    384    385    832     1  180.0000771  0.0000000  2
    399    386    387    858     1  180.0000771  0.0000000  2
    400    386    387    858     1  180.0000771  0.0000000  2
    401    388    381    406     1  0.0000000  0.6508444  3
    401    388    389    403     1  0.0000000  0.6508444  3
    401    388    389    404     1  0.0000000  0.6508444  3
    402    388    381    406     1  0.0000000  0.6508444  3
    402    388    389    403     1  0.0000000  0.6508444  3
    402    388    389    404     1  0.0000000  0.6508444  3
    403    389    390    405     1  0.0000000  0.0000000  2
    404    389    390    405     1  0.0000000  0.0000000  2
    407    408    410    423     1  0.0000000  0.6508444  3
    407    408    410    424     1  0.0000000  0.6508444  3
    407    409    412    425     1  0.0000000  0.6508444  3
    407    409    412    426     1  0.0000000  0.6508444  3
    407    414    415    429     1  0.0000000  0.6508444  3
    407    414    415    430     1  0.0000000  0.6508444  3
    408    407    409    421     1  0.0000000  0.6508444  3
    408    407    409    422     1  0.0000000  0.6508444  3
    408    407    414    427     1  0.0000000  0.6508444  3
    408    407    414    428     1  0.0000000  0.6508444  3
    409    407    408    419     1  0.0000000  0.6508444  3
    409    407    408    420     1  0.0000000  0.6508444  3
    409    407    414    427     1  0.0000000  0.6508444  3
    409    407    414    428     1  0.0000000  0.6508444  3
    410    408    407    432     1  0.0000000  0.6508444  3
    410    411    884    899     1  180.0000771  10.4600000  2
    411    410    408    419     1  0.0000000  0.6508444  3
    411    410    408    420     1  0.0000000  0.6508444  3
    411    884    883    897     1  0.0000000  0.0000000  2
    411    884    883    898     1  0.0000000  0.0000000  2
    412    409    407    432     1  0.0000000  0.6508444  3
    412    413    910    925     1  180.0000771  10.4600000  2
    413    412    409    421     1  0.0000000  0.6508444  3
    413    412    409    422     1  0.0000000  0.6508444  3
    413    910    909    923     1  0.0000000  0.0000000  2
    413    910    909    924     1  0.0000000  0.0000000  2
    414    407    408    419     1  0.0000000  0.6508444  3
    414    407    408    420     1  0.0000000  0.6508444  3
    414    407    409    421     1  0.0000000  0.6508444  3
    414    407    409    422     1  0.0000000  0.6508444  3
    414    415    416    431     1  0.0000000  0.0000000  2
    415    414    407    432     1  0.0000000  0.6508444  3
    416    415    414    427     1  0.0000000  0.6508444  3
    416    415    414    428     1  0.0000000  0.6508444  3
    417    411    410    423     1  0.0000000  3.3472000  1
    417    411    410    423     1  0.0000000  0.0000000  2
    417    411    410    423     1  180.0000771  0.3347200  3
    417    411    410    424     1  0.0000000  3.3472000  1
    417    411    410    424     1  0.0000000  0.0000000  2
    417    411    410    424     1  180.0000771  0.3347200  3
    417    411    884    899     1  0.0000000  8.3680000  1
    417    411    884    899     1  180.0000771  10.4600000  2
    418    413    412    425     1  0.0000000  3.3472000  1
    418    413    412    425     1  0.0000000  0.0000000  2
    418    413    412    425     1  180.0000771  0.3347200  3
    418    413    412    426     1  0.0000000  3.3472000  1
    418    413    412    426     1  0.0000000  0.0000000  2
    418    413    412    426     1  180.0000771  0.3347200  3
    418    413    910    925     1  0.0000000  8.3680000  1
    418    413    910    925     1  180.0000771  10.4600000  2
    419    408    407    432     1  0.0000000  0.6508444  3
    419    408    410    423     1  0.0000000  0.6508444  3
    419    408    410    424     1  0.0000000  0.6508444  3
    420    408    407    432     1  0.0000000  0.6508444  3
    420    408    410    423     1  0.0000000  0.6508444  3
    420    408    410    424     1  0.0000000  0.6508444  3
    421    409    407    432     1  0.0000000  0.6508444  3
    421    409    412    425     1  0.0000000  0.6508444  3
    421    409    412    426     1  0.0000000  0.6508444  3
    422    409    407    432     1  0.0000000  0.6508444  3
    422    409    412    425     1  0.0000000  0.6508444  3
    422    409    412    426     1  0.0000000  0.6508444  3
    423    410    411    884     1  180.0000771  0.0000000  2
    424    410    411    884     1  180.0000771  0.0000000  2
    425    412    413    910     1  180.0000771  0.0000000  2
    426    412    413    910     1  180.0000771  0.0000000  2
    427    414    407    432     1  0.0000000  0.6508444  3
    427    414    415    429     1  0.0000000  0.6508444  3
    427    414    415    430     1  0.0000000  0.6508444  3
    428    414    407    432     1  0.0000000  0.6508444  3
    428    414    415    429     1  0.0000000  0.6508444  3
    428    414    415    430     1  0.0000000  0.6508444  3
    429    415    416    431     1  0.0000000  0.0000000  2
    430    415    416    431     1  0.0000000  0.0000000  2
    433    434    436    449     1  0.0000000  0.6508444  3
    433    434    436    450     1  0.0000000  0.6508444  3
    433    435    438    451     1  0.0000000  0.6508444  3
    433    435    438    452     1  0.0000000  0.6508444  3
    433    440    441    455     1  0.0000000  0.6508444  3
    433    440    441    456     1  0.0000000  0.6508444  3
    434    433    435    447     1  0.0000000  0.6508444  3
    434    433    435    448     1  0.0000000  0.6508444  3
    434    433    440    453     1  0.0000000  0.6508444  3
    434    433    440    454     1  0.0000000  0.6508444  3
    435    433    434    445     1  0.0000000  0.6508444  3
    435    433    434    446     1  0.0000000  0.6508444  3
    435    433    440    453     1  0.0000000  0.6508444  3
    435    433    440    454     1  0.0000000  0.6508444  3
    436    434    433    458     1  0.0000000  0.6508444  3
    436    437    936    951     1  180.0000771  10.4600000  2
    437    436    434    445     1  0.0000000  0.6508444  3
    437    436    434    446     1  0.0000000  0.6508444  3
    437    936    935    949     1  0.0000000  0.0000000  2
    437    936    935    950     1  0.0000000  0.0000000  2
    438    435    433    458     1  0.0000000  0.6508444  3
    438    439    962    977     1  180.0000771  10.4600000  2
    439    438    435    447     1  0.0000000  0.6508444  3
    439    438    435    448     1  0.0000000  0.6508444  3
    439    962    961    975     1  0.0000000  0.0000000  2
    439    962    961    976     1  0.0000000  0.0000000  2
    440    433    434    445     1  0.0000000  0.6508444  3
    440    433    434    446     1  0.0000000  0.6508444  3
    440    433    435    447     1  0.0000000  0.6508444  3
    440    433    435    448     1  0.0000000  0.6508444  3
    440    441    442    457     1  0.0000000  0.0000000  2
    441    440    433    458     1  0.0000000  0.6508444  3
    442    441    440    453     1  0.0000000  0.6508444  3
    442    441    440    454     1  0.0000000  0.6508444  3
    443    437    436    449     1  0.0000000  3.3472000  1
    443    437    436    449     1  0.0000000  0.0000000  2
    443    437    436    449     1  180.0000771  0.3347200  3
    443    437    436    450     1  0.0000000  3.3472000  1
    443    437    436    450     1  0.0000000  0.0000000  2
    443    437    436    450     1  180.0000771  0.3347200  3
    443    437    936    951     1  0.0000000  8.3680000  1
    443    437    936    951     1  180.0000771  10.4600000  2
    444    439    438    451     1  0.0000000  3.3472000  1
    444    439    438    451     1  0.0000000  0.0000000  2
    444    439    438    451     1  180.0000771  0.3347200  3
    444    439    438    452     1  0.0000000  3.3472000  1
    444    439    438    452     1  0.0000000  0.0000000  2
    444    439    438    452     1  180.0000771  0.3347200  3
    444    439    962    977     1  0.0000000  8.3680000  1
    444    439    962    977     1  180.0000771  10.4600000  2
    445    434    433    458     1  0.0000000  0.6508444  3
    445    434    436    449     1  0.0000000  0.6508444  3
    445    434    436    450     1  0.0000000  0.6508444  3
    446    434    433    458     1  0.0000000  0.6508444  3
    446    434    436    449     1  0.0000000  0.6508444  3
    446    434    436    450     1  0.0000000  0.6508444  3
    447    435    433    458     1  0.0000000  0.6508444  3
    447    435    438    451     1  0.0000000  0.6508444  3
    447    435    438    452     1  0.0000000  0.6508444  3
    448    435    433    458     1  0.0000000  0.6508444  3
    448    435    438    451     1  0.0000000  0.6508444  3
    448    435    438    452     1  0.0000000  0.6508444  3
    449    436    437    936     1  180.0000771  0.0000000  2
    450    436    437    936     1  180.0000771  0.0000000  2
    451    438    439    962     1  180.0000771  0.0000000  2
    452    438    439    962     1  180.0000771  0.0000000  2
    453    440    433    458     1  0.0000000  0.6508444  3
    453    440    441    455     1  0.0000000  0.6508444  3
    453    440    441    456     1  0.0000000  0.6508444  3
    454    440    433    458     1  0.0000000  0.6508444  3
    454    440    441    455     1  0.0000000  0.6508444  3
    454    440    441    456     1  0.0000000  0.6508444  3
    455    441    442    457     1  0.0000000  0.0000000  2
    456    441    442    457     1  0.0000000  0.0000000  2
    459    460    462    475     1  0.0000000  0.6508444  3
    459    460    462    476     1  0.0000000  0.6508444  3
    459    461    464    477     1  0.0000000  0.6508444  3
    459    461    464    478     1  0.0000000  0.6508444  3
    459    466    467    481     1  0.0000000  0.6508444  3
    459    466    467    482     1  0.0000000  0.6508444  3
    460    459    461    473     1  0.0000000  0.6508444  3
    460    459    461    474     1  0.0000000  0.6508444  3
    460    459    466    479     1  0.0000000  0.6508444  3
    460    459    466    480     1  0.0000000  0.6508444  3
    461    459    460    471     1  0.0000000  0.6508444  3
    461    459    460    472     1  0.0000000  0.6508444  3
    461    459    466    479     1  0.0000000  0.6508444  3
    461    459    466    480     1  0.0000000  0.6508444  3
    462    460    459    484     1  0.0000000  0.6508444  3
    462    463    988   1003     1  180.0000771  10.4600000  2
    463    462    460    471     1  0.0000000  0.6508444  3
    463    462    460    472     1  0.0000000  0.6508444  3
    463    988    987   1001     1  0.0000000  0.0000000  2
    463    988    987   1002     1  0.0000000  0.0000000  2
    464    461    459    484     1  0.0000000  0.6508444  3
    464    465   1014   1029     1  180.0000771  10.4600000  2
    465    464    461    473     1  0.0000000  0.6508444  3
    465    464    461    474     1  0.0000000  0.6508444  3
    465   1014   1013   1027     1  0.0000000  0.0000000  2
    465   1014   1013   1028     1  0.0000000  0.0000000  2
    466    459    460    471     1  0.0000000  0.6508444  3
    466    459    460    472     1  0.0000000  0.6508444  3
    466    459    461    473     1  0.0000000  0.6508444  3
    466    459    461    474     1  0.0000000  0.6508444  3
    466    467    468    483     1  0.0000000  0.0000000  2
    467    466    459    484     1  0.0000000  0.6508444  3
    468    467    466    479     1  0.0000000  0.6508444  3
    468    467    466    480     1  0.0000000  0.6508444  3
    469    463    462    475     1  0.0000000  3.3472000  1
    469    463    462    475     1  0.0000000  0.0000000  2
    469    463    462    475     1  180.0000771  0.3347200  3
    469    463    462    476     1  0.0000000  3.3472000  1
    469    463    462    476     1  0.0000000  0.0000000  2
    469    463    462    476     1  180.0000771  0.3347200  3
    469    463    988   1003     1  0.0000000  8.3680000  1
    469    463    988   1003     1  180.0000771  10.4600000  2
    470    465    464    477     1  0.0000000  3.3472000  1
    470    465    464    477     1  0.0000000  0.0000000  2
    470    465    464    477     1  180.0000771  0.3347200  3
    470    465    464    478     1  0.0000000  3.3472000  1
    470    465    464    478     1  0.0000000  0.0000000  2
    470    465    464    478     1  180.0000771  0.3347200  3
    470    465   1014   1029     1  0.0000000  8.3680000  1
    470    465   1014   1029     1  180.0000771  10.4600000  2
    471    460    459    484     1  0.0000000  0.6508444  3
    471    460    462    475     1  0.0000000  0.6508444  3
    471    460    462    476     1  0.0000000  0.6508444  3
    472    460    459    484     1  0.0000000  0.6508444  3
    472    460    462    475     1  0.0000000  0.6508444  3
    472    460    462    476     1  0.0000000  0.6508444  3
    473    461    459    484     1  0.0000000  0.6508444  3
    473    461    464    477     1  0.0000000  0.6508444  3
    473    461    464    478     1  0.0000000  0.6508444  3
    474    461    459    484     1  0.0000000  0.6508444  3
    474    461    464    477     1  0.0000000  0.6508444  3
    474    461    464    478     1  0.0000000  0.6508444  3
    475    462    463    988     1  180.0000771  0.0000000  2
    476    462    463    988     1  180.0000771  0.0000000  2
    477    464    465   1014     1  180.0000771  0.0000000  2
    478    464    465   1014     1  180.0000771  0.0000000  2
    479    466    459    484     1  0.0000000  0.6508444  3
    479    466    467    481     1  0.0000000  0.6508444  3
    479    466    467    482     1  0.0000000  0.6508444  3
    480    466    459    484     1  0.0000000  0.6508444  3
    480    466    467    481     1  0.0000000  0.6508444  3
    480    466    467    482     1  0.0000000  0.6508444  3
    481    467    468    483     1  0.0000000  0.0000000  2
    482    467    468    483     1  0.0000000  0.0000000  2
    485    486    488    501     1  0.0000000  0.6508444  3
    485    486    488    502     1  0.0000000  0.6508444  3
    485    487    490    503     1  0.0000000  0.6508444  3
    485    487    490    504     1  0.0000000  0.6508444  3
    485    492    493    507     1  0.0000000  0.6508444  3
    485    492    493    508     1  0.0000000  0.6508444  3
    486    485    487    499     1  0.0000000  0.6508444  3
    486    485    487    500     1  0.0000000  0.6508444  3
    486    485    492    505     1  0.0000000  0.6508444  3
    486    485    492    506     1  0.0000000  0.6508444  3
    487    485    486    497     1  0.0000000  0.6508444  3
    487    485    486    498     1  0.0000000  0.6508444  3
    487    485    492    505     1  0.0000000  0.6508444  3
    487    485    492    506     1  0.0000000  0.6508444  3
    488    486    485    510     1  0.0000000  0.6508444  3
    488    489   1040   1055     1  180.0000771  10.4600000  2
    489    488    486    497     1  0.0000000  0.6508444  3
    489    488    486    498     1  0.0000000  0.6508444  3
    489   1040   1039   1053     1  0.0000000  0.0000000  2
    489   1040   1039   1054     1  0.0000000  0.0000000  2
    490    487    485    510     1  0.0000000  0.6508444  3
    490    491   1066   1081     1  180.0000771  10.4600000  2
    491    490    487    499     1  0.0000000  0.6508444  3
    491    490    487    500     1  0.0000000  0.6508444  3
    491   1066   1065   1079     1  0.0000000  0.0000000  2
    491   1066   1065   1080     1  0.0000000  0.0000000  2
    492    485    486    497     1  0.0000000  0.6508444  3
    492    485    486    498     1  0.0000000  0.6508444  3
    492    485    487    499     1  0.0000000  0.6508444  3
    492    485    487    500     1  0.0000000  0.6508444  3
    492    493    494    509     1  0.0000000  0.0000000  2
    493    492    485    510     1  0.0000000  0.6508444  3
    494    493    492    505     1  0.0000000  0.6508444  3
    494    493    492    506     1  0.0000000  0.6508444  3
    495    489    488    501     1  0.0000000  3.3472000  1
    495    489    488    501     1  0.0000000  0.0000000  2
    495    489    488    501     1  180.0000771  0.3347200  3
    495    489    488    502     1  0.0000000  3.3472000  1
    495    489    488    502     1  0.0000000  0.0000000  2
    495    489    488    502     1  180.0000771  0.3347200  3
    495    489   1040   1055     1  0.0000000  8.3680000  1
    495    489   1040   1055     1  180.0000771  10.4600000  2
    496    491    490    503     1  0.0000000  3.3472000  1
    496    491    490    503     1  0.0000000  0.0000000  2
    496    491    490    503     1  180.0000771  0.3347200  3
    496    491    490    504     1  0.0000000  3.3472000  1
    496    491    490    504     1  0.0000000  0.0000000  2
    496    491    490    504     1  180.0000771  0.3347200  3
    496    491   1066   1081     1  0.0000000  8.3680000  1
    496    491   1066   1081     1  180.0000771  10.4600000  2
    497    486    485    510     1  0.0000000  0.6508444  3
    497    486    488    501     1  0.0000000  0.6508444  3
    497    486    488    502     1  0.0000000  0.6508444  3
    498    486    485    510     1  0.0000000  0.6508444  3
    498    486    488    501     1  0.0000000  0.6508444  3
    498    486    488    502     1  0.0000000  0.6508444  3
    499    487    485    510     1  0.0000000  0.6508444  3
    499    487    490    503     1  0.0000000  0.6508444  3
    499    487    490    504     1  0.0000000  0.6508444  3
    500    487    485    510     1  0.0000000  0.6508444  3
    500    487    490    503     1  0.0000000  0.6508444  3
    500    487    490    504     1  0.0000000  0.6508444  3
    501    488    489   1040     1  180.0000771  0.0000000  2
    502    488    489   1040     1  180.0000771  0.0000000  2
    503    490    491   1066     1  180.0000771  0.0000000  2
    504    490    491   1066     1  180.0000771  0.0000000  2
    505    492    485    510     1  0.0000000  0.6508444  3
    505    492    493    507     1  0.0000000  0.6508444  3
    505    492    493    508     1  0.0000000  0.6508444  3
    506    492    485    510     1  0.0000000  0.6508444  3
    506    492    493    507     1  0.0000000  0.6508444  3
    506    492    493    508     1  0.0000000  0.6508444  3
    507    493    494    509     1  0.0000000  0.0000000  2
    508    493    494    509     1  0.0000000  0.0000000  2
    511    512    514    527     1  0.0000000  0.6508444  3
    511    512    514    528     1  0.0000000  0.6508444  3
    511    513    516    529     1  0.0000000  0.6508444  3
    511    513    516    530     1  0.0000000  0.6508444  3
    511    518    519    533     1  0.0000000  0.6508444  3
    511    518    519    534     1  0.0000000  0.6508444  3
    512    511    513    525     1  0.0000000  0.6508444  3
    512    511    513    526     1  0.0000000  0.6508444  3
    512    511    518    531     1  0.0000000  0.6508444  3
    512    511    518    532     1  0.0000000  0.6508444  3
    513    511    512    523     1  0.0000000  0.6508444  3
    513    511    512    524     1  0.0000000  0.6508444  3
    513    511    518    531     1  0.0000000  0.6508444  3
    513    511    518    532     1  0.0000000  0.6508444  3
    514    512    511    536     1  0.0000000  0.6508444  3
    514    515   1092   1107     1  180.0000771  10.4600000  2
    515    514    512    523     1  0.0000000  0.6508444  3
    515    514    512    524     1  0.0000000  0.6508444  3
    515   1092   1091   1105     1  0.0000000  0.0000000  2
    515   1092   1091   1106     1  0.0000000  0.0000000  2
    516    513    511    536     1  0.0000000  0.6508444  3
    516    517   1118   1133     1  180.0000771  10.4600000  2
    517    516    513    525     1  0.0000000  0.6508444  3
    517    516    513    526     1  0.0000000  0.6508444  3
    517   1118   1117   1131     1  0.0000000  0.0000000  2
    517   1118   1117   1132     1  0.0000000  0.0000000  2
    518    511    512    523     1  0.0000000  0.6508444  3
    518    511    512    524     1  0.0000000  0.6508444  3
    518    511    513    525     1  0.0000000  0.6508444  3
    518    511    513    526     1  0.0000000  0.6508444  3
    518    519    520    535     1  0.0000000  0.0000000  2
    519    518    511    536     1  0.0000000  0.6508444  3
    520    519    518    531     1  0.0000000  0.6508444  3
    520    519    518    532     1  0.0000000  0.6508444  3
    521    515    514    527     1  0.0000000  3.3472000  1
    521    515    514    527     1  0.0000000  0.0000000  2
    521    515    514    527     1  180.0000771  0.3347200  3
    521    515    514    528     1  0.0000000  3.3472000  1
    521    515    514    528     1  0.0000000  0.0000000  2
    521    515    514    528     1  180.0000771  0.3347200  3
    521    515   1092   1107     1  0.0000000  8.3680000  1
    521    515   1092   1107     1  180.0000771  10.4600000  2
    522    517    516    529     1  0.0000000  3.3472000  1
    522    517    516    529     1  0.0000000  0.0000000  2
    522    517    516    529     1  180.0000771  0.3347200  3
    522    517    516    530     1  0.0000000  3.3472000  1
    522    517    516    530     1  0.0000000  0.0000000  2
    522    517    516    530     1  180.0000771  0.3347200  3
    522    517   1118   1133     1  0.0000000  8.3680000  1
    522    517   1118   1133     1  180.0000771  10.4600000  2
    523    512    511    536     1  0.0000000  0.6508444  3
    523    512    514    527     1  0.0000000  0.6508444  3
    523    512    514    528     1  0.0000000  0.6508444  3
    524    512    511    536     1  0.0000000  0.6508444  3
    524    512    514    527     1  0.0000000  0.6508444  3
    524    512    514    528     1  0.0000000  0.6508444  3
    525    513    511    536     1  0.0000000  0.6508444  3
    525    513    516    529     1  0.0000000  0.6508444  3
    525    513    516    530     1  0.0000000  0.6508444  3
    526    513    511    536     1  0.0000000  0.6508444  3
    526    513    516    529     1  0.0000000  0.6508444  3
    526    513    516    530     1  0.0000000  0.6508444  3
    527    514    515   1092     1  180.0000771  0.0000000  2
    528    514    515   1092     1  180.0000771  0.0000000  2
    529    516    517   1118     1  180.0000771  0.0000000  2
    530    516    517   1118     1  180.0000771  0.0000000  2
    531    518    511    536     1  0.0000000  0.6508444  3
    531    518    519    533     1  0.0000000  0.6508444  3
    531    518    519    534     1  0.0000000  0.6508444  3
    532    518    511    536     1  0.0000000  0.6508444  3
    532    518    519    533     1  0.0000000  0.6508444  3
    532    518    519    534     1  0.0000000  0.6508444  3
    533    519    520    535     1  0.0000000  0.0000000  2
    534    519    520    535     1  0.0000000  0.0000000  2
    537    538    540    553     1  0.0000000  0.6508444  3
    537    538    540    554     1  0.0000000  0.6508444  3
    537    539    542    555     1  0.0000000  0.6508444  3
    537    539    542    556     1  0.0000000  0.6508444  3
    537    544    545    559     1  0.0000000  0.6508444  3
    537    544    545    560     1  0.0000000  0.6508444  3
    538    537    539    551     1  0.0000000  0.6508444  3
    538    537    539    552     1  0.0000000  0.6508444  3
    538    537    544    557     1  0.0000000  0.6508444  3
    538    537    544    558     1  0.0000000  0.6508444  3
    539    537    538    549     1  0.0000000  0.6508444  3
    539    537    538    550     1  0.0000000  0.6508444  3
    539    537    544    557     1  0.0000000  0.6508444  3
    539    537    544    558     1  0.0000000  0.6508444  3
    540    538    537    562     1  0.0000000  0.6508444  3
    540    541   1144   1159     1  180.0000771  10.4600000  2
    541    540    538    549     1  0.0000000  0.6508444  3
    541    540    538    550     1  0.0000000  0.6508444  3
    541   1144   1143   1157     1  0.0000000  0.0000000  2
    541   1144   1143   1158     1  0.0000000  0.0000000  2
    542    539    537    562     1  0.0000000  0.6508444  3
    542    543   1170   1185     1  180.0000771  10.4600000  2
    543    542    539    551     1  0.0000000  0.6508444  3
    543    542    539    552     1  0.0000000  0.6508444  3
    543   1170   1169   1183     1  0.0000000  0.0000000  2
    543   1170   1169   1184     1  0.0000000  0.0000000  2
    544    537    538    549     1  0.0000000  0.6508444  3
    544    537    538    550     1  0.0000000  0.6508444  3
    544    537    539    551     1  0.0000000  0.6508444  3
    544    537    539    552     1  0.0000000  0.6508444  3
    544    545    546    561     1  0.0000000  0.0000000  2
    545    544    537    562     1  0.0000000  0.6508444  3
    546    545    544    557     1  0.0000000  0.6508444  3
    546    545    544    558     1  0.0000000  0.6508444  3
    547    541    540    553     1  0.0000000  3.3472000  1
    547    541    540    553     1  0.0000000  0.0000000  2
    547    541    540    553     1  180.0000771  0.3347200  3
    547    541    540    554     1  0.0000000  3.3472000  1
    547    541    540    554     1  0.0000000  0.0000000  2
    547    541    540    554     1  180.0000771  0.3347200  3
    547    541   1144   1159     1  0.0000000  8.3680000  1
    547    541   1144   1159     1  180.0000771  10.4600000  2
    548    543    542    555     1  0.0000000  3.3472000  1
    548    543    542    555     1  0.0000000  0.0000000  2
    548    543    542    555     1  180.0000771  0.3347200  3
    548    543    542    556     1  0.0000000  3.3472000  1
    548    543    542    556     1  0.0000000  0.0000000  2
    548    543    542    556     1  180.0000771  0.3347200  3
    548    543   1170   1185     1  0.0000000  8.3680000  1
    548    543   1170   1185     1  180.0000771  10.4600000  2
    549    538    537    562     1  0.0000000  0.6508444  3
    549    538    540    553     1  0.0000000  0.6508444  3
    549    538    540    554     1  0.0000000  0.6508444  3
    550    538    537    562     1  0.0000000  0.6508444  3
    550    538    540    553     1  0.0000000  0.6508444  3
    550    538    540    554     1  0.0000000  0.6508444  3
    551    539    537    562     1  0.0000000  0.6508444  3
    551    539    542    555     1  0.0000000  0.6508444  3
    551    539    542    556     1  0.0000000  0.6508444  3
    552    539    537    562     1  0.0000000  0.6508444  3
    552    539    542    555     1  0.0000000  0.6508444  3
    552    539    542    556     1  0.0000000  0.6508444  3
    553    540    541   1144     1  180.0000771  0.0000000  2
    554    540    541   1144     1  180.0000771  0.0000000  2
    555    542    543   1170     1  180.0000771  0.0000000  2
    556    542    543   1170     1  180.0000771  0.0000000  2
    557    544    537    562     1  0.0000000  0.6508444  3
    557    544    545    559     1  0.0000000  0.6508444  3
    557    544    545    560     1  0.0000000  0.6508444  3
    558    544    537    562     1  0.0000000  0.6508444  3
    558    544    545    559     1  0.0000000  0.6508444  3
    558    544    545    560     1  0.0000000  0.6508444  3
    559    545    546    561     1  0.0000000  0.0000000  2
    560    545    546    561     1  0.0000000  0.0000000  2
    563    564    566    579     1  0.0000000  0.6508444  3
    563    564    566    580     1  0.0000000  0.6508444  3
    563    565    568    581     1  0.0000000  0.6508444  3
    563    565    568    582     1  0.0000000  0.6508444  3
    563    570    571    585     1  0.0000000  0.6508444  3
    563    570    571    586     1  0.0000000  0.6508444  3
    564    563    565    577     1  0.0000000  0.6508444  3
    564    563    565    578     1  0.0000000  0.6508444  3
    564    563    570    583     1  0.0000000  0.6508444  3
    564    563    570    584     1  0.0000000  0.6508444  3
    565    563    564    575     1  0.0000000  0.6508444  3
    565    563    564    576     1  0.0000000  0.6508444  3
    565    563    570    583     1  0.0000000  0.6508444  3
    565    563    570    584     1  0.0000000  0.6508444  3
    566    564    563    588     1  0.0000000  0.6508444  3
    566    567   1196   1211     1  180.0000771  10.4600000  2
    567    566    564    575     1  0.0000000  0.6508444  3
    567    566    564    576     1  0.0000000  0.6508444  3
    567   1196   1195   1209     1  0.0000000  0.0000000  2
    567   1196   1195   1210     1  0.0000000  0.0000000  2
    568    565    563    588     1  0.0000000  0.6508444  3
    568    569   1222   1237     1  180.0000771  10.4600000  2
    569    568    565    577     1  0.0000000  0.6508444  3
    569    568    565    578     1  0.0000000  0.6508444  3
    569   1222   1221   1235     1  0.0000000  0.0000000  2
    569   1222   1221   1236     1  0.0000000  0.0000000  2
    570    563    564    575     1  0.0000000  0.6508444  3
    570    563    564    576     1  0.0000000  0.6508444  3
    570    563    565    577     1  0.0000000  0.6508444  3
    570    563    565    578     1  0.0000000  0.6508444  3
    570    571    572    587     1  0.0000000  0.0000000  2
    571    570    563    588     1  0.0000000  0.6508444  3
    572    571    570    583     1  0.0000000  0.6508444  3
    572    571    570    584     1  0.0000000  0.6508444  3
    573    567    566    579     1  0.0000000  3.3472000  1
    573    567    566    579     1  0.0000000  0.0000000  2
    573    567    566    579     1  180.0000771  0.3347200  3
    573    567    566    580     1  0.0000000  3.3472000  1
    573    567    566    580     1  0.0000000  0.0000000  2
    573    567    566    580     1  180.0000771  0.3347200  3
    573    567   1196   1211     1  0.0000000  8.3680000  1
    573    567   1196   1211     1  180.0000771  10.4600000  2
    574    569    568    581     1  0.0000000  3.3472000  1
    574    569    568    581     1  0.0000000  0.0000000  2
    574    569    568    581     1  180.0000771  0.3347200  3
    574    569    568    582     1  0.0000000  3.3472000  1
    574    569    568    582     1  0.0000000  0.0000000  2
    574    569    568    582     1  180.0000771  0.3347200  3
    574    569   1222   1237     1  0.0000000  8.3680000  1
    574    569   1222   1237     1  180.0000771  10.4600000  2
    575    564    563    588     1  0.0000000  0.6508444  3
    575    564    566    579     1  0.0000000  0.6508444  3
    575    564    566    580     1  0.0000000  0.6508444  3
    576    564    563    588     1  0.0000000  0.6508444  3
    576    564    566    579     1  0.0000000  0.6508444  3
    576    564    566    580     1  0.0000000  0.6508444  3
    577    565    563    588     1  0.0000000  0.6508444  3
    577    565    568    581     1  0.0000000  0.6508444  3
    577    565    568    582     1  0.0000000  0.6508444  3
    578    565    563    588     1  0.0000000  0.6508444  3
    578    565    568    581     1  0.0000000  0.6508444  3
    578    565    568    582     1  0.0000000  0.6508444  3
    579    566    567   1196     1  180.0000771  0.0000000  2
    580    566    567   1196     1  180.0000771  0.0000000  2
    581    568    569   1222     1  180.0000771  0.0000000  2
    582    568    569   1222     1  180.0000771  0.0000000  2
    583    570    563    588     1  0.0000000  0.6508444  3
    583    570    571    585     1  0.0000000  0.6508444  3
    583    570    571    586     1  0.0000000  0.6508444  3
    584    570    563    588     1  0.0000000  0.6508444  3
    584    570    571    585     1  0.0000000  0.6508444  3
    584    570    571    586     1  0.0000000  0.6508444  3
    585    571    572    587     1  0.0000000  0.0000000  2
    586    571    572    587     1  0.0000000  0.0000000  2
    589    590    592    605     1  0.0000000  0.6508444  3
    589    590    592    606     1  0.0000000  0.6508444  3
    589    591    594    607     1  0.0000000  0.6508444  3
    589    591    594    608     1  0.0000000  0.6508444  3
    589    596    597    611     1  0.0000000  0.6508444  3
    589    596    597    612     1  0.0000000  0.6508444  3
    590    589    591    603     1  0.0000000  0.6508444  3
    590    589    591    604     1  0.0000000  0.6508444  3
    590    589    596    609     1  0.0000000  0.6508444  3
    590    589    596    610     1  0.0000000  0.6508444  3
    591    589    590    601     1  0.0000000  0.6508444  3
    591    589    590    602     1  0.0000000  0.6508444  3
    591    589    596    609     1  0.0000000  0.6508444  3
    591    589    596    610     1  0.0000000  0.6508444  3
    592    590    589    614     1  0.0000000  0.6508444  3
    592    593   1248   1263     1  180.0000771  10.4600000  2
    593    592    590    601     1  0.0000000  0.6508444  3
    593    592    590    602     1  0.0000000  0.6508444  3
    593   1248   1247   1261     1  0.0000000  0.0000000  2
    593   1248   1247   1262     1  0.0000000  0.0000000  2
    594    591    589    614     1  0.0000000  0.6508444  3
    594    595   1274   1289     1  180.0000771  10.4600000  2
    595    594    591    603     1  0.0000000  0.6508444  3
    595    594    591    604     1  0.0000000  0.6508444  3
    595   1274   1273   1287     1  0.0000000  0.0000000  2
    595   1274   1273   1288     1  0.0000000  0.0000000  2
    596    589    590    601     1  0.0000000  0.6508444  3
    596    589    590    602     1  0.0000000  0.6508444  3
    596    589    591    603     1  0.0000000  0.6508444  3
    596    589    591    604     1  0.0000000  0.6508444  3
    596    597    598    613     1  0.0000000  0.0000000  2
    597    596    589    614     1  0.0000000  0.6508444  3
    598    597    596    609     1  0.0000000  0.6508444  3
    598    597    596    610     1  0.0000000  0.6508444  3
    599    593    592    605     1  0.0000000  3.3472000  1
    599    593    592    605     1  0.0000000  0.0000000  2
    599    593    592    605     1  180.0000771  0.3347200  3
    599    593    592    606     1  0.0000000  3.3472000  1
    599    593    592    606     1  0.0000000  0.0000000  2
    599    593    592    606     1  180.0000771  0.3347200  3
    599    593   1248   1263     1  0.0000000  8.3680000  1
    599    593   1248   1263     1  180.0000771  10.4600000  2
    600    595    594    607     1  0.0000000  3.3472000  1
    600    595    594    607     1  0.0000000  0.0000000  2
    600    595    594    607     1  180.0000771  0.3347200  3
    600    595    594    608     1  0.0000000  3.3472000  1
    600    595    594    608     1  0.0000000  0.0000000  2
    600    595    594    608     1  180.0000771  0.3347200  3
    600    595   1274   1289     1  0.0000000  8.3680000  1
    600    595   1274   1289     1  180.0000771  10.4600000  2
    601    590    589    614     1  0.0000000  0.6508444  3
    601    590    592    605     1  0.0000000  0.6508444  3
    601    590    592    606     1  0.0000000  0.6508444  3
    602    590    589    614     1  0.0000000  0.6508444  3
    602    590    592    605     1  0.0000000  0.6508444  3
    602    590    592    606     1  0.0000000  0.6508444  3
    603    591    589    614     1  0.0000000  0.6508444  3
    603    591    594    607     1  0.0000000  0.6508444  3
    603    591    594    608     1  0.0000000  0.6508444  3
    604    591    589    614     1  0.0000000  0.6508444  3
    604    591    594    607     1  0.0000000  0.6508444  3
    604    591    594    608     1  0.0000000  0.6508444  3
    605    592    593   1248     1  180.0000771  0.0000000  2
    606    592    593   1248     1  180.0000771  0.0000000  2
    607    594    595   1274     1  180.0000771  0.0000000  2
    608    594    595   1274     1  180.0000771  0.0000000  2
    609    596    589    614     1  0.0000000  0.6508444  3
    609    596    597    611     1  0.0000000  0.6508444  3
    609    596    597    612     1  0.0000000  0.6508444  3
    610    596    589    614     1  0.0000000  0.6508444  3
    610    596    597    611     1  0.0000000  0.6508444  3
    610    596    597    612     1  0.0000000  0.6508444  3
    611    597    598    613     1  0.0000000  0.0000000  2
    612    597    598    613     1  0.0000000  0.0000000  2
    615    616    618    631     1  0.0000000  0.6508444  3
    615    616    618    632     1  0.0000000  0.6508444  3
    615    617    620    633     1  0.0000000  0.6508444  3
    615    617    620    634     1  0.0000000  0.6508444  3
    615    622    623    637     1  0.0000000  0.6508444  3
    615    622    623    638     1  0.0000000  0.6508444  3
    616    615    617    629     1  0.0000000  0.6508444  3
    616    615    617    630     1  0.0000000  0.6508444  3
    616    615    622    635     1  0.0000000  0.6508444  3
    616    615    622    636     1  0.0000000  0.6508444  3
    617    615    616    627     1  0.0000000  0.6508444  3
    617    615    616    628     1  0.0000000  0.6508444  3
    617    615    622    635     1  0.0000000  0.6508444  3
    617    615    622    636     1  0.0000000  0.6508444  3
    618    616    615    640     1  0.0000000  0.6508444  3
    618    619   1300   1315     1  180.0000771  10.4600000  2
    619    618    616    627     1  0.0000000  0.6508444  3
    619    618    616    628     1  0.0000000  0.6508444  3
    619   1300   1299   1313     1  0.0000000  0.0000000  2
    619   1300   1299   1314     1  0.0000000  0.0000000  2
    620    617    615    640     1  0.0000000  0.6508444  3
    620    621   1326   1341     1  180.0000771  10.4600000  2
    621    620    617    629     1  0.0000000  0.6508444  3
    621    620    617    630     1  0.0000000  0.6508444  3
    621   1326   1325   1339     1  0.0000000  0.0000000  2
    621   1326   1325   1340     1  0.0000000  0.0000000  2
    622    615    616    627     1  0.0000000  0.6508444  3
    622    615    616    628     1  0.0000000  0.6508444  3
    622    615    617    629     1  0.0000000  0.6508444  3
    622    615    617    630     1  0.0000000  0.6508444  3
    622    623    624    639     1  0.0000000  0.0000000  2
    623    622    615    640     1  0.0000000  0.6508444  3
    624    623    622    635     1  0.0000000  0.6508444  3
    624    623    622    636     1  0.0000000  0.6508444  3
    625    619    618    631     1  0.0000000  3.3472000  1
    625    619    618    631     1  0.0000000  0.0000000  2
    625    619    618    631     1  180.0000771  0.3347200  3
    625    619    618    632     1  0.0000000  3.3472000  1
    625    619    618    632     1  0.0000000  0.0000000  2
    625    619    618    632     1  180.0000771  0.3347200  3
    625    619   1300   1315     1  0.0000000  8.3680000  1
    625    619   1300   1315     1  180.0000771  10.4600000  2
    626    621    620    633     1  0.0000000  3.3472000  1
    626    621    620    633     1  0.0000000  0.0000000  2
    626    621    620    633     1  180.0000771  0.3347200  3
    626    621    620    634     1  0.0000000  3.3472000  1
    626    621    620    634     1  0.0000000  0.0000000  2
    626    621    620    634     1  180.0000771  0.3347200  3
    626    621   1326   1341     1  0.0000000  8.3680000  1
    626    621   1326   1341     1  180.0000771  10.4600000  2
    627    616    615    640     1  0.0000000  0.6508444  3
    627    616    618    631     1  0.0000000  0.6508444  3
    627    616    618    632     1  0.0000000  0.6508444  3
    628    616    615    640     1  0.0000000  0.6508444  3
    628    616    618    631     1  0.0000000  0.6508444  3
    628    616    618    632     1  0.0000000  0.6508444  3
    629    617    615    640     1  0.0000000  0.6508444  3
    629    617    620    633     1  0.0000000  0.6508444  3
    629    617    620    634     1  0.0000000  0.6508444  3
    630    617    615    640     1  0.0000000  0.6508444  3
    630    617    620    633     1  0.0000000  0.6508444  3
    630    617    620    634     1  0.0000000  0.6508444  3
    631    618    619   1300     1  180.0000771  0.0000000  2
    632    618    619   1300     1  180.0000771  0.0000000  2
    633    620    621   1326     1  180.0000771  0.0000000  2
    634    620    621   1326     1  180.0000771  0.0000000  2
    635    622    615    640     1  0.0000000  0.6508444  3
    635    622    623    637     1  0.0000000  0.6508444  3
    635    622    623    638     1  0.0000000  0.6508444  3
    636    622    615    640     1  0.0000000  0.6508444  3
    636    622    623    637     1  0.0000000  0.6508444  3
    636    622    623    638     1  0.0000000  0.6508444  3
    637    623    624    639     1  0.0000000  0.0000000  2
    638    623    624    639     1  0.0000000  0.0000000  2
    641    642    644    657     1  0.0000000  0.6508444  3
    641    642    644    658     1  0.0000000  0.6508444  3
    641    643    646    659     1  0.0000000  0.6508444  3
    641    643    646    660     1  0.0000000  0.6508444  3
    641    648    649    663     1  0.0000000  0.6508444  3
    641    648    649    664     1  0.0000000  0.6508444  3
    642    641    643    655     1  0.0000000  0.6508444  3
    642    641    643    656     1  0.0000000  0.6508444  3
    642    641    648    661     1  0.0000000  0.6508444  3
    642    641    648    662     1  0.0000000  0.6508444  3
    643    641    642    653     1  0.0000000  0.6508444  3
    643    641    642    654     1  0.0000000  0.6508444  3
    643    641    648    661     1  0.0000000  0.6508444  3
    643    641    648    662     1  0.0000000  0.6508444  3
    644    642    641    666     1  0.0000000  0.6508444  3
    644    645   1352   1367     1  180.0000771  10.4600000  2
    645    644    642    653     1  0.0000000  0.6508444  3
    645    644    642    654     1  0.0000000  0.6508444  3
    645   1352   1351   1365     1  0.0000000  0.0000000  2
    645   1352   1351   1366     1  0.0000000  0.0000000  2
    646    643    641    666     1  0.0000000  0.6508444  3
    646    647   1378   1393     1  180.0000771  10.4600000  2
    647    646    643    655     1  0.0000000  0.6508444  3
    647    646    643    656     1  0.0000000  0.6508444  3
    647   1378   1377   1391     1  0.0000000  0.0000000  2
    647   1378   1377   1392     1  0.0000000  0.0000000  2
    648    641    642    653     1  0.0000000  0.6508444  3
    648    641    642    654     1  0.0000000  0.6508444  3
    648    641    643    655     1  0.0000000  0.6508444  3
    648    641    643    656     1  0.0000000  0.6508444  3
    648    649    650    665     1  0.0000000  0.0000000  2
    649    648    641    666     1  0.0000000  0.6508444  3
    650    649    648    661     1  0.0000000  0.6508444  3
    650    649    648    662     1  0.0000000  0.6508444  3
    651    645    644    657     1  0.0000000  3.3472000  1
    651    645    644    657     1  0.0000000  0.0000000  2
    651    645    644    657     1  180.0000771  0.3347200  3
    651    645    644    658     1  0.0000000  3.3472000  1
    651    645    644    658     1  0.0000000  0.0000000  2
    651    645    644    658     1  180.0000771  0.3347200  3
    651    645   1352   1367     1  0.0000000  8.3680000  1
    651    645   1352   1367     1  180.0000771  10.4600000  2
    652    647    646    659     1  0.0000000  3.3472000  1
    652    647    646    659     1  0.0000000  0.0000000  2
    652    647    646    659     1  180.0000771  0.3347200  3
    652    647    646    660     1  0.0000000  3.3472000  1
    652    647    646    660     1  0.0000000  0.0000000  2
    652    647    646    660     1  180.0000771  0.3347200  3
    652    647   1378   1393     1  0.0000000  8.3680000  1
    652    647   1378   1393     1  180.0000771  10.4600000  2
    653    642    641    666     1  0.0000000  0.6508444  3
    653    642    644    657     1  0.0000000  0.6508444  3
    653    642    644    658     1  0.0000000  0.6508444  3
    654    642    641    666     1  0.0000000  0.6508444  3
    654    642    644    657     1  0.0000000  0.6508444  3
    654    642    644    658     1  0.0000000  0.6508444  3
    655    643    641    666     1  0.0000000  0.6508444  3
    655    643    646    659     1  0.0000000  0.6508444  3
    655    643    646    660     1  0.0000000  0.6508444  3
    656    643    641    666     1  0.0000000  0.6508444  3
    656    643    646    659     1  0.0000000  0.6508444  3
    656    643    646    660     1  0.0000000  0.6508444  3
    657    644    645   1352     1  180.0000771  0.0000000  2
    658    644    645   1352     1  180.0000771  0.0000000  2
    659    646    647   1378     1  180.0000771  0.0000000  2
    660    646    647   1378     1  180.0000771  0.0000000  2
    661    648    641    666     1  0.0000000  0.6508444  3
    661    648    649    663     1  0.0000000  0.6508444  3
    661    648    649    664     1  0.0000000  0.6508444  3
    662    648    641    666     1  0.0000000  0.6508444  3
    662    648    649    663     1  0.0000000  0.6508444  3
    662    648    649    664     1  0.0000000  0.6508444  3
    663    649    650    665     1  0.0000000  0.0000000  2
    664    649    650    665     1  0.0000000  0.0000000  2
    667    668    670    683     1  0.0000000  0.6508444  3
    667    668    670    684     1  0.0000000  0.6508444  3
    667    669    672    685     1  0.0000000  0.6508444  3
    667    669    672    686     1  0.0000000  0.6508444  3
    667    674    675    689     1  0.0000000  0.6508444  3
    667    674    675    690     1  0.0000000  0.6508444  3
    668    667    669    681     1  0.0000000  0.6508444  3
    668    667    669    682     1  0.0000000  0.6508444  3
    668    667    674    687     1  0.0000000  0.6508444  3
    668    667    674    688     1  0.0000000  0.6508444  3
    669    667    668    679     1  0.0000000  0.6508444  3
    669    667    668    680     1  0.0000000  0.6508444  3
    669    667    674    687     1  0.0000000  0.6508444  3
    669    667    674    688     1  0.0000000  0.6508444  3
    670    668    667    692     1  0.0000000  0.6508444  3
    670    671   1404   1419     1  180.0000771  10.4600000  2
    671    670    668    679     1  0.0000000  0.6508444  3
    671    670    668    680     1  0.0000000  0.6508444  3
    671   1404   1403   1417     1  0.0000000  0.0000000  2
    671   1404   1403   1418     1  0.0000000  0.0000000  2
    672    669    667    692     1  0.0000000  0.6508444  3
    672    673   1430   1445     1  180.0000771  10.4600000  2
    673    672    669    681     1  0.0000000  0.6508444  3
    673    672    669    682     1  0.0000000  0.6508444  3
    673   1430   1429   1443     1  0.0000000  0.0000000  2
    673   1430   1429   1444     1  0.0000000  0.0000000  2
    674    667    668    679     1  0.0000000  0.6508444  3
    674    667    668    680     1  0.0000000  0.6508444  3
    674    667    669    681     1  0.0000000  0.6508444  3
    674    667    669    682     1  0.0000000  0.6508444  3
    674    675    676    691     1  0.0000000  0.0000000  2
    675    674    667    692     1  0.0000000  0.6508444  3
    676    675    674    687     1  0.0000000  0.6508444  3
    676    675    674    688     1  0.0000000  0.6508444  3
    677    671    670    683     1  0.0000000  3.3472000  1
    677    671    670    683     1  0.0000000  0.0000000  2
    677    671    670    683     1  180.0000771  0.3347200  3
    677    671    670    684     1  0.0000000  3.3472000  1
    677    671    670    684     1  0.0000000  0.0000000  2
    677    671    670    684     1  180.0000771  0.3347200  3
    677    671   1404   1419     1  0.0000000  8.3680000  1
    677    671   1404   1419     1  180.0000771  10.4600000  2
    678    673    672    685     1  0.0000000  3.3472000  1
    678    673    672    685     1  0.0000000  0.0000000  2
    678    673    672    685     1  180.0000771  0.3347200  3
    678    673    672    686     1  0.0000000  3.3472000  1
    678    673    672    686     1  0.0000000  0.0000000  2
    678    673    672    686     1  180.0000771  0.3347200  3
    678    673   1430   1445     1  0.0000000  8.3680000  1
    678    673   1430   1445     1  180.0000771  10.4600000  2
    679    668    667    692     1  0.0000000  0.6508444  3
    679    668    670    683     1  0.0000000  0.6508444  3
    679    668    670    684     1  0.0000000  0.6508444  3
    680    668    667    692     1  0.0000000  0.6508444  3
    680    668    670    683     1  0.0000000  0.6508444  3
    680    668    670    684     1  0.0000000  0.6508444  3
    681    669    667    692     1  0.0000000  0.6508444  3
    681    669    672    685     1  0.0000000  0.6508444  3
    681    669    672    686     1  0.0000000  0.6508444  3
    682    669    667    692     1  0.0000000  0.6508444  3
    682    669    672    685     1  0.0000000  0.6508444  3
    682    669    672    686     1  0.0000000  0.6508444  3
    683    670    671   1404     1  180.0000771  0.0000000  2
    684    670    671   1404     1  180.0000771  0.0000000  2
    685    672    673   1430     1  180.0000771  0.0000000  2
    686    672    673   1430     1  180.0000771  0.0000000  2
    687    674    667    692     1  0.0000000  0.6508444  3
    687    674    675    689     1  0.0000000  0.6508444  3
    687    674    675    690     1  0.0000000  0.6508444  3
    688    674    667    692     1  0.0000000  0.6508444  3
    688    674    675    689     1  0.0000000  0.6508444  3
    688    674    675    690     1  0.0000000  0.6508444  3
    689    675    676    691     1  0.0000000  0.0000000  2
    690    675    676    691     1  0.0000000  0.0000000  2
    693    694    696    709     1  0.0000000  0.6508444  3
    693    694    696    710     1  0.0000000  0.6508444  3
    693    695    698    711     1  0.0000000  0.6508444  3
    693    695    698    712     1  0.0000000  0.6508444  3
    693    700    701    715     1  0.0000000  0.6508444  3
    693    700    701    716     1  0.0000000  0.6508444  3
    694    693    695    707     1  0.0000000  0.6508444  3
    694    693    695    708     1  0.0000000  0.6508444  3
    694    693    700    713     1  0.0000000  0.6508444  3
    694    693    700    714     1  0.0000000  0.6508444  3
    695    693    694    705     1  0.0000000  0.6508444  3
    695    693    694    706     1  0.0000000  0.6508444  3
    695    693    700    713     1  0.0000000  0.6508444  3
    695    693    700    714     1  0.0000000  0.6508444  3
    696    694    693    718     1  0.0000000  0.6508444  3
    696    697   1456   1471     1  180.0000771  10.4600000  2
    697    696    694    705     1  0.0000000  0.6508444  3
    697    696    694    706     1  0.0000000  0.6508444  3
    697   1456   1455   1469     1  0.0000000  0.0000000  2
    697   1456   1455   1470     1  0.0000000  0.0000000  2
    698    695    693    718     1  0.0000000  0.6508444  3
    698    699   1482   1497     1  180.0000771  10.4600000  2
    699    698    695    707     1  0.0000000  0.6508444  3
    699    698    695    708     1  0.0000000  0.6508444  3
    699   1482   1481   1495     1  0.0000000  0.0000000  2
    699   1482   1481   1496     1  0.0000000  0.0000000  2
    700    693    694    705     1  0.0000000  0.6508444  3
    700    693    694    706     1  0.0000000  0.6508444  3
    700    693    695    707     1  0.0000000  0.6508444  3
    700    693    695    708     1  0.0000000  0.6508444  3
    700    701    702    717     1  0.0000000  0.0000000  2
    701    700    693    718     1  0.0000000  0.6508444  3
    702    701    700    713     1  0.0000000  0.6508444  3
    702    701    700    714     1  0.0000000  0.6508444  3
    703    697    696    709     1  0.0000000  3.3472000  1
    703    697    696    709     1  0.0000000  0.0000000  2
    703    697    696    709     1  180.0000771  0.3347200  3
    703    697    696    710     1  0.0000000  3.3472000  1
    703    697    696    710     1  0.0000000  0.0000000  2
    703    697    696    710     1  180.0000771  0.3347200  3
    703    697   1456   1471     1  0.0000000  8.3680000  1
    703    697   1456   1471     1  180.0000771  10.4600000  2
    704    699    698    711     1  0.0000000  3.3472000  1
    704    699    698    711     1  0.0000000  0.0000000  2
    704    699    698    711     1  180.0000771  0.3347200  3
    704    699    698    712     1  0.0000000  3.3472000  1
    704    699    698    712     1  0.0000000  0.0000000  2
    704    699    698    712     1  180.0000771  0.3347200  3
    704    699   1482   1497     1  0.0000000  8.3680000  1
    704    699   1482   1497     1  180.0000771  10.4600000  2
    705    694    693    718     1  0.0000000  0.6508444  3
    705    694    696    709     1  0.0000000  0.6508444  3
    705    694    696    710     1  0.0000000  0.6508444  3
    706    694    693    718     1  0.0000000  0.6508444  3
    706    694    696    709     1  0.0000000  0.6508444  3
    706    694    696    710     1  0.0000000  0.6508444  3
    707    695    693    718     1  0.0000000  0.6508444  3
    707    695    698    711     1  0.0000000  0.6508444  3
    707    695    698    712     1  0.0000000  0.6508444  3
    708    695    693    718     1  0.0000000  0.6508444  3
    708    695    698    711     1  0.0000000  0.6508444  3
    708    695    698    712     1  0.0000000  0.6508444  3
    709    696    697   1456     1  180.0000771  0.0000000  2
    710    696    697   1456     1  180.0000771  0.0000000  2
    711    698    699   1482     1  180.0000771  0.0000000  2
    712    698    699   1482     1  180.0000771  0.0000000  2
    713    700    693    718     1  0.0000000  0.6508444  3
    713    700    701    715     1  0.0000000  0.6508444  3
    713    700    701    716     1  0.0000000  0.6508444  3
    714    700    693    718     1  0.0000000  0.6508444  3
    714    700    701    715     1  0.0000000  0.6508444  3
    714    700    701    716     1  0.0000000  0.6508444  3
    715    701    702    717     1  0.0000000  0.0000000  2
    716    701    702    717     1  0.0000000  0.0000000  2
    719    720    722    735     1  0.0000000  0.6508444  3
    719    720    722    736     1  0.0000000  0.6508444  3
    719    721    724    737     1  0.0000000  0.6508444  3
    719    721    724    738     1  0.0000000  0.6508444  3
    719    726    727    741     1  0.0000000  0.6508444  3
    719    726    727    742     1  0.0000000  0.6508444  3
    720    719    721    733     1  0.0000000  0.6508444  3
    720    719    721    734     1  0.0000000  0.6508444  3
    720    719    726    739     1  0.0000000  0.6508444  3
    720    719    726    740     1  0.0000000  0.6508444  3
    721    719    720    731     1  0.0000000  0.6508444  3
    721    719    720    732     1  0.0000000  0.6508444  3
    721    719    726    739     1  0.0000000  0.6508444  3
    721    719    726    740     1  0.0000000  0.6508444  3
    722    720    719    744     1  0.0000000  0.6508444  3
    722    723   1508   1523     1  180.0000771  10.4600000  2
    723    722    720    731     1  0.0000000  0.6508444  3
    723    722    720    732     1  0.0000000  0.6508444  3
    723   1508   1507   1521     1  0.0000000  0.0000000  2
    723   1508   1507   1522     1  0.0000000  0.0000000  2
    724    721    719    744     1  0.0000000  0.6508444  3
    724    725   1534   1549     1  180.0000771  10.4600000  2
    725    724    721    733     1  0.0000000  0.6508444  3
    725    724    721    734     1  0.0000000  0.6508444  3
    725   1534   1533   1547     1  0.0000000  0.0000000  2
    725   1534   1533   1548     1  0.0000000  0.0000000  2
    726    719    720    731     1  0.0000000  0.6508444  3
    726    719    720    732     1  0.0000000  0.6508444  3
    726    719    721    733     1  0.0000000  0.6508444  3
    726    719    721    734     1  0.0000000  0.6508444  3
    726    727    728    743     1  0.0000000  0.0000000  2
    727    726    719    744     1  0.0000000  0.6508444  3
    728    727    726    739     1  0.0000000  0.6508444  3
    728    727    726    740     1  0.0000000  0.6508444  3
    729    723    722    735     1  0.0000000  3.3472000  1
    729    723    722    735     1  0.0000000  0.0000000  2
    729    723    722    735     1  180.0000771  0.3347200  3
    729    723    722    736     1  0.0000000  3.3472000  1
    729    723    722    736     1  0.0000000  0.0000000  2
    729    723    722    736     1  180.0000771  0.3347200  3
    729    723   1508   1523     1  0.0000000  8.3680000  1
    729    723   1508   1523     1  180.0000771  10.4600000  2
    730    725    724    737     1  0.0000000  3.3472000  1
    730    725    724    737     1  0.0000000  0.0000000  2
    730    725    724    737     1  180.0000771  0.3347200  3
    730    725    724    738     1  0.0000000  3.3472000  1
    730    725    724    738     1  0.0000000  0.0000000  2
    730    725    724    738     1  180.0000771  0.3347200  3
    730    725   1534   1549     1  0.0000000  8.3680000  1
    730    725   1534   1549     1  180.0000771  10.4600000  2
    731    720    719    744     1  0.0000000  0.6508444  3
    731    720    722    735     1  0.0000000  0.6508444  3
    731    720    722    736     1  0.0000000  0.6508444  3
    732    720    719    744     1  0.0000000  0.6508444  3
    732    720    722    735     1  0.0000000  0.6508444  3
    732    720    722    736     1  0.0000000  0.6508444  3
    733    721    719    744     1  0.0000000  0.6508444  3
    733    721    724    737     1  0.0000000  0.6508444  3
    733    721    724    738     1  0.0000000  0.6508444  3
    734    721    719    744     1  0.0000000  0.6508444  3
    734    721    724    737     1  0.0000000  0.6508444  3
    734    721    724    738     1  0.0000000  0.6508444  3
    735    722    723   1508     1  180.0000771  0.0000000  2
    736    722    723   1508     1  180.0000771  0.0000000  2
    737    724    725   1534     1  180.0000771  0.0000000  2
    738    724    725   1534     1  180.0000771  0.0000000  2
    739    726    719    744     1  0.0000000  0.6508444  3
    739    726    727    741     1  0.0000000  0.6508444  3
    739    726    727    742     1  0.0000000  0.6508444  3
    740    726    719    744     1  0.0000000  0.6508444  3
    740    726    727    741     1  0.0000000  0.6508444  3
    740    726    727    742     1  0.0000000  0.6508444  3
    741    727    728    743     1  0.0000000  0.0000000  2
    742    727    728    743     1  0.0000000  0.0000000  2
    745    746    748    761     1  0.0000000  0.6508444  3
    745    746    748    762     1  0.0000000  0.6508444  3
    745    747    750    763     1  0.0000000  0.6508444  3
    745    747    750    764     1  0.0000000  0.6508444  3
    745    752    753    767     1  0.0000000  0.6508444  3
    745    752    753    768     1  0.0000000  0.6508444  3
    746    745    747    759     1  0.0000000  0.6508444  3
    746    745    747    760     1  0.0000000  0.6508444  3
    746    745    752    765     1  0.0000000  0.6508444  3
    746    745    752    766     1  0.0000000  0.6508444  3
    747    745    746    757     1  0.0000000  0.6508444  3
    747    745    746    758     1  0.0000000  0.6508444  3
    747    745    752    765     1  0.0000000  0.6508444  3
    747    745    752    766     1  0.0000000  0.6508444  3
    748    746    745    770     1  0.0000000  0.6508444  3
    748    749   1560   1575     1  180.0000771  10.4600000  2
    749    748    746    757     1  0.0000000  0.6508444  3
    749    748    746    758     1  0.0000000  0.6508444  3
    749   1560   1559   1573     1  0.0000000  0.0000000  2
    749   1560   1559   1574     1  0.0000000  0.0000000  2
    750    747    745    770     1  0.0000000  0.6508444  3
    750    751   1586   1601     1  180.0000771  10.4600000  2
    751    750    747    759     1  0.0000000  0.6508444  3
    751    750    747    760     1  0.0000000  0.6508444  3
    751   1586   1585   1599     1  0.0000000  0.0000000  2
    751   1586   1585   1600     1  0.0000000  0.0000000  2
    752    745    746    757     1  0.0000000  0.6508444  3
    752    745    746    758     1  0.0000000  0.6508444  3
    752    745    747    759     1  0.0000000  0.6508444  3
    752    745    747    760     1  0.0000000  0.6508444  3
    752    753    754    769     1  0.0000000  0.0000000  2
    753    752    745    770     1  0.0000000  0.6508444  3
    754    753    752    765     1  0.0000000  0.6508444  3
    754    753    752    766     1  0.0000000  0.6508444  3
    755    749    748    761     1  0.0000000  3.3472000  1
    755    749    748    761     1  0.0000000  0.0000000  2
    755    749    748    761     1  180.0000771  0.3347200  3
    755    749    748    762     1  0.0000000  3.3472000  1
    755    749    748    762     1  0.0000000  0.0000000  2
    755    749    748    762     1  180.0000771  0.3347200  3
    755    749   1560   1575     1  0.0000000  8.3680000  1
    755    749   1560   1575     1  180.0000771  10.4600000  2
    756    751    750    763     1  0.0000000  3.3472000  1
    756    751    750    763     1  0.0000000  0.0000000  2
    756    751    750    763     1  180.0000771  0.3347200  3
    756    751    750    764     1  0.0000000  3.3472000  1
    756    751    750    764     1  0.0000000  0.0000000  2
    756    751    750    764     1  180.0000771  0.3347200  3
    756    751   1586   1601     1  0.0000000  8.3680000  1
    756    751   1586   1601     1  180.0000771  10.4600000  2
    757    746    745    770     1  0.0000000  0.6508444  3
    757    746    748    761     1  0.0000000  0.6508444  3
    757    746    748    762     1  0.0000000  0.6508444  3
    758    746    745    770     1  0.0000000  0.6508444  3
    758    746    748    761     1  0.0000000  0.6508444  3
    758    746    748    762     1  0.0000000  0.6508444  3
    759    747    745    770     1  0.0000000  0.6508444  3
    759    747    750    763     1  0.0000000  0.6508444  3
    759    747    750    764     1  0.0000000  0.6508444  3
    760    747    745    770     1  0.0000000  0.6508444  3
    760    747    750    763     1  0.0000000  0.6508444  3
    760    747    750    764     1  0.0000000  0.6508444  3
    761    748    749   1560     1  180.0000771  0.0000000  2
    762    748    749   1560     1  180.0000771  0.0000000  2
    763    750    751   1586     1  180.0000771  0.0000000  2
    764    750    751   1586     1  180.0000771  0.0000000  2
    765    752    745    770     1  0.0000000  0.6508444  3
    765    752    753    767     1  0.0000000  0.6508444  3
    765    752    753    768     1  0.0000000  0.6508444  3
    766    752    745    770     1  0.0000000  0.6508444  3
    766    752    753    767     1  0.0000000  0.6508444  3
    766    752    753    768     1  0.0000000  0.6508444  3
    767    753    754    769     1  0.0000000  0.0000000  2
    768    753    754    769     1  0.0000000  0.0000000  2
    771    772    774    787     1  0.0000000  0.6508444  3
    771    772    774    788     1  0.0000000  0.6508444  3
    771    773    776    789     1  0.0000000  0.6508444  3
    771    773    776    790     1  0.0000000  0.6508444  3
    771    778    779    793     1  0.0000000  0.6508444  3
    771    778    779    794     1  0.0000000  0.6508444  3
    772    771    773    785     1  0.0000000  0.6508444  3
    772    771    773    786     1  0.0000000  0.6508444  3
    772    771    778    791     1  0.0000000  0.6508444  3
    772    771    778    792     1  0.0000000  0.6508444  3
    773    771    772    783     1  0.0000000  0.6508444  3
    773    771    772    784     1  0.0000000  0.6508444  3
    773    771    778    791     1  0.0000000  0.6508444  3
    773    771    778    792     1  0.0000000  0.6508444  3
    774    772    771    796     1  0.0000000  0.6508444  3
    774    775   1612   1627     1  180.0000771  10.4600000  2
    775    774    772    783     1  0.0000000  0.6508444  3
    775    774    772    784     1  0.0000000  0.6508444  3
    775   1612   1611   1625     1  0.0000000  0.0000000  2
    775   1612   1611   1626     1  0.0000000  0.0000000  2
    776    773    771    796     1  0.0000000  0.6508444  3
    776    777   1638   1653     1  180.0000771  10.4600000  2
    777    776    773    785     1  0.0000000  0.6508444  3
    777    776    773    786     1  0.0000000  0.6508444  3
    777   1638   1637   1651     1  0.0000000  0.0000000  2
    777   1638   1637   1652     1  0.0000000  0.0000000  2
    778    771    772    783     1  0.0000000  0.6508444  3
    778    771    772    784     1  0.0000000  0.6508444  3
    778    771    773    785     1  0.0000000  0.6508444  3
    778    771    773    786     1  0.0000000  0.6508444  3
    778    779    780    795     1  0.0000000  0.0000000  2
    779    778    771    796     1  0.0000000  0.6508444  3
    780    779    778    791     1  0.0000000  0.6508444  3
    780    779    778    792     1  0.0000000  0.6508444  3
    781    775    774    787     1  0.0000000  3.3472000  1
    781    775    774    787     1  0.0000000  0.0000000  2
    781    775    774    787     1  180.0000771  0.3347200  3
    781    775    774    788     1  0.0000000  3.3472000  1
    781    775    774    788     1  0.0000000  0.0000000  2
    781    775    774    788     1  180.0000771  0.3347200  3
    781    775   1612   1627     1  0.0000000  8.3680000  1
    781    775   1612   1627     1  180.0000771  10.4600000  2
    782    777    776    789     1  0.0000000  3.3472000  1
    782    777    776    789     1  0.0000000  0.0000000  2
    782    777    776    789     1  180.0000771  0.3347200  3
    782    777    776    790     1  0.0000000  3.3472000  1
    782    777    776    790     1  0.0000000  0.0000000  2
    782    777    776    790     1  180.0000771  0.3347200  3
    782    777   1638   1653     1  0.0000000  8.3680000  1
    782    777   1638   1653     1  180.0000771  10.4600000  2
    783    772    771    796     1  0.0000000  0.6508444  3
    783    772    774    787     1  0.0000000  0.6508444  3
    783    772    774    788     1  0.0000000  0.6508444  3
    784    772    771    796     1  0.0000000  0.6508444  3
    784    772    774    787     1  0.0000000  0.6508444  3
    784    772    774    788     1  0.0000000  0.6508444  3
    785    773    771    796     1  0.0000000  0.6508444  3
    785    773    776    789     1  0.0000000  0.6508444  3
    785    773    776    790     1  0.0000000  0.6508444  3
    786    773    771    796     1  0.0000000  0.6508444  3
    786    773    776    789     1  0.0000000  0.6508444  3
    786    773    776    790     1  0.0000000  0.6508444  3
    787    774    775   1612     1  180.0000771  0.0000000  2
    788    774    775   1612     1  180.0000771  0.0000000  2
    789    776    777   1638     1  180.0000771  0.0000000  2
    790    776    777   1638     1  180.0000771  0.0000000  2
    791    778    771    796     1  0.0000000  0.6508444  3
    791    778    779    793     1  0.0000000  0.6508444  3
    791    778    779    794     1  0.0000000  0.6508444  3
    792    778    771    796     1  0.0000000  0.6508444  3
    792    778    779    793     1  0.0000000  0.6508444  3
    792    778    779    794     1  0.0000000  0.6508444  3
    793    779    780    795     1  0.0000000  0.0000000  2
    794    779    780    795     1  0.0000000  0.0000000  2
    797    798    800    813     1  0.0000000  0.6508444  3
    797    798    800    814     1  0.0000000  0.6508444  3
    797    799    802    815     1  0.0000000  0.6508444  3
    797    799    802    816     1  0.0000000  0.6508444  3
    797    804    805    819     1  0.0000000  0.6508444  3
    797    804    805    820     1  0.0000000  0.6508444  3
    798    797    799    811     1  0.0000000  0.6508444  3
    798    797    799    812     1  0.0000000  0.6508444  3
    798    797    804    817     1  0.0000000  0.6508444  3
    798    797    804    818     1  0.0000000  0.6508444  3
    799    797    798    809     1  0.0000000  0.6508444  3
    799    797    798    810     1  0.0000000  0.6508444  3
    799    797    804    817     1  0.0000000  0.6508444  3
    799    797    804    818     1  0.0000000  0.6508444  3
    800    798    797    822     1  0.0000000  0.6508444  3
    800    801   1664   1679     1  180.0000771  10.4600000  2
    801    800    798    809     1  0.0000000  0.6508444  3
    801    800    798    810     1  0.0000000  0.6508444  3
    801   1664   1663   1677     1  0.0000000  0.0000000  2
    801   1664   1663   1678     1  0.0000000  0.0000000  2
    802    799    797    822     1  0.0000000  0.6508444  3
    802    803   1690   1705     1  180.0000771  10.4600000  2
    803    802    799    811     1  0.0000000  0.6508444  3
    803    802    799    812     1  0.0000000  0.6508444  3
    803   1690   1689   1703     1  0.0000000  0.0000000  2
    803   1690   1689   1704     1  0.0000000  0.0000000  2
    804    797    798    809     1  0.0000000  0.6508444  3
    804    797    798    810     1  0.0000000  0.6508444  3
    804    797    799    811     1  0.0000000  0.6508444  3
    804    797    799    812     1  0.0000000  0.6508444  3
    804    805    806    821     1  0.0000000  0.0000000  2
    805    804    797    822     1  0.0000000  0.6508444  3
    806    805    804    817     1  0.0000000  0.6508444  3
    806    805    804    818     1  0.0000000  0.6508444  3
    807    801    800    813     1  0.0000000  3.3472000  1
    807    801    800    813     1  0.0000000  0.0000000  2
    807    801    800    813     1  180.0000771  0.3347200  3
    807    801    800    814     1  0.0000000  3.3472000  1
    807    801    800    814     1  0.0000000  0.0000000  2
    807    801    800    814     1  180.0000771  0.3347200  3
    807    801   1664   1679     1  0.0000000  8.3680000  1
    807    801   1664   1679     1  180.0000771  10.4600000  2
    808    803    802    815     1  0.0000000  3.3472000  1
    808    803    802    815     1  0.0000000  0.0000000  2
    808    803    802    815     1  180.0000771  0.3347200  3
    808    803    802    816     1  0.0000000  3.3472000  1
    808    803    802    816     1  0.0000000  0.0000000  2
    808    803    802    816     1  180.0000771  0.3347200  3
    808    803   1690   1705     1  0.0000000  8.3680000  1
    808    803   1690   1705     1  180.0000771  10.4600000  2
    809    798    797    822     1  0.0000000  0.6508444  3
    809    798    800    813     1  0.0000000  0.6508444  3
    809    798    800    814     1  0.0000000  0.6508444  3
    810    798    797    822     1  0.0000000  0.6508444  3
    810    798    800    813     1  0.0000000  0.6508444  3
    810    798    800    814     1  0.0000000  0.6508444  3
    811    799    797    822     1  0.0000000  0.6508444  3
    811    799    802    815     1  0.0000000  0.6508444  3
    811    799    802    816     1  0.0000000  0.6508444  3
    812    799    797    822     1  0.0000000  0.6508444  3
    812    799    802    815     1  0.0000000  0.6508444  3
    812    799    802    816     1  0.0000000  0.6508444  3
    813    800    801   1664     1  180.0000771  0.0000000  2
    814    800    801   1664     1  180.0000771  0.0000000  2
    815    802    803   1690     1  180.0000771  0.0000000  2
    816    802    803   1690     1  180.0000771  0.0000000  2
    817    804    797    822     1  0.0000000  0.6508444  3
    817    804    805    819     1  0.0000000  0.6508444  3
    817    804    805    820     1  0.0000000  0.6508444  3
    818    804    797    822     1  0.0000000  0.6508444  3
    818    804    805    819     1  0.0000000  0.6508444  3
    818    804    805    820     1  0.0000000  0.6508444  3
    819    805    806    821     1  0.0000000  0.0000000  2
    820    805    806    821     1  0.0000000  0.0000000  2
    823    824    826    839     1  0.0000000  0.6508444  3
    823    824    826    840     1  0.0000000  0.6508444  3
    823    825    828    841     1  0.0000000  0.6508444  3
    823    825    828    842     1  0.0000000  0.6508444  3
    823    830    831    845     1  0.0000000  0.6508444  3
    823    830    831    846     1  0.0000000  0.6508444  3
    824    823    825    837     1  0.0000000  0.6508444  3
    824    823    825    838     1  0.0000000  0.6508444  3
    824    823    830    843     1  0.0000000  0.6508444  3
    824    823    830    844     1  0.0000000  0.6508444  3
    825    823    824    835     1  0.0000000  0.6508444  3
    825    823    824    836     1  0.0000000  0.6508444  3
    825    823    830    843     1  0.0000000  0.6508444  3
    825    823    830    844     1  0.0000000  0.6508444  3
    826    824    823    848     1  0.0000000  0.6508444  3
    826    827   1716   1731     1  180.0000771  10.4600000  2
    827    826    824    835     1  0.0000000  0.6508444  3
    827    826    824    836     1  0.0000000  0.6508444  3
    827   1716   1715   1729     1  0.0000000  0.0000000  2
    827   1716   1715   1730     1  0.0000000  0.0000000  2
    828    825    823    848     1  0.0000000  0.6508444  3
    828    829   1742   1757     1  180.0000771  10.4600000  2
    829    828    825    837     1  0.0000000  0.6508444  3
    829    828    825    838     1  0.0000000  0.6508444  3
    829   1742   1741   1755     1  0.0000000  0.0000000  2
    829   1742   1741   1756     1  0.0000000  0.0000000  2
    830    823    824    835     1  0.0000000  0.6508444  3
    830    823    824    836     1  0.0000000  0.6508444  3
    830    823    825    837     1  0.0000000  0.6508444  3
    830    823    825    838     1  0.0000000  0.6508444  3
    830    831    832    847     1  0.0000000  0.0000000  2
    831    830    823    848     1  0.0000000  0.6508444  3
    832    831    830    843     1  0.0000000  0.6508444  3
    832    831    830    844     1  0.0000000  0.6508444  3
    833    827    826    839     1  0.0000000  3.3472000  1
    833    827    826    839     1  0.0000000  0.0000000  2
    833    827    826    839     1  180.0000771  0.3347200  3
    833    827    826    840     1  0.0000000  3.3472000  1
    833    827    826    840     1  0.0000000  0.0000000  2
    833    827    826    840     1  180.0000771  0.3347200  3
    833    827   1716   1731     1  0.0000000  8.3680000  1
    833    827   1716   1731     1  180.0000771  10.4600000  2
    834    829    828    841     1  0.0000000  3.3472000  1
    834    829    828    841     1  0.0000000  0.0000000  2
    834    829    828    841     1  180.0000771  0.3347200  3
    834    829    828    842     1  0.0000000  3.3472000  1
    834    829    828    842     1  0.0000000  0.0000000  2
    834    829    828    842     1  180.0000771  0.3347200  3
    834    829   1742   1757     1  0.0000000  8.3680000  1
    834    829   1742   1757     1  180.0000771  10.4600000  2
    835    824    823    848     1  0.0000000  0.6508444  3
    835    824    826    839     1  0.0000000  0.6508444  3
    835    824    826    840     1  0.0000000  0.6508444  3
    836    824    823    848     1  0.0000000  0.6508444  3
    836    824    826    839     1  0.0000000  0.6508444  3
    836    824    826    840     1  0.0000000  0.6508444  3
    837    825    823    848     1  0.0000000  0.6508444  3
    837    825    828    841     1  0.0000000  0.6508444  3
    837    825    828    842     1  0.0000000  0.6508444  3
    838    825    823    848     1  0.0000000  0.6508444  3
    838    825    828    841     1  0.0000000  0.6508444  3
    838    825    828    842     1  0.0000000  0.6508444  3
    839    826    827   1716     1  180.0000771  0.0000000  2
    840    826    827   1716     1  180.0000771  0.0000000  2
    841    828    829   1742     1  180.0000771  0.0000000  2
    842    828    829   1742     1  180.0000771  0.0000000  2
    843    830    823    848     1  0.0000000  0.6508444  3
    843    830    831    845     1  0.0000000  0.6508444  3
    843    830    831    846     1  0.0000000  0.6508444  3
    844    830    823    848     1  0.0000000  0.6508444  3
    844    830    831    845     1  0.0000000  0.6508444  3
    844    830    831    846     1  0.0000000  0.6508444  3
    845    831    832    847     1  0.0000000  0.0000000  2
    846    831    832    847     1  0.0000000  0.0000000  2
    849    850    852    865     1  0.0000000  0.6508444  3
    849    850    852    866     1  0.0000000  0.6508444  3
    849    851    854    867     1  0.0000000  0.6508444  3
    849    851    854    868     1  0.0000000  0.6508444  3
    849    856    857    871     1  0.0000000  0.6508444  3
    849    856    857    872     1  0.0000000  0.6508444  3
    850    849    851    863     1  0.0000000  0.6508444  3
    850    849    851    864     1  0.0000000  0.6508444  3
    850    849    856    869     1  0.0000000  0.6508444  3
    850    849    856    870     1  0.0000000  0.6508444  3
    851    849    850    861     1  0.0000000  0.6508444  3
    851    849    850    862     1  0.0000000  0.6508444  3
    851    849    856    869     1  0.0000000  0.6508444  3
    851    849    856    870     1  0.0000000  0.6508444  3
    852    850    849    874     1  0.0000000  0.6508444  3
    852    853   1768   1783     1  180.0000771  10.4600000  2
    853    852    850    861     1  0.0000000  0.6508444  3
    853    852    850    862     1  0.0000000  0.6508444  3
    853   1768   1767   1781     1  0.0000000  0.0000000  2
    853   1768   1767   1782     1  0.0000000  0.0000000  2
    854    851    849    874     1  0.0000000  0.6508444  3
    854    855   1794   1809     1  180.0000771  10.4600000  2
    855    854    851    863     1  0.0000000  0.6508444  3
    855    854    851    864     1  0.0000000  0.6508444  3
    855   1794   1793   1807     1  0.0000000  0.0000000  2
    855   1794   1793   1808     1  0.0000000  0.0000000  2
    856    849    850    861     1  0.0000000  0.6508444  3
    856    849    850    862     1  0.0000000  0.6508444  3
    856    849    851    863     1  0.0000000  0.6508444  3
    856    849    851    864     1  0.0000000  0.6508444  3
    856    857    858    873     1  0.0000000  0.0000000  2
    857    856    849    874     1  0.0000000  0.6508444  3
    858    857    856    869     1  0.0000000  0.6508444  3
    858    857    856    870     1  0.0000000  0.6508444  3
    859    853    852    865     1  0.0000000  3.3472000  1
    859    853    852    865     1  0.0000000  0.0000000  2
    859    853    852    865     1  180.0000771  0.3347200  3
    859    853    852    866     1  0.0000000  3.3472000  1
    859    853    852    866     1  0.0000000  0.0000000  2
    859    853    852    866     1  180.0000771  0.3347200  3
    859    853   1768   1783     1  0.0000000  8.3680000  1
    859    853   1768   1783     1  180.0000771  10.4600000  2
    860    855    854    867     1  0.0000000  3.3472000  1
    860    855    854    867     1  0.0000000  0.0000000  2
    860    855    854    867     1  180.0000771  0.3347200  3
    860    855    854    868     1  0.0000000  3.3472000  1
    860    855    854    868     1  0.0000000  0.0000000  2
    860    855    854    868     1  180.0000771  0.3347200  3
    860    855   1794   1809     1  0.0000000  8.3680000  1
    860    855   1794   1809     1  180.0000771  10.4600000  2
    861    850    849    874     1  0.0000000  0.6508444  3
    861    850    852    865     1  0.0000000  0.6508444  3
    861    850    852    866     1  0.0000000  0.6508444  3
    862    850    849    874     1  0.0000000  0.6508444  3
    862    850    852    865     1  0.0000000  0.6508444  3
    862    850    852    866     1  0.0000000  0.6508444  3
    863    851    849    874     1  0.0000000  0.6508444  3
    863    851    854    867     1  0.0000000  0.6508444  3
    863    851    854    868     1  0.0000000  0.6508444  3
    864    851    849    874     1  0.0000000  0.6508444  3
    864    851    854    867     1  0.0000000  0.6508444  3
    864    851    854    868     1  0.0000000  0.6508444  3
    865    852    853   1768     1  180.0000771  0.0000000  2
    866    852    853   1768     1  180.0000771  0.0000000  2
    867    854    855   1794     1  180.0000771  0.0000000  2
    868    854    855   1794     1  180.0000771  0.0000000  2
    869    856    849    874     1  0.0000000  0.6508444  3
    869    856    857    871     1  0.0000000  0.6508444  3
    869    856    857    872     1  0.0000000  0.6508444  3
    870    856    849    874     1  0.0000000  0.6508444  3
    870    856    857    871     1  0.0000000  0.6508444  3
    870    856    857    872     1  0.0000000  0.6508444  3
    871    857    858    873     1  0.0000000  0.0000000  2
    872    857    858    873     1  0.0000000  0.0000000  2
    875    876    878    891     1  0.0000000  0.6508444  3
    875    876    878    892     1  0.0000000  0.6508444  3
    875    877    880    893     1  0.0000000  0.6508444  3
    875    877    880    894     1  0.0000000  0.6508444  3
    875    882    883    897     1  0.0000000  0.6508444  3
    875    882    883    898     1  0.0000000  0.6508444  3
    876    875    877    889     1  0.0000000  0.6508444  3
    876    875    877    890     1  0.0000000  0.6508444  3
    876    875    882    895     1  0.0000000  0.6508444  3
    876    875    882    896     1  0.0000000  0.6508444  3
    877    875    876    887     1  0.0000000  0.6508444  3
    877    875    876    888     1  0.0000000  0.6508444  3
    877    875    882    895     1  0.0000000  0.6508444  3
    877    875    882    896     1  0.0000000  0.6508444  3
    878    876    875    900     1  0.0000000  0.6508444  3
    878    879   1820   1835     1  180.0000771  10.4600000  2
    879    878    876    887     1  0.0000000  0.6508444  3
    879    878    876    888     1  0.0000000  0.6508444  3
    879   1820   1819   1833     1  0.0000000  0.0000000  2
    879   1820   1819   1834     1  0.0000000  0.0000000  2
    880    877    875    900     1  0.0000000  0.6508444  3
    880    881   1846   1861     1  180.0000771  10.4600000  2
    881    880    877    889     1  0.0000000  0.6508444  3
    881    880    877    890     1  0.0000000  0.6508444  3
    881   1846   1845   1859     1  0.0000000  0.0000000  2
    881   1846   1845   1860     1  0.0000000  0.0000000  2
    882    875    876    887     1  0.0000000  0.6508444  3
    882    875    876    888     1  0.0000000  0.6508444  3
    882    875    877    889     1  0.0000000  0.6508444  3
    882    875    877    890     1  0.0000000  0.6508444  3
    882    883    884    899     1  0.0000000  0.0000000  2
    883    882    875    900     1  0.0000000  0.6508444  3
    884    883    882    895     1  0.0000000  0.6508444  3
    884    883    882    896     1  0.0000000  0.6508444  3
    885    879    878    891     1  0.0000000  3.3472000  1
    885    879    878    891     1  0.0000000  0.0000000  2
    885    879    878    891     1  180.0000771  0.3347200  3
    885    879    878    892     1  0.0000000  3.3472000  1
    885    879    878    892     1  0.0000000  0.0000000  2
    885    879    878    892     1  180.0000771  0.3347200  3
    885    879   1820   1835     1  0.0000000  8.3680000  1
    885    879   1820   1835     1  180.0000771  10.4600000  2
    886    881    880    893     1  0.0000000  3.3472000  1
    886    881    880    893     1  0.0000000  0.0000000  2
    886    881    880    893     1  180.0000771  0.3347200  3
    886    881    880    894     1  0.0000000  3.3472000  1
    886    881    880    894     1  0.0000000  0.0000000  2
    886    881    880    894     1  180.0000771  0.3347200  3
    886    881   1846   1861     1  0.0000000  8.3680000  1
    886    881   1846   1861     1  180.0000771  10.4600000  2
    887    876    875    900     1  0.0000000  0.6508444  3
    887    876    878    891     1  0.0000000  0.6508444  3
    887    876    878    892     1  0.0000000  0.6508444  3
    888    876    875    900     1  0.0000000  0.6508444  3
    888    876    878    891     1  0.0000000  0.6508444  3
    888    876    878    892     1  0.0000000  0.6508444  3
    889    877    875    900     1  0.0000000  0.6508444  3
    889    877    880    893     1  0.0000000  0.6508444  3
    889    877    880    894     1  0.0000000  0.6508444  3
    890    877    875    900     1  0.0000000  0.6508444  3
    890    877    880    893     1  0.0000000  0.6508444  3
    890    877    880    894     1  0.0000000  0.6508444  3
    891    878    879   1820     1  180.0000771  0.0000000  2
    892    878    879   1820     1  180.0000771  0.0000000  2
    893    880    881   1846     1  180.0000771  0.0000000  2
    894    880    881   1846     1  180.0000771  0.0000000  2
    895    882    875    900     1  0.0000000  0.6508444  3
    895    882    883    897     1  0.0000000  0.6508444  3
    895    882    883    898     1  0.0000000  0.6508444  3
    896    882    875    900     1  0.0000000  0.6508444  3
    896    882    883    897     1  0.0000000  0.6508444  3
    896    882    883    898     1  0.0000000  0.6508444  3
    897    883    884    899     1  0.0000000  0.0000000  2
    898    883    884    899     1  0.0000000  0.0000000  2
    901    902    904    917     1  0.0000000  0.6508444  3
    901    902    904    918     1  0.0000000  0.6508444  3
    901    903    906    919     1  0.0000000  0.6508444  3
    901    903    906    920     1  0.0000000  0.6508444  3
    901    908    909    923     1  0.0000000  0.6508444  3
    901    908    909    924     1  0.0000000  0.6508444  3
    902    901    903    915     1  0.0000000  0.6508444  3
    902    901    903    916     1  0.0000000  0.6508444  3
    902    901    908    921     1  0.0000000  0.6508444  3
    902    901    908    922     1  0.0000000  0.6508444  3
    903    901    902    913     1  0.0000000  0.6508444  3
    903    901    902    914     1  0.0000000  0.6508444  3
    903    901    908    921     1  0.0000000  0.6508444  3
    903    901    908    922     1  0.0000000  0.6508444  3
    904    902    901    926     1  0.0000000  0.6508444  3
    904    905   1872   1887     1  180.0000771  10.4600000  2
    905    904    902    913     1  0.0000000  0.6508444  3
    905    904    902    914     1  0.0000000  0.6508444  3
    905   1872   1871   1885     1  0.0000000  0.0000000  2
    905   1872   1871   1886     1  0.0000000  0.0000000  2
    906    903    901    926     1  0.0000000  0.6508444  3
    906    907   1898   1913     1  180.0000771  10.4600000  2
    907    906    903    915     1  0.0000000  0.6508444  3
    907    906    903    916     1  0.0000000  0.6508444  3
    907   1898   1897   1911     1  0.0000000  0.0000000  2
    907   1898   1897   1912     1  0.0000000  0.0000000  2
    908    901    902    913     1  0.0000000  0.6508444  3
    908    901    902    914     1  0.0000000  0.6508444  3
    908    901    903    915     1  0.0000000  0.6508444  3
    908    901    903    916     1  0.0000000  0.6508444  3
    908    909    910    925     1  0.0000000  0.0000000  2
    909    908    901    926     1  0.0000000  0.6508444  3
    910    909    908    921     1  0.0000000  0.6508444  3
    910    909    908    922     1  0.0000000  0.6508444  3
    911    905    904    917     1  0.0000000  3.3472000  1
    911    905    904    917     1  0.0000000  0.0000000  2
    911    905    904    917     1  180.0000771  0.3347200  3
    911    905    904    918     1  0.0000000  3.3472000  1
    911    905    904    918     1  0.0000000  0.0000000  2
    911    905    904    918     1  180.0000771  0.3347200  3
    911    905   1872   1887     1  0.0000000  8.3680000  1
    911    905   1872   1887     1  180.0000771  10.4600000  2
    912    907    906    919     1  0.0000000  3.3472000  1
    912    907    906    919     1  0.0000000  0.0000000  2
    912    907    906    919     1  180.0000771  0.3347200  3
    912    907    906    920     1  0.0000000  3.3472000  1
    912    907    906    920     1  0.0000000  0.0000000  2
    912    907    906    920     1  180.0000771  0.3347200  3
    912    907   1898   1913     1  0.0000000  8.3680000  1
    912    907   1898   1913     1  180.0000771  10.4600000  2
    913    902    901    926     1  0.0000000  0.6508444  3
    913    902    904    917     1  0.0000000  0.6508444  3
    913    902    904    918     1  0.0000000  0.6508444  3
    914    902    901    926     1  0.0000000  0.6508444  3
    914    902    904    917     1  0.0000000  0.6508444  3
    914    902    904    918     1  0.0000000  0.6508444  3
    915    903    901    926     1  0.0000000  0.6508444  3
    915    903    906    919     1  0.0000000  0.6508444  3
    915    903    906    920     1  0.0000000  0.6508444  3
    916    903    901    926     1  0.0000000  0.6508444  3
    916    903    906    919     1  0.0000000  0.6508444  3
    916    903    906    920     1  0.0000000  0.6508444  3
    917    904    905   1872     1  180.0000771  0.0000000  2
    918    904    905   1872     1  180.0000771  0.0000000  2
    919    906    907   1898     1  180.0000771  0.0000000  2
    920    906    907   1898     1  180.0000771  0.0000000  2
    921    908    901    926     1  0.0000000  0.6508444  3
    921    908    909    923     1  0.0000000  0.6508444  3
    921    908    909    924     1  0.0000000  0.6508444  3
    922    908    901    926     1  0.0000000  0.6508444  3
    922    908    909    923     1  0.0000000  0.6508444  3
    922    908    909    924     1  0.0000000  0.6508444  3
    923    909    910    925     1  0.0000000  0.0000000  2
    924    909    910    925     1  0.0000000  0.0000000  2
    927    928    930    943     1  0.0000000  0.6508444  3
    927    928    930    944     1  0.0000000  0.6508444  3
    927    929    932    945     1  0.0000000  0.6508444  3
    927    929    932    946     1  0.0000000  0.6508444  3
    927    934    935    949     1  0.0000000  0.6508444  3
    927    934    935    950     1  0.0000000  0.6508444  3
    928    927    929    941     1  0.0000000  0.6508444  3
    928    927    929    942     1  0.0000000  0.6508444  3
    928    927    934    947     1  0.0000000  0.6508444  3
    928    927    934    948     1  0.0000000  0.6508444  3
    929    927    928    939     1  0.0000000  0.6508444  3
    929    927    928    940     1  0.0000000  0.6508444  3
    929    927    934    947     1  0.0000000  0.6508444  3
    929    927    934    948     1  0.0000000  0.6508444  3
    930    928    927    952     1  0.0000000  0.6508444  3
    930    931   1924   1939     1  180.0000771  10.4600000  2
    931    930    928    939     1  0.0000000  0.6508444  3
    931    930    928    940     1  0.0000000  0.6508444  3
    931   1924   1923   1937     1  0.0000000  0.0000000  2
    931   1924   1923   1938     1  0.0000000  0.0000000  2
    932    929    927    952     1  0.0000000  0.6508444  3
    932    933   1950   1965     1  180.0000771  10.4600000  2
    933    932    929    941     1  0.0000000  0.6508444  3
    933    932    929    942     1  0.0000000  0.6508444  3
    933   1950   1949   1963     1  0.0000000  0.0000000  2
    933   1950   1949   1964     1  0.0000000  0.0000000  2
    934    927    928    939     1  0.0000000  0.6508444  3
    934    927    928    940     1  0.0000000  0.6508444  3
    934    927    929    941     1  0.0000000  0.6508444  3
    934    927    929    942     1  0.0000000  0.6508444  3
    934    935    936    951     1  0.0000000  0.0000000  2
    935    934    927    952     1  0.0000000  0.6508444  3
    936    935    934    947     1  0.0000000  0.6508444  3
    936    935    934    948     1  0.0000000  0.6508444  3
    937    931    930    943     1  0.0000000  3.3472000  1
    937    931    930    943     1  0.0000000  0.0000000  2
    937    931    930    943     1  180.0000771  0.3347200  3
    937    931    930    944     1  0.0000000  3.3472000  1
    937    931    930    944     1  0.0000000  0.0000000  2
    937    931    930    944     1  180.0000771  0.3347200  3
    937    931   1924   1939     1  0.0000000  8.3680000  1
    937    931   1924   1939     1  180.0000771  10.4600000  2
    938    933    932    945     1  0.0000000  3.3472000  1
    938    933    932    945     1  0.0000000  0.0000000  2
    938    933    932    945     1  180.0000771  0.3347200  3
    938    933    932    946     1  0.0000000  3.3472000  1
    938    933    932    946     1  0.0000000  0.0000000  2
    938    933    932    946     1  180.0000771  0.3347200  3
    938    933   1950   1965     1  0.0000000  8.3680000  1
    938    933   1950   1965     1  180.0000771  10.4600000  2
    939    928    927    952     1  0.0000000  0.6508444  3
    939    928    930    943     1  0.0000000  0.6508444  3
    939    928    930    944     1  0.0000000  0.6508444  3
    940    928    927    952     1  0.0000000  0.6508444  3
    940    928    930    943     1  0.0000000  0.6508444  3
    940    928    930    944     1  0.0000000  0.6508444  3
    941    929    927    952     1  0.0000000  0.6508444  3
    941    929    932    945     1  0.0000000  0.6508444  3
    941    929    932    946     1  0.0000000  0.6508444  3
    942    929    927    952     1  0.0000000  0.6508444  3
    942    929    932    945     1  0.0000000  0.6508444  3
    942    929    932    946     1  0.0000000  0.6508444  3
    943    930    931   1924     1  180.0000771  0.0000000  2
    944    930    931   1924     1  180.0000771  0.0000000  2
    945    932    933   1950     1  180.0000771  0.0000000  2
    946    932    933   1950     1  180.0000771  0.0000000  2
    947    934    927    952     1  0.0000000  0.6508444  3
    947    934    935    949     1  0.0000000  0.6508444  3
    947    934    935    950     1  0.0000000  0.6508444  3
    948    934    927    952     1  0.0000000  0.6508444  3
    948    934    935    949     1  0.0000000  0.6508444  3
    948    934    935    950     1  0.0000000  0.6508444  3
    949    935    936    951     1  0.0000000  0.0000000  2
    950    935    936    951     1  0.0000000  0.0000000  2
    953    954    956    969     1  0.0000000  0.6508444  3
    953    954    956    970     1  0.0000000  0.6508444  3
    953    955    958    971     1  0.0000000  0.6508444  3
    953    955    958    972     1  0.0000000  0.6508444  3
    953    960    961    975     1  0.0000000  0.6508444  3
    953    960    961    976     1  0.0000000  0.6508444  3
    954    953    955    967     1  0.0000000  0.6508444  3
    954    953    955    968     1  0.0000000  0.6508444  3
    954    953    960    973     1  0.0000000  0.6508444  3
    954    953    960    974     1  0.0000000  0.6508444  3
    955    953    954    965     1  0.0000000  0.6508444  3
    955    953    954    966     1  0.0000000  0.6508444  3
    955    953    960    973     1  0.0000000  0.6508444  3
    955    953    960    974     1  0.0000000  0.6508444  3
    956    954    953    978     1  0.0000000  0.6508444  3
    956    957   1976   1991     1  180.0000771  10.4600000  2
    957    956    954    965     1  0.0000000  0.6508444  3
    957    956    954    966     1  0.0000000  0.6508444  3
    957   1976   1975   1989     1  0.0000000  0.0000000  2
    957   1976   1975   1990     1  0.0000000  0.0000000  2
    958    955    953    978     1  0.0000000  0.6508444  3
    958    959   2002   2017     1  180.0000771  10.4600000  2
    959    958    955    967     1  0.0000000  0.6508444  3
    959    958    955    968     1  0.0000000  0.6508444  3
    959   2002   2001   2015     1  0.0000000  0.0000000  2
    959   2002   2001   2016     1  0.0000000  0.0000000  2
    960    953    954    965     1  0.0000000  0.6508444  3
    960    953    954    966     1  0.0000000  0.6508444  3
    960    953    955    967     1  0.0000000  0.6508444  3
    960    953    955    968     1  0.0000000  0.6508444  3
    960    961    962    977     1  0.0000000  0.0000000  2
    961    960    953    978     1  0.0000000  0.6508444  3
    962    961    960    973     1  0.0000000  0.6508444  3
    962    961    960    974     1  0.0000000  0.6508444  3
    963    957    956    969     1  0.0000000  3.3472000  1
    963    957    956    969     1  0.0000000  0.0000000  2
    963    957    956    969     1  180.0000771  0.3347200  3
    963    957    956    970     1  0.0000000  3.3472000  1
    963    957    956    970     1  0.0000000  0.0000000  2
    963    957    956    970     1  180.0000771  0.3347200  3
    963    957   1976   1991     1  0.0000000  8.3680000  1
    963    957   1976   1991     1  180.0000771  10.4600000  2
    964    959    958    971     1  0.0000000  3.3472000  1
    964    959    958    971     1  0.0000000  0.0000000  2
    964    959    958    971     1  180.0000771  0.3347200  3
    964    959    958    972     1  0.0000000  3.3472000  1
    964    959    958    972     1  0.0000000  0.0000000  2
    964    959    958    972     1  180.0000771  0.3347200  3
    964    959   2002   2017     1  0.0000000  8.3680000  1
    964    959   2002   2017     1  180.0000771  10.4600000  2
    965    954    953    978     1  0.0000000  0.6508444  3
    965    954    956    969     1  0.0000000  0.6508444  3
    965    954    956    970     1  0.0000000  0.6508444  3
    966    954    953    978     1  0.0000000  0.6508444  3
    966    954    956    969     1  0.0000000  0.6508444  3
    966    954    956    970     1  0.0000000  0.6508444  3
    967    955    953    978     1  0.0000000  0.6508444  3
    967    955    958    971     1  0.0000000  0.6508444  3
    967    955    958    972     1  0.0000000  0.6508444  3
    968    955    953    978     1  0.0000000  0.6508444  3
    968    955    958    971     1  0.0000000  0.6508444  3
    968    955    958    972     1  0.0000000  0.6508444  3
    969    956    957   1976     1  180.0000771  0.0000000  2
    970    956    957   1976     1  180.0000771  0.0000000  2
    971    958    959   2002     1  180.0000771  0.0000000  2
    972    958    959   2002     1  180.0000771  0.0000000  2
    973    960    953    978     1  0.0000000  0.6508444  3
    973    960    961    975     1  0.0000000  0.6508444  3
    973    960    961    976     1  0.0000000  0.6508444  3
    974    960    953    978     1  0.0000000  0.6508444  3
    974    960    961    975     1  0.0000000  0.6508444  3
    974    960    961    976     1  0.0000000  0.6508444  3
    975    961    962    977     1  0.0000000  0.0000000  2
    976    961    962    977     1  0.0000000  0.0000000  2
    979    980    982    995     1  0.0000000  0.6508444  3
    979    980    982    996     1  0.0000000  0.6508444  3
    979    981    984    997     1  0.0000000  0.6508444  3
    979    981    984    998     1  0.0000000  0.6508444  3
    979    986    987   1001     1  0.0000000  0.6508444  3
    979    986    987   1002     1  0.0000000  0.6508444  3
    980    979    981    993     1  0.0000000  0.6508444  3
    980    979    981    994     1  0.0000000  0.6508444  3
    980    979    986    999     1  0.0000000  0.6508444  3
    980    979    986   1000     1  0.0000000  0.6508444  3
    981    979    980    991     1  0.0000000  0.6508444  3
    981    979    980    992     1  0.0000000  0.6508444  3
    981    979    986    999     1  0.0000000  0.6508444  3
    981    979    986   1000     1  0.0000000  0.6508444  3
    982    980    979   1004     1  0.0000000  0.6508444  3
    982    983   2028   2043     1  180.0000771  10.4600000  2
    983    982    980    991     1  0.0000000  0.6508444  3
    983    982    980    992     1  0.0000000  0.6508444  3
    983   2028   2027   2041     1  0.0000000  0.0000000  2
    983   2028   2027   2042     1  0.0000000  0.0000000  2
    984    981    979   1004     1  0.0000000  0.6508444  3
    984    985   2054   2069     1  180.0000771  10.4600000  2
    985    984    981    993     1  0.0000000  0.6508444  3
    985    984    981    994     1  0.0000000  0.6508444  3
    985   2054   2053   2067     1  0.0000000  0.0000000  2
    985   2054   2053   2068     1  0.0000000  0.0000000  2
    986    979    980    991     1  0.0000000  0.6508444  3
    986    979    980    992     1  0.0000000  0.6508444  3
    986    979    981    993     1  0.0000000  0.6508444  3
    986    979    981    994     1  0.0000000  0.6508444  3
    986    987    988   1003     1  0.0000000  0.0000000  2
    987    986    979   1004     1  0.0000000  0.6508444  3
    988    987    986    999     1  0.0000000  0.6508444  3
    988    987    986   1000     1  0.0000000  0.6508444  3
    989    983    982    995     1  0.0000000  3.3472000  1
    989    983    982    995     1  0.0000000  0.0000000  2
    989    983    982    995     1  180.0000771  0.3347200  3
    989    983    982    996     1  0.0000000  3.3472000  1
    989    983    982    996     1  0.0000000  0.0000000  2
    989    983    982    996     1  180.0000771  0.3347200  3
    989    983   2028   2043     1  0.0000000  8.3680000  1
    989    983   2028   2043     1  180.0000771  10.4600000  2
    990    985    984    997     1  0.0000000  3.3472000  1
    990    985    984    997     1  0.0000000  0.0000000  2
    990    985    984    997     1  180.0000771  0.3347200  3
    990    985    984    998     1  0.0000000  3.3472000  1
    990    985    984    998     1  0.0000000  0.0000000  2
    990    985    984    998     1  180.0000771  0.3347200  3
    990    985   2054   2069     1  0.0000000  8.3680000  1
    990    985   2054   2069     1  180.0000771  10.4600000  2
    991    980    979   1004     1  0.0000000  0.6508444  3
    991    980    982    995     1  0.0000000  0.6508444  3
    991    980    982    996     1  0.0000000  0.6508444  3
    992    980    979   1004     1  0.0000000  0.6508444  3
    992    980    982    995     1  0.0000000  0.6508444  3
    992    980    982    996     1  0.0000000  0.6508444  3
    993    981    979   1004     1  0.0000000  0.6508444  3
    993    981    984    997     1  0.0000000  0.6508444  3
    993    981    984    998     1  0.0000000  0.6508444  3
    994    981    979   1004     1  0.0000000  0.6508444  3
    994    981    984    997     1  0.0000000  0.6508444  3
    994    981    984    998     1  0.0000000  0.6508444  3
    995    982    983   2028     1  180.0000771  0.0000000  2
    996    982    983   2028     1  180.0000771  0.0000000  2
    997    984    985   2054     1  180.0000771  0.0000000  2
    998    984    985   2054     1  180.0000771  0.0000000  2
    999    986    979   1004     1  0.0000000  0.6508444  3
    999    986    987   1001     1  0.0000000  0.6508444  3
    999    986    987   1002     1  0.0000000  0.6508444  3
   1000    986    979   1004     1  0.0000000  0.6508444  3
   1000    986    987   1001     1  0.0000000  0.6508444  3
   1000    986    987   1002     1  0.0000000  0.6508444  3
   1001    987    988   1003     1  0.0000000  0.0000000  2
   1002    987    988   1003     1  0.0000000  0.0000000  2
   1005   1006   1008   1021     1  0.0000000  0.6508444  3
   1005   1006   1008   1022     1  0.0000000  0.6508444  3
   1005   1007   1010   1023     1  0.0000000  0.6508444  3
   1005   1007   1010   1024     1  0.0000000  0.6508444  3
   1005   1012   1013   1027     1  0.0000000  0.6508444  3
   1005   1012   1013   1028     1  0.0000000  0.6508444  3
   1006   1005   1007   1019     1  0.0000000  0.6508444  3
   1006   1005   1007   1020     1  0.0000000  0.6508444  3
   1006   1005   1012   1025     1  0.0000000  0.6508444  3
   1006   1005   1012   1026     1  0.0000000  0.6508444  3
   1007   1005   1006   1017     1  0.0000000  0.6508444  3
   1007   1005   1006   1018     1  0.0000000  0.6508444  3
   1007   1005   1012   1025     1  0.0000000  0.6508444  3
   1007   1005   1012   1026     1  0.0000000  0.6508444  3
   1008   1006   1005   1030     1  0.0000000  0.6508444  3
   1008   1009   2080   2095     1  180.0000771  10.4600000  2
   1009   1008   1006   1017     1  0.0000000  0.6508444  3
   1009   1008   1006   1018     1  0.0000000  0.6508444  3
   1009   2080   2079   2093     1  0.0000000  0.0000000  2
   1009   2080   2079   2094     1  0.0000000  0.0000000  2
   1010   1007   1005   1030     1  0.0000000  0.6508444  3
   1010   1011   2106   2121     1  180.0000771  10.4600000  2
   1011   1010   1007   1019     1  0.0000000  0.6508444  3
   1011   1010   1007   1020     1  0.0000000  0.6508444  3
   1011   2106   2105   2119     1  0.0000000  0.0000000  2
   1011   2106   2105   2120     1  0.0000000  0.0000000  2
   1012   1005   1006   1017     1  0.0000000  0.6508444  3
   1012   1005   1006   1018     1  0.0000000  0.6508444  3
   1012   1005   1007   1019     1  0.0000000  0.6508444  3
   1012   1005   1007   1020     1  0.0000000  0.6508444  3
   1012   1013   1014   1029     1  0.0000000  0.0000000  2
   1013   1012   1005   1030     1  0.0000000  0.6508444  3
   1014   1013   1012   1025     1  0.0000000  0.6508444  3
   1014   1013   1012   1026     1  0.0000000  0.6508444  3
   1015   1009   1008   1021     1  0.0000000  3.3472000  1
   1015   1009   1008   1021     1  0.0000000  0.0000000  2
   1015   1009   1008   1021     1  180.0000771  0.3347200  3
   1015   1009   1008   1022     1  0.0000000  3.3472000  1
   1015   1009   1008   1022     1  0.0000000  0.0000000  2
   1015   1009   1008   1022     1  180.0000771  0.3347200  3
   1015   1009   2080   2095     1  0.0000000  8.3680000  1
   1015   1009   2080   2095     1  180.0000771  10.4600000  2
   1016   1011   1010   1023     1  0.0000000  3.3472000  1
   1016   1011   1010   1023     1  0.0000000  0.0000000  2
   1016   1011   1010   1023     1  180.0000771  0.3347200  3
   1016   1011   1010   1024     1  0.0000000  3.3472000  1
   1016   1011   1010   1024     1  0.0000000  0.0000000  2
   1016   1011   1010   1024     1  180.0000771  0.3347200  3
   1016   1011   2106   2121     1  0.0000000  8.3680000  1
   1016   1011   2106   2121     1  180.0000771  10.4600000  2
   1017   1006   1005   1030     1  0.0000000  0.6508444  3
   1017   1006   1008   1021     1  0.0000000  0.6508444  3
   1017   1006   1008   1022     1  0.0000000  0.6508444  3
   1018   1006   1005   1030     1  0.0000000  0.6508444  3
   1018   1006   1008   1021     1  0.0000000  0.6508444  3
   1018   1006   1008   1022     1  0.0000000  0.6508444  3
   1019   1007   1005   1030     1  0.0000000  0.6508444  3
   1019   1007   1010   1023     1  0.0000000  0.6508444  3
   1019   1007   1010   1024     1  0.0000000  0.6508444  3
   1020   1007   1005   1030     1  0.0000000  0.6508444  3
   1020   1007   1010   1023     1  0.0000000  0.6508444  3
   1020   1007   1010   1024     1  0.0000000  0.6508444  3
   1021   1008   1009   2080     1  180.0000771  0.0000000  2
   1022   1008   1009   2080     1  180.0000771  0.0000000  2
   1023   1010   1011   2106     1  180.0000771  0.0000000  2
   1024   1010   1011   2106     1  180.0000771  0.0000000  2
   1025   1012   1005   1030     1  0.0000000  0.6508444  3
   1025   1012   1013   1027     1  0.0000000  0.6508444  3
   1025   1012   1013   1028     1  0.0000000  0.6508444  3
   1026   1012   1005   1030     1  0.0000000  0.6508444  3
   1026   1012   1013   1027     1  0.0000000  0.6508444  3
   1026   1012   1013   1028     1  0.0000000  0.6508444  3
   1027   1013   1014   1029     1  0.0000000  0.0000000  2
   1028   1013   1014   1029     1  0.0000000  0.0000000  2
   1031   1032   1034   1047     1  0.0000000  0.6508444  3
   1031   1032   1034   1048     1  0.0000000  0.6508444  3
   1031   1033   1036   1049     1  0.0000000  0.6508444  3
   1031   1033   1036   1050     1  0.0000000  0.6508444  3
   1031   1038   1039   1053     1  0.0000000  0.6508444  3
   1031   1038   1039   1054     1  0.0000000  0.6508444  3
   1032   1031   1033   1045     1  0.0000000  0.6508444  3
   1032   1031   1033   1046     1  0.0000000  0.6508444  3
   1032   1031   1038   1051     1  0.0000000  0.6508444  3
   1032   1031   1038   1052     1  0.0000000  0.6508444  3
   1033   1031   1032   1043     1  0.0000000  0.6508444  3
   1033   1031   1032   1044     1  0.0000000  0.6508444  3
   1033   1031   1038   1051     1  0.0000000  0.6508444  3
   1033   1031   1038   1052     1  0.0000000  0.6508444  3
   1034   1032   1031   1056     1  0.0000000  0.6508444  3
   1034   1035   2132   2147     1  180.0000771  10.4600000  2
   1035   1034   1032   1043     1  0.0000000  0.6508444  3
   1035   1034   1032   1044     1  0.0000000  0.6508444  3
   1035   2132   2131   2145     1  0.0000000  0.0000000  2
   1035   2132   2131   2146     1  0.0000000  0.0000000  2
   1036   1033   1031   1056     1  0.0000000  0.6508444  3
   1036   1037   2158   2173     1  180.0000771  10.4600000  2
   1037   1036   1033   1045     1  0.0000000  0.6508444  3
   1037   1036   1033   1046     1  0.0000000  0.6508444  3
   1037   2158   2157   2171     1  0.0000000  0.0000000  2
   1037   2158   2157   2172     1  0.0000000  0.0000000  2
   1038   1031   1032   1043     1  0.0000000  0.6508444  3
   1038   1031   1032   1044     1  0.0000000  0.6508444  3
   1038   1031   1033   1045     1  0.0000000  0.6508444  3
   1038   1031   1033   1046     1  0.0000000  0.6508444  3
   1038   1039   1040   1055     1  0.0000000  0.0000000  2
   1039   1038   1031   1056     1  0.0000000  0.6508444  3
   1040   1039   1038   1051     1  0.0000000  0.6508444  3
   1040   1039   1038   1052     1  0.0000000  0.6508444  3
   1041   1035   1034   1047     1  0.0000000  3.3472000  1
   1041   1035   1034   1047     1  0.0000000  0.0000000  2
   1041   1035   1034   1047     1  180.0000771  0.3347200  3
   1041   1035   1034   1048     1  0.0000000  3.3472000  1
   1041   1035   1034   1048     1  0.0000000  0.0000000  2
   1041   1035   1034   1048     1  180.0000771  0.3347200  3
   1041   1035   2132   2147     1  0.0000000  8.3680000  1
   1041   1035   2132   2147     1  180.0000771  10.4600000  2
   1042   1037   1036   1049     1  0.0000000  3.3472000  1
   1042   1037   1036   1049     1  0.0000000  0.0000000  2
   1042   1037   1036   1049     1  180.0000771  0.3347200  3
   1042   1037   1036   1050     1  0.0000000  3.3472000  1
   1042   1037   1036   1050     1  0.0000000  0.0000000  2
   1042   1037   1036   1050     1  180.0000771  0.3347200  3
   1042   1037   2158   2173     1  0.0000000  8.3680000  1
   1042   1037   2158   2173     1  180.0000771  10.4600000  2
   1043   1032   1031   1056     1  0.0000000  0.6508444  3
   1043   1032   1034   1047     1  0.0000000  0.6508444  3
   1043   1032   1034   1048     1  0.0000000  0.6508444  3
   1044   1032   1031   1056     1  0.0000000  0.6508444  3
   1044   1032   1034   1047     1  0.0000000  0.6508444  3
   1044   1032   1034   1048     1  0.0000000  0.6508444  3
   1045   1033   1031   1056     1  0.0000000  0.6508444  3
   1045   1033   1036   1049     1  0.0000000  0.6508444  3
   1045   1033   1036   1050     1  0.0000000  0.6508444  3
   1046   1033   1031   1056     1  0.0000000  0.6508444  3
   1046   1033   1036   1049     1  0.0000000  0.6508444  3
   1046   1033   1036   1050     1  0.0000000  0.6508444  3
   1047   1034   1035   2132     1  180.0000771  0.0000000  2
   1048   1034   1035   2132     1  180.0000771  0.0000000  2
   1049   1036   1037   2158     1  180.0000771  0.0000000  2
   1050   1036   1037   2158     1  180.0000771  0.0000000  2
   1051   1038   1031   1056     1  0.0000000  0.6508444  3
   1051   1038   1039   1053     1  0.0000000  0.6508444  3
   1051   1038   1039   1054     1  0.0000000  0.6508444  3
   1052   1038   1031   1056     1  0.0000000  0.6508444  3
   1052   1038   1039   1053     1  0.0000000  0.6508444  3
   1052   1038   1039   1054     1  0.0000000  0.6508444  3
   1053   1039   1040   1055     1  0.0000000  0.0000000  2
   1054   1039   1040   1055     1  0.0000000  0.0000000  2
   1057   1058   1060   1073     1  0.0000000  0.6508444  3
   1057   1058   1060   1074     1  0.0000000  0.6508444  3
   1057   1059   1062   1075     1  0.0000000  0.6508444  3
   1057   1059   1062   1076     1  0.0000000  0.6508444  3
   1057   1064   1065   1079     1  0.0000000  0.6508444  3
   1057   1064   1065   1080     1  0.0000000  0.6508444  3
   1058   1057   1059   1071     1  0.0000000  0.6508444  3
   1058   1057   1059   1072     1  0.0000000  0.6508444  3
   1058   1057   1064   1077     1  0.0000000  0.6508444  3
   1058   1057   1064   1078     1  0.0000000  0.6508444  3
   1059   1057   1058   1069     1  0.0000000  0.6508444  3
   1059   1057   1058   1070     1  0.0000000  0.6508444  3
   1059   1057   1064   1077     1  0.0000000  0.6508444  3
   1059   1057   1064   1078     1  0.0000000  0.6508444  3
   1060   1058   1057   1082     1  0.0000000  0.6508444  3
   1060   1061   2184   2199     1  180.0000771  10.4600000  2
   1061   1060   1058   1069     1  0.0000000  0.6508444  3
   1061   1060   1058   1070     1  0.0000000  0.6508444  3
   1061   2184   2183   2197     1  0.0000000  0.0000000  2
   1061   2184   2183   2198     1  0.0000000  0.0000000  2
   1062   1059   1057   1082     1  0.0000000  0.6508444  3
   1062   1063   2210   2225     1  180.0000771  10.4600000  2
   1063   1062   1059   1071     1  0.0000000  0.6508444  3
   1063   1062   1059   1072     1  0.0000000  0.6508444  3
   1063   2210   2209   2223     1  0.0000000  0.0000000  2
   1063   2210   2209   2224     1  0.0000000  0.0000000  2
   1064   1057   1058   1069     1  0.0000000  0.6508444  3
   1064   1057   1058   1070     1  0.0000000  0.6508444  3
   1064   1057   1059   1071     1  0.0000000  0.6508444  3
   1064   1057   1059   1072     1  0.0000000  0.6508444  3
   1064   1065   1066   1081     1  0.0000000  0.0000000  2
   1065   1064   1057   1082     1  0.0000000  0.6508444  3
   1066   1065   1064   1077     1  0.0000000  0.6508444  3
   1066   1065   1064   1078     1  0.0000000  0.6508444  3
   1067   1061   1060   1073     1  0.0000000  3.3472000  1
   1067   1061   1060   1073     1  0.0000000  0.0000000  2
   1067   1061   1060   1073     1  180.0000771  0.3347200  3
   1067   1061   1060   1074     1  0.0000000  3.3472000  1
   1067   1061   1060   1074     1  0.0000000  0.0000000  2
   1067   1061   1060   1074     1  180.0000771  0.3347200  3
   1067   1061   2184   2199     1  0.0000000  8.3680000  1
   1067   1061   2184   2199     1  180.0000771  10.4600000  2
   1068   1063   1062   1075     1  0.0000000  3.3472000  1
   1068   1063   1062   1075     1  0.0000000  0.0000000  2
   1068   1063   1062   1075     1  180.0000771  0.3347200  3
   1068   1063   1062   1076     1  0.0000000  3.3472000  1
   1068   1063   1062   1076     1  0.0000000  0.0000000  2
   1068   1063   1062   1076     1  180.0000771  0.3347200  3
   1068   1063   2210   2225     1  0.0000000  8.3680000  1
   1068   1063   2210   2225     1  180.0000771  10.4600000  2
   1069   1058   1057   1082     1  0.0000000  0.6508444  3
   1069   1058   1060   1073     1  0.0000000  0.6508444  3
   1069   1058   1060   1074     1  0.0000000  0.6508444  3
   1070   1058   1057   1082     1  0.0000000  0.6508444  3
   1070   1058   1060   1073     1  0.0000000  0.6508444  3
   1070   1058   1060   1074     1  0.0000000  0.6508444  3
   1071   1059   1057   1082     1  0.0000000  0.6508444  3
   1071   1059   1062   1075     1  0.0000000  0.6508444  3
   1071   1059   1062   1076     1  0.0000000  0.6508444  3
   1072   1059   1057   1082     1  0.0000000  0.6508444  3
   1072   1059   1062   1075     1  0.0000000  0.6508444  3
   1072   1059   1062   1076     1  0.0000000  0.6508444  3
   1073   1060   1061   2184     1  180.0000771  0.0000000  2
   1074   1060   1061   2184     1  180.0000771  0.0000000  2
   1075   1062   1063   2210     1  180.0000771  0.0000000  2
   1076   1062   1063   2210     1  180.0000771  0.0000000  2
   1077   1064   1057   1082     1  0.0000000  0.6508444  3
   1077   1064   1065   1079     1  0.0000000  0.6508444  3
   1077   1064   1065   1080     1  0.0000000  0.6508444  3
   1078   1064   1057   1082     1  0.0000000  0.6508444  3
   1078   1064   1065   1079     1  0.0000000  0.6508444  3
   1078   1064   1065   1080     1  0.0000000  0.6508444  3
   1079   1065   1066   1081     1  0.0000000  0.0000000  2
   1080   1065   1066   1081     1  0.0000000  0.0000000  2
   1083   1084   1086   1099     1  0.0000000  0.6508444  3
   1083   1084   1086   1100     1  0.0000000  0.6508444  3
   1083   1085   1088   1101     1  0.0000000  0.6508444  3
   1083   1085   1088   1102     1  0.0000000  0.6508444  3
   1083   1090   1091   1105     1  0.0000000  0.6508444  3
   1083   1090   1091   1106     1  0.0000000  0.6508444  3
   1084   1083   1085   1097     1  0.0000000  0.6508444  3
   1084   1083   1085   1098     1  0.0000000  0.6508444  3
   1084   1083   1090   1103     1  0.0000000  0.6508444  3
   1084   1083   1090   1104     1  0.0000000  0.6508444  3
   1085   1083   1084   1095     1  0.0000000  0.6508444  3
   1085   1083   1084   1096     1  0.0000000  0.6508444  3
   1085   1083   1090   1103     1  0.0000000  0.6508444  3
   1085   1083   1090   1104     1  0.0000000  0.6508444  3
   1086   1084   1083   1108     1  0.0000000  0.6508444  3
   1086   1087   2236   2251     1  180.0000771  10.4600000  2
   1087   1086   1084   1095     1  0.0000000  0.6508444  3
   1087   1086   1084   1096     1  0.0000000  0.6508444  3
   1087   2236   2235   2249     1  0.0000000  0.0000000  2
   1087   2236   2235   2250     1  0.0000000  0.0000000  2
   1088   1085   1083   1108     1  0.0000000  0.6508444  3
   1088   1089   2262   2277     1  180.0000771  10.4600000  2
   1089   1088   1085   1097     1  0.0000000  0.6508444  3
   1089   1088   1085   1098     1  0.0000000  0.6508444  3
   1089   2262   2261   2275     1  0.0000000  0.0000000  2
   1089   2262   2261   2276     1  0.0000000  0.0000000  2
   1090   1083   1084   1095     1  0.0000000  0.6508444  3
   1090   1083   1084   1096     1  0.0000000  0.6508444  3
   1090   1083   1085   1097     1  0.0000000  0.6508444  3
   1090   1083   1085   1098     1  0.0000000  0.6508444  3
   1090   1091   1092   1107     1  0.0000000  0.0000000  2
   1091   1090   1083   1108     1  0.0000000  0.6508444  3
   1092   1091   1090   1103     1  0.0000000  0.6508444  3
   1092   1091   1090   1104     1  0.0000000  0.6508444  3
   1093   1087   1086   1099     1  0.0000000  3.3472000  1
   1093   1087   1086   1099     1  0.0000000  0.0000000  2
   1093   1087   1086   1099     1  180.0000771  0.3347200  3
   1093   1087   1086   1100     1  0.0000000  3.3472000  1
   1093   1087   1086   1100     1  0.0000000  0.0000000  2
   1093   1087   1086   1100     1  180.0000771  0.3347200  3
   1093   1087   2236   2251     1  0.0000000  8.3680000  1
   1093   1087   2236   2251     1  180.0000771  10.4600000  2
   1094   1089   1088   1101     1  0.0000000  3.3472000  1
   1094   1089   1088   1101     1  0.0000000  0.0000000  2
   1094   1089   1088   1101     1  180.0000771  0.3347200  3
   1094   1089   1088   1102     1  0.0000000  3.3472000  1
   1094   1089   1088   1102     1  0.0000000  0.0000000  2
   1094   1089   1088   1102     1  180.0000771  0.3347200  3
   1094   1089   2262   2277     1  0.0000000  8.3680000  1
   1094   1089   2262   2277     1  180.0000771  10.4600000  2
   1095   1084   1083   1108     1  0.0000000  0.6508444  3
   1095   1084   1086   1099     1  0.0000000  0.6508444  3
   1095   1084   1086   1100     1  0.0000000  0.6508444  3
   1096   1084   1083   1108     1  0.0000000  0.6508444  3
   1096   1084   1086   1099     1  0.0000000  0.6508444  3
   1096   1084   1086   1100     1  0.0000000  0.6508444  3
   1097   1085   1083   1108     1  0.0000000  0.6508444  3
   1097   1085   1088   1101     1  0.0000000  0.6508444  3
   1097   1085   1088   1102     1  0.0000000  0.6508444  3
   1098   1085   1083   1108     1  0.0000000  0.6508444  3
   1098   1085   1088   1101     1  0.0000000  0.6508444  3
   1098   1085   1088   1102     1  0.0000000  0.6508444  3
   1099   1086   1087   2236     1  180.0000771  0.0000000  2
   1100   1086   1087   2236     1  180.0000771  0.0000000  2
   1101   1088   1089   2262     1  180.0000771  0.0000000  2
   1102   1088   1089   2262     1  180.0000771  0.0000000  2
   1103   1090   1083   1108     1  0.0000000  0.6508444  3
   1103   1090   1091   1105     1  0.0000000  0.6508444  3
   1103   1090   1091   1106     1  0.0000000  0.6508444  3
   1104   1090   1083   1108     1  0.0000000  0.6508444  3
   1104   1090   1091   1105     1  0.0000000  0.6508444  3
   1104   1090   1091   1106     1  0.0000000  0.6508444  3
   1105   1091   1092   1107     1  0.0000000  0.0000000  2
   1106   1091   1092   1107     1  0.0000000  0.0000000  2
   1109   1110   1112   1125     1  0.0000000  0.6508444  3
   1109   1110   1112   1126     1  0.0000000  0.6508444  3
   1109   1111   1114   1127     1  0.0000000  0.6508444  3
   1109   1111   1114   1128     1  0.0000000  0.6508444  3
   1109   1116   1117   1131     1  0.0000000  0.6508444  3
   1109   1116   1117   1132     1  0.0000000  0.6508444  3
   1110   1109   1111   1123     1  0.0000000  0.6508444  3
   1110   1109   1111   1124     1  0.0000000  0.6508444  3
   1110   1109   1116   1129     1  0.0000000  0.6508444  3
   1110   1109   1116   1130     1  0.0000000  0.6508444  3
   1111   1109   1110   1121     1  0.0000000  0.6508444  3
   1111   1109   1110   1122     1  0.0000000  0.6508444  3
   1111   1109   1116   1129     1  0.0000000  0.6508444  3
   1111   1109   1116   1130     1  0.0000000  0.6508444  3
   1112   1110   1109   1134     1  0.0000000  0.6508444  3
   1112   1113   2288   2303     1  180.0000771  10.4600000  2
   1113   1112   1110   1121     1  0.0000000  0.6508444  3
   1113   1112   1110   1122     1  0.0000000  0.6508444  3
   1113   2288   2287   2301     1  0.0000000  0.0000000  2
   1113   2288   2287   2302     1  0.0000000  0.0000000  2
   1114   1111   1109   1134     1  0.0000000  0.6508444  3
   1114   1115   2314   2329     1  180.0000771  10.4600000  2
   1115   1114   1111   1123     1  0.0000000  0.6508444  3
   1115   1114   1111   1124     1  0.0000000  0.6508444  3
   1115   2314   2313   2327     1  0.0000000  0.0000000  2
   1115   2314   2313   2328     1  0.0000000  0.0000000  2
   1116   1109   1110   1121     1  0.0000000  0.6508444  3
   1116   1109   1110   1122     1  0.0000000  0.6508444  3
   1116   1109   1111   1123     1  0.0000000  0.6508444  3
   1116   1109   1111   1124     1  0.0000000  0.6508444  3
   1116   1117   1118   1133     1  0.0000000  0.0000000  2
   1117   1116   1109   1134     1  0.0000000  0.6508444  3
   1118   1117   1116   1129     1  0.0000000  0.6508444  3
   1118   1117   1116   1130     1  0.0000000  0.6508444  3
   1119   1113   1112   1125     1  0.0000000  3.3472000  1
   1119   1113   1112   1125     1  0.0000000  0.0000000  2
   1119   1113   1112   1125     1  180.0000771  0.3347200  3
   1119   1113   1112   1126     1  0.0000000  3.3472000  1
   1119   1113   1112   1126     1  0.0000000  0.0000000  2
   1119   1113   1112   1126     1  180.0000771  0.3347200  3
   1119   1113   2288   2303     1  0.0000000  8.3680000  1
   1119   1113   2288   2303     1  180.0000771  10.4600000  2
   1120   1115   1114   1127     1  0.0000000  3.3472000  1
   1120   1115   1114   1127     1  0.0000000  0.0000000  2
   1120   1115   1114   1127     1  180.0000771  0.3347200  3
   1120   1115   1114   1128     1  0.0000000  3.3472000  1
   1120   1115   1114   1128     1  0.0000000  0.0000000  2
   1120   1115   1114   1128     1  180.0000771  0.3347200  3
   1120   1115   2314   2329     1  0.0000000  8.3680000  1
   1120   1115   2314   2329     1  180.0000771  10.4600000  2
   1121   1110   1109   1134     1  0.0000000  0.6508444  3
   1121   1110   1112   1125     1  0.0000000  0.6508444  3
   1121   1110   1112   1126     1  0.0000000  0.6508444  3
   1122   1110   1109   1134     1  0.0000000  0.6508444  3
   1122   1110   1112   1125     1  0.0000000  0.6508444  3
   1122   1110   1112   1126     1  0.0000000  0.6508444  3
   1123   1111   1109   1134     1  0.0000000  0.6508444  3
   1123   1111   1114   1127     1  0.0000000  0.6508444  3
   1123   1111   1114   1128     1  0.0000000  0.6508444  3
   1124   1111   1109   1134     1  0.0000000  0.6508444  3
   1124   1111   1114   1127     1  0.0000000  0.6508444  3
   1124   1111   1114   1128     1  0.0000000  0.6508444  3
   1125   1112   1113   2288     1  180.0000771  0.0000000  2
   1126   1112   1113   2288     1  180.0000771  0.0000000  2
   1127   1114   1115   2314     1  180.0000771  0.0000000  2
   1128   1114   1115   2314     1  180.0000771  0.0000000  2
   1129   1116   1109   1134     1  0.0000000  0.6508444  3
   1129   1116   1117   1131     1  0.0000000  0.6508444  3
   1129   1116   1117   1132     1  0.0000000  0.6508444  3
   1130   1116   1109   1134     1  0.0000000  0.6508444  3
   1130   1116   1117   1131     1  0.0000000  0.6508444  3
   1130   1116   1117   1132     1  0.0000000  0.6508444  3
   1131   1117   1118   1133     1  0.0000000  0.0000000  2
   1132   1117   1118   1133     1  0.0000000  0.0000000  2
   1135   1136   1138   1151     1  0.0000000  0.6508444  3
   1135   1136   1138   1152     1  0.0000000  0.6508444  3
   1135   1137   1140   1153     1  0.0000000  0.6508444  3
   1135   1137   1140   1154     1  0.0000000  0.6508444  3
   1135   1142   1143   1157     1  0.0000000  0.6508444  3
   1135   1142   1143   1158     1  0.0000000  0.6508444  3
   1136   1135   1137   1149     1  0.0000000  0.6508444  3
   1136   1135   1137   1150     1  0.0000000  0.6508444  3
   1136   1135   1142   1155     1  0.0000000  0.6508444  3
   1136   1135   1142   1156     1  0.0000000  0.6508444  3
   1137   1135   1136   1147     1  0.0000000  0.6508444  3
   1137   1135   1136   1148     1  0.0000000  0.6508444  3
   1137   1135   1142   1155     1  0.0000000  0.6508444  3
   1137   1135   1142   1156     1  0.0000000  0.6508444  3
   1138   1136   1135   1160     1  0.0000000  0.6508444  3
   1138   1139   2340   2355     1  180.0000771  10.4600000  2
   1139   1138   1136   1147     1  0.0000000  0.6508444  3
   1139   1138   1136   1148     1  0.0000000  0.6508444  3
   1139   2340   2339   2353     1  0.0000000  0.0000000  2
   1139   2340   2339   2354     1  0.0000000  0.0000000  2
   1140   1137   1135   1160     1  0.0000000  0.6508444  3
   1140   1141   2366   2381     1  180.0000771  10.4600000  2
   1141   1140   1137   1149     1  0.0000000  0.6508444  3
   1141   1140   1137   1150     1  0.0000000  0.6508444  3
   1141   2366   2365   2379     1  0.0000000  0.0000000  2
   1141   2366   2365   2380     1  0.0000000  0.0000000  2
   1142   1135   1136   1147     1  0.0000000  0.6508444  3
   1142   1135   1136   1148     1  0.0000000  0.6508444  3
   1142   1135   1137   1149     1  0.0000000  0.6508444  3
   1142   1135   1137   1150     1  0.0000000  0.6508444  3
   1142   1143   1144   1159     1  0.0000000  0.0000000  2
   1143   1142   1135   1160     1  0.0000000  0.6508444  3
   1144   1143   1142   1155     1  0.0000000  0.6508444  3
   1144   1143   1142   1156     1  0.0000000  0.6508444  3
   1145   1139   1138   1151     1  0.0000000  3.3472000  1
   1145   1139   1138   1151     1  0.0000000  0.0000000  2
   1145   1139   1138   1151     1  180.0000771  0.3347200  3
   1145   1139   1138   1152     1  0.0000000  3.3472000  1
   1145   1139   1138   1152     1  0.0000000  0.0000000  2
   1145   1139   1138   1152     1  180.0000771  0.3347200  3
   1145   1139   2340   2355     1  0.0000000  8.3680000  1
   1145   1139   2340   2355     1  180.0000771  10.4600000  2
   1146   1141   1140   1153     1  0.0000000  3.3472000  1
   1146   1141   1140   1153     1  0.0000000  0.0000000  2
   1146   1141   1140   1153     1  180.0000771  0.3347200  3
   1146   1141   1140   1154     1  0.0000000  3.3472000  1
   1146   1141   1140   1154     1  0.0000000  0.0000000  2
   1146   1141   1140   1154     1  180.0000771  0.3347200  3
   1146   1141   2366   2381     1  0.0000000  8.3680000  1
   1146   1141   2366   2381     1  180.0000771  10.4600000  2
   1147   1136   1135   1160     1  0.0000000  0.6508444  3
   1147   1136   1138   1151     1  0.0000000  0.6508444  3
   1147   1136   1138   1152     1  0.0000000  0.6508444  3
   1148   1136   1135   1160     1  0.0000000  0.6508444  3
   1148   1136   1138   1151     1  0.0000000  0.6508444  3
   1148   1136   1138   1152     1  0.0000000  0.6508444  3
   1149   1137   1135   1160     1  0.0000000  0.6508444  3
   1149   1137   1140   1153     1  0.0000000  0.6508444  3
   1149   1137   1140   1154     1  0.0000000  0.6508444  3
   1150   1137   1135   1160     1  0.0000000  0.6508444  3
   1150   1137   1140   1153     1  0.0000000  0.6508444  3
   1150   1137   1140   1154     1  0.0000000  0.6508444  3
   1151   1138   1139   2340     1  180.0000771  0.0000000  2
   1152   1138   1139   2340     1  180.0000771  0.0000000  2
   1153   1140   1141   2366     1  180.0000771  0.0000000  2
   1154   1140   1141   2366     1  180.0000771  0.0000000  2
   1155   1142   1135   1160     1  0.0000000  0.6508444  3
   1155   1142   1143   1157     1  0.0000000  0.6508444  3
   1155   1142   1143   1158     1  0.0000000  0.6508444  3
   1156   1142   1135   1160     1  0.0000000  0.6508444  3
   1156   1142   1143   1157     1  0.0000000  0.6508444  3
   1156   1142   1143   1158     1  0.0000000  0.6508444  3
   1157   1143   1144   1159     1  0.0000000  0.0000000  2
   1158   1143   1144   1159     1  0.0000000  0.0000000  2
   1161   1162   1164   1177     1  0.0000000  0.6508444  3
   1161   1162   1164   1178     1  0.0000000  0.6508444  3
   1161   1163   1166   1179     1  0.0000000  0.6508444  3
   1161   1163   1166   1180     1  0.0000000  0.6508444  3
   1161   1168   1169   1183     1  0.0000000  0.6508444  3
   1161   1168   1169   1184     1  0.0000000  0.6508444  3
   1162   1161   1163   1175     1  0.0000000  0.6508444  3
   1162   1161   1163   1176     1  0.0000000  0.6508444  3
   1162   1161   1168   1181     1  0.0000000  0.6508444  3
   1162   1161   1168   1182     1  0.0000000  0.6508444  3
   1163   1161   1162   1173     1  0.0000000  0.6508444  3
   1163   1161   1162   1174     1  0.0000000  0.6508444  3
   1163   1161   1168   1181     1  0.0000000  0.6508444  3
   1163   1161   1168   1182     1  0.0000000  0.6508444  3
   1164   1162   1161   1186     1  0.0000000  0.6508444  3
   1164   1165   2392   2407     1  180.0000771  10.4600000  2
   1165   1164   1162   1173     1  0.0000000  0.6508444  3
   1165   1164   1162   1174     1  0.0000000  0.6508444  3
   1165   2392   2391   2405     1  0.0000000  0.0000000  2
   1165   2392   2391   2406     1  0.0000000  0.0000000  2
   1166   1163   1161   1186     1  0.0000000  0.6508444  3
   1166   1167   2418   2433     1  180.0000771  10.4600000  2
   1167   1166   1163   1175     1  0.0000000  0.6508444  3
   1167   1166   1163   1176     1  0.0000000  0.6508444  3
   1167   2418   2417   2431     1  0.0000000  0.0000000  2
   1167   2418   2417   2432     1  0.0000000  0.0000000  2
   1168   1161   1162   1173     1  0.0000000  0.6508444  3
   1168   1161   1162   1174     1  0.0000000  0.6508444  3
   1168   1161   1163   1175     1  0.0000000  0.6508444  3
   1168   1161   1163   1176     1  0.0000000  0.6508444  3
   1168   1169   1170   1185     1  0.0000000  0.0000000  2
   1169   1168   1161   1186     1  0.0000000  0.6508444  3
   1170   1169   1168   1181     1  0.0000000  0.6508444  3
   1170   1169   1168   1182     1  0.0000000  0.6508444  3
   1171   1165   1164   1177     1  0.0000000  3.3472000  1
   1171   1165   1164   1177     1  0.0000000  0.0000000  2
   1171   1165   1164   1177     1  180.0000771  0.3347200  3
   1171   1165   1164   1178     1  0.0000000  3.3472000  1
   1171   1165   1164   1178     1  0.0000000  0.0000000  2
   1171   1165   1164   1178     1  180.0000771  0.3347200  3
   1171   1165   2392   2407     1  0.0000000  8.3680000  1
   1171   1165   2392   2407     1  180.0000771  10.4600000  2
   1172   1167   1166   1179     1  0.0000000  3.3472000  1
   1172   1167   1166   1179     1  0.0000000  0.0000000  2
   1172   1167   1166   1179     1  180.0000771  0.3347200  3
   1172   1167   1166   1180     1  0.0000000  3.3472000  1
   1172   1167   1166   1180     1  0.0000000  0.0000000  2
   1172   1167   1166   1180     1  180.0000771  0.3347200  3
   1172   1167   2418   2433     1  0.0000000  8.3680000  1
   1172   1167   2418   2433     1  180.0000771  10.4600000  2
   1173   1162   1161   1186     1  0.0000000  0.6508444  3
   1173   1162   1164   1177     1  0.0000000  0.6508444  3
   1173   1162   1164   1178     1  0.0000000  0.6508444  3
   1174   1162   1161   1186     1  0.0000000  0.6508444  3
   1174   1162   1164   1177     1  0.0000000  0.6508444  3
   1174   1162   1164   1178     1  0.0000000  0.6508444  3
   1175   1163   1161   1186     1  0.0000000  0.6508444  3
   1175   1163   1166   1179     1  0.0000000  0.6508444  3
   1175   1163   1166   1180     1  0.0000000  0.6508444  3
   1176   1163   1161   1186     1  0.0000000  0.6508444  3
   1176   1163   1166   1179     1  0.0000000  0.6508444  3
   1176   1163   1166   1180     1  0.0000000  0.6508444  3
   1177   1164   1165   2392     1  180.0000771  0.0000000  2
   1178   1164   1165   2392     1  180.0000771  0.0000000  2
   1179   1166   1167   2418     1  180.0000771  0.0000000  2
   1180   1166   1167   2418     1  180.0000771  0.0000000  2
   1181   1168   1161   1186     1  0.0000000  0.6508444  3
   1181   1168   1169   1183     1  0.0000000  0.6508444  3
   1181   1168   1169   1184     1  0.0000000  0.6508444  3
   1182   1168   1161   1186     1  0.0000000  0.6508444  3
   1182   1168   1169   1183     1  0.0000000  0.6508444  3
   1182   1168   1169   1184     1  0.0000000  0.6508444  3
   1183   1169   1170   1185     1  0.0000000  0.0000000  2
   1184   1169   1170   1185     1  0.0000000  0.0000000  2
   1187   1188   1190   1203     1  0.0000000  0.6508444  3
   1187   1188   1190   1204     1  0.0000000  0.6508444  3
   1187   1189   1192   1205     1  0.0000000  0.6508444  3
   1187   1189   1192   1206     1  0.0000000  0.6508444  3
   1187   1194   1195   1209     1  0.0000000  0.6508444  3
   1187   1194   1195   1210     1  0.0000000  0.6508444  3
   1188   1187   1189   1201     1  0.0000000  0.6508444  3
   1188   1187   1189   1202     1  0.0000000  0.6508444  3
   1188   1187   1194   1207     1  0.0000000  0.6508444  3
   1188   1187   1194   1208     1  0.0000000  0.6508444  3
   1189   1187   1188   1199     1  0.0000000  0.6508444  3
   1189   1187   1188   1200     1  0.0000000  0.6508444  3
   1189   1187   1194   1207     1  0.0000000  0.6508444  3
   1189   1187   1194   1208     1  0.0000000  0.6508444  3
   1190   1188   1187   1212     1  0.0000000  0.6508444  3
   1190   1191   2444   2459     1  180.0000771  10.4600000  2
   1191   1190   1188   1199     1  0.0000000  0.6508444  3
   1191   1190   1188   1200     1  0.0000000  0.6508444  3
   1191   2444   2443   2457     1  0.0000000  0.0000000  2
   1191   2444   2443   2458     1  0.0000000  0.0000000  2
   1192   1189   1187   1212     1  0.0000000  0.6508444  3
   1192   1193   2470   2485     1  180.0000771  10.4600000  2
   1193   1192   1189   1201     1  0.0000000  0.6508444  3
   1193   1192   1189   1202     1  0.0000000  0.6508444  3
   1193   2470   2469   2483     1  0.0000000  0.0000000  2
   1193   2470   2469   2484     1  0.0000000  0.0000000  2
   1194   1187   1188   1199     1  0.0000000  0.6508444  3
   1194   1187   1188   1200     1  0.0000000  0.6508444  3
   1194   1187   1189   1201     1  0.0000000  0.6508444  3
   1194   1187   1189   1202     1  0.0000000  0.6508444  3
   1194   1195   1196   1211     1  0.0000000  0.0000000  2
   1195   1194   1187   1212     1  0.0000000  0.6508444  3
   1196   1195   1194   1207     1  0.0000000  0.6508444  3
   1196   1195   1194   1208     1  0.0000000  0.6508444  3
   1197   1191   1190   1203     1  0.0000000  3.3472000  1
   1197   1191   1190   1203     1  0.0000000  0.0000000  2
   1197   1191   1190   1203     1  180.0000771  0.3347200  3
   1197   1191   1190   1204     1  0.0000000  3.3472000  1
   1197   1191   1190   1204     1  0.0000000  0.0000000  2
   1197   1191   1190   1204     1  180.0000771  0.3347200  3
   1197   1191   2444   2459     1  0.0000000  8.3680000  1
   1197   1191   2444   2459     1  180.0000771  10.4600000  2
   1198   1193   1192   1205     1  0.0000000  3.3472000  1
   1198   1193   1192   1205     1  0.0000000  0.0000000  2
   1198   1193   1192   1205     1  180.0000771  0.3347200  3
   1198   1193   1192   1206     1  0.0000000  3.3472000  1
   1198   1193   1192   1206     1  0.0000000  0.0000000  2
   1198   1193   1192   1206     1  180.0000771  0.3347200  3
   1198   1193   2470   2485     1  0.0000000  8.3680000  1
   1198   1193   2470   2485     1  180.0000771  10.4600000  2
   1199   1188   1187   1212     1  0.0000000  0.6508444  3
   1199   1188   1190   1203     1  0.0000000  0.6508444  3
   1199   1188   1190   1204     1  0.0000000  0.6508444  3
   1200   1188   1187   1212     1  0.0000000  0.6508444  3
   1200   1188   1190   1203     1  0.0000000  0.6508444  3
   1200   1188   1190   1204     1  0.0000000  0.6508444  3
   1201   1189   1187   1212     1  0.0000000  0.6508444  3
   1201   1189   1192   1205     1  0.0000000  0.6508444  3
   1201   1189   1192   1206     1  0.0000000  0.6508444  3
   1202   1189   1187   1212     1  0.0000000  0.6508444  3
   1202   1189   1192   1205     1  0.0000000  0.6508444  3
   1202   1189   1192   1206     1  0.0000000  0.6508444  3
   1203   1190   1191   2444     1  180.0000771  0.0000000  2
   1204   1190   1191   2444     1  180.0000771  0.0000000  2
   1205   1192   1193   2470     1  180.0000771  0.0000000  2
   1206   1192   1193   2470     1  180.0000771  0.0000000  2
   1207   1194   1187   1212     1  0.0000000  0.6508444  3
   1207   1194   1195   1209     1  0.0000000  0.6508444  3
   1207   1194   1195   1210     1  0.0000000  0.6508444  3
   1208   1194   1187   1212     1  0.0000000  0.6508444  3
   1208   1194   1195   1209     1  0.0000000  0.6508444  3
   1208   1194   1195   1210     1  0.0000000  0.6508444  3
   1209   1195   1196   1211     1  0.0000000  0.0000000  2
   1210   1195   1196   1211     1  0.0000000  0.0000000  2
   1213   1214   1216   1229     1  0.0000000  0.6508444  3
   1213   1214   1216   1230     1  0.0000000  0.6508444  3
   1213   1215   1218   1231     1  0.0000000  0.6508444  3
   1213   1215   1218   1232     1  0.0000000  0.6508444  3
   1213   1220   1221   1235     1  0.0000000  0.6508444  3
   1213   1220   1221   1236     1  0.0000000  0.6508444  3
   1214   1213   1215   1227     1  0.0000000  0.6508444  3
   1214   1213   1215   1228     1  0.0000000  0.6508444  3
   1214   1213   1220   1233     1  0.0000000  0.6508444  3
   1214   1213   1220   1234     1  0.0000000  0.6508444  3
   1215   1213   1214   1225     1  0.0000000  0.6508444  3
   1215   1213   1214   1226     1  0.0000000  0.6508444  3
   1215   1213   1220   1233     1  0.0000000  0.6508444  3
   1215   1213   1220   1234     1  0.0000000  0.6508444  3
   1216   1214   1213   1238     1  0.0000000  0.6508444  3
   1216   1217   2496   2511     1  180.0000771  10.4600000  2
   1217   1216   1214   1225     1  0.0000000  0.6508444  3
   1217   1216   1214   1226     1  0.0000000  0.6508444  3
   1217   2496   2495   2509     1  0.0000000  0.0000000  2
   1217   2496   2495   2510     1  0.0000000  0.0000000  2
   1218   1215   1213   1238     1  0.0000000  0.6508444  3
   1218   1219   2522   2537     1  180.0000771  10.4600000  2
   1219   1218   1215   1227     1  0.0000000  0.6508444  3
   1219   1218   1215   1228     1  0.0000000  0.6508444  3
   1219   2522   2521   2535     1  0.0000000  0.0000000  2
   1219   2522   2521   2536     1  0.0000000  0.0000000  2
   1220   1213   1214   1225     1  0.0000000  0.6508444  3
   1220   1213   1214   1226     1  0.0000000  0.6508444  3
   1220   1213   1215   1227     1  0.0000000  0.6508444  3
   1220   1213   1215   1228     1  0.0000000  0.6508444  3
   1220   1221   1222   1237     1  0.0000000  0.0000000  2
   1221   1220   1213   1238     1  0.0000000  0.6508444  3
   1222   1221   1220   1233     1  0.0000000  0.6508444  3
   1222   1221   1220   1234     1  0.0000000  0.6508444  3
   1223   1217   1216   1229     1  0.0000000  3.3472000  1
   1223   1217   1216   1229     1  0.0000000  0.0000000  2
   1223   1217   1216   1229     1  180.0000771  0.3347200  3
   1223   1217   1216   1230     1  0.0000000  3.3472000  1
   1223   1217   1216   1230     1  0.0000000  0.0000000  2
   1223   1217   1216   1230     1  180.0000771  0.3347200  3
   1223   1217   2496   2511     1  0.0000000  8.3680000  1
   1223   1217   2496   2511     1  180.0000771  10.4600000  2
   1224   1219   1218   1231     1  0.0000000  3.3472000  1
   1224   1219   1218   1231     1  0.0000000  0.0000000  2
   1224   1219   1218   1231     1  180.0000771  0.3347200  3
   1224   1219   1218   1232     1  0.0000000  3.3472000  1
   1224   1219   1218   1232     1  0.0000000  0.0000000  2
   1224   1219   1218   1232     1  180.0000771  0.3347200  3
   1224   1219   2522   2537     1  0.0000000  8.3680000  1
   1224   1219   2522   2537     1  180.0000771  10.4600000  2
   1225   1214   1213   1238     1  0.0000000  0.6508444  3
   1225   1214   1216   1229     1  0.0000000  0.6508444  3
   1225   1214   1216   1230     1  0.0000000  0.6508444  3
   1226   1214   1213   1238     1  0.0000000  0.6508444  3
   1226   1214   1216   1229     1  0.0000000  0.6508444  3
   1226   1214   1216   1230     1  0.0000000  0.6508444  3
   1227   1215   1213   1238     1  0.0000000  0.6508444  3
   1227   1215   1218   1231     1  0.0000000  0.6508444  3
   1227   1215   1218   1232     1  0.0000000  0.6508444  3
   1228   1215   1213   1238     1  0.0000000  0.6508444  3
   1228   1215   1218   1231     1  0.0000000  0.6508444  3
   1228   1215   1218   1232     1  0.0000000  0.6508444  3
   1229   1216   1217   2496     1  180.0000771  0.0000000  2
   1230   1216   1217   2496     1  180.0000771  0.0000000  2
   1231   1218   1219   2522     1  180.0000771  0.0000000  2
   1232   1218   1219   2522     1  180.0000771  0.0000000  2
   1233   1220   1213   1238     1  0.0000000  0.6508444  3
   1233   1220   1221   1235     1  0.0000000  0.6508444  3
   1233   1220   1221   1236     1  0.0000000  0.6508444  3
   1234   1220   1213   1238     1  0.0000000  0.6508444  3
   1234   1220   1221   1235     1  0.0000000  0.6508444  3
   1234   1220   1221   1236     1  0.0000000  0.6508444  3
   1235   1221   1222   1237     1  0.0000000  0.0000000  2
   1236   1221   1222   1237     1  0.0000000  0.0000000  2
   1239   1240   1242   1255     1  0.0000000  0.6508444  3
   1239   1240   1242   1256     1  0.0000000  0.6508444  3
   1239   1241   1244   1257     1  0.0000000  0.6508444  3
   1239   1241   1244   1258     1  0.0000000  0.6508444  3
   1239   1246   1247   1261     1  0.0000000  0.6508444  3
   1239   1246   1247   1262     1  0.0000000  0.6508444  3
   1240   1239   1241   1253     1  0.0000000  0.6508444  3
   1240   1239   1241   1254     1  0.0000000  0.6508444  3
   1240   1239   1246   1259     1  0.0000000  0.6508444  3
   1240   1239   1246   1260     1  0.0000000  0.6508444  3
   1241   1239   1240   1251     1  0.0000000  0.6508444  3
   1241   1239   1240   1252     1  0.0000000  0.6508444  3
   1241   1239   1246   1259     1  0.0000000  0.6508444  3
   1241   1239   1246   1260     1  0.0000000  0.6508444  3
   1242   1240   1239   1264     1  0.0000000  0.6508444  3
   1242   1243   2548   2563     1  180.0000771  10.4600000  2
   1243   1242   1240   1251     1  0.0000000  0.6508444  3
   1243   1242   1240   1252     1  0.0000000  0.6508444  3
   1243   2548   2547   2561     1  0.0000000  0.0000000  2
   1243   2548   2547   2562     1  0.0000000  0.0000000  2
   1244   1241   1239   1264     1  0.0000000  0.6508444  3
   1244   1245   2574   2589     1  180.0000771  10.4600000  2
   1245   1244   1241   1253     1  0.0000000  0.6508444  3
   1245   1244   1241   1254     1  0.0000000  0.6508444  3
   1245   2574   2573   2587     1  0.0000000  0.0000000  2
   1245   2574   2573   2588     1  0.0000000  0.0000000  2
   1246   1239   1240   1251     1  0.0000000  0.6508444  3
   1246   1239   1240   1252     1  0.0000000  0.6508444  3
   1246   1239   1241   1253     1  0.0000000  0.6508444  3
   1246   1239   1241   1254     1  0.0000000  0.6508444  3
   1246   1247   1248   1263     1  0.0000000  0.0000000  2
   1247   1246   1239   1264     1  0.0000000  0.6508444  3
   1248   1247   1246   1259     1  0.0000000  0.6508444  3
   1248   1247   1246   1260     1  0.0000000  0.6508444  3
   1249   1243   1242   1255     1  0.0000000  3.3472000  1
   1249   1243   1242   1255     1  0.0000000  0.0000000  2
   1249   1243   1242   1255     1  180.0000771  0.3347200  3
   1249   1243   1242   1256     1  0.0000000  3.3472000  1
   1249   1243   1242   1256     1  0.0000000  0.0000000  2
   1249   1243   1242   1256     1  180.0000771  0.3347200  3
   1249   1243   2548   2563     1  0.0000000  8.3680000  1
   1249   1243   2548   2563     1  180.0000771  10.4600000  2
   1250   1245   1244   1257     1  0.0000000  3.3472000  1
   1250   1245   1244   1257     1  0.0000000  0.0000000  2
   1250   1245   1244   1257     1  180.0000771  0.3347200  3
   1250   1245   1244   1258     1  0.0000000  3.3472000  1
   1250   1245   1244   1258     1  0.0000000  0.0000000  2
   1250   1245   1244   1258     1  180.0000771  0.3347200  3
   1250   1245   2574   2589     1  0.0000000  8.3680000  1
   1250   1245   2574   2589     1  180.0000771  10.4600000  2
   1251   1240   1239   1264     1  0.0000000  0.6508444  3
   1251   1240   1242   1255     1  0.0000000  0.6508444  3
   1251   1240   1242   1256     1  0.0000000  0.6508444  3
   1252   1240   1239   1264     1  0.0000000  0.6508444  3
   1252   1240   1242   1255     1  0.0000000  0.6508444  3
   1252   1240   1242   1256     1  0.0000000  0.6508444  3
   1253   1241   1239   1264     1  0.0000000  0.6508444  3
   1253   1241   1244   1257     1  0.0000000  0.6508444  3
   1253   1241   1244   1258     1  0.0000000  0.6508444  3
   1254   1241   1239   1264     1  0.0000000  0.6508444  3
   1254   1241   1244   1257     1  0.0000000  0.6508444  3
   1254   1241   1244   1258     1  0.0000000  0.6508444  3
   1255   1242   1243   2548     1  180.0000771  0.0000000  2
   1256   1242   1243   2548     1  180.0000771  0.0000000  2
   1257   1244   1245   2574     1  180.0000771  0.0000000  2
   1258   1244   1245   2574     1  180.0000771  0.0000000  2
   1259   1246   1239   1264     1  0.0000000  0.6508444  3
   1259   1246   1247   1261     1  0.0000000  0.6508444  3
   1259   1246   1247   1262     1  0.0000000  0.6508444  3
   1260   1246   1239   1264     1  0.0000000  0.6508444  3
   1260   1246   1247   1261     1  0.0000000  0.6508444  3
   1260   1246   1247   1262     1  0.0000000  0.6508444  3
   1261   1247   1248   1263     1  0.0000000  0.0000000  2
   1262   1247   1248   1263     1  0.0000000  0.0000000  2
   1265   1266   1268   1281     1  0.0000000  0.6508444  3
   1265   1266   1268   1282     1  0.0000000  0.6508444  3
   1265   1267   1270   1283     1  0.0000000  0.6508444  3
   1265   1267   1270   1284     1  0.0000000  0.6508444  3
   1265   1272   1273   1287     1  0.0000000  0.6508444  3
   1265   1272   1273   1288     1  0.0000000  0.6508444  3
   1266   1265   1267   1279     1  0.0000000  0.6508444  3
   1266   1265   1267   1280     1  0.0000000  0.6508444  3
   1266   1265   1272   1285     1  0.0000000  0.6508444  3
   1266   1265   1272   1286     1  0.0000000  0.6508444  3
   1267   1265   1266   1277     1  0.0000000  0.6508444  3
   1267   1265   1266   1278     1  0.0000000  0.6508444  3
   1267   1265   1272   1285     1  0.0000000  0.6508444  3
   1267   1265   1272   1286     1  0.0000000  0.6508444  3
   1268   1266   1265   1290     1  0.0000000  0.6508444  3
   1268   1269   2600   2615     1  180.0000771  10.4600000  2
   1269   1268   1266   1277     1  0.0000000  0.6508444  3
   1269   1268   1266   1278     1  0.0000000  0.6508444  3
   1269   2600   2599   2613     1  0.0000000  0.0000000  2
   1269   2600   2599   2614     1  0.0000000  0.0000000  2
   1270   1267   1265   1290     1  0.0000000  0.6508444  3
   1270   1271   2626   2641     1  180.0000771  10.4600000  2
   1271   1270   1267   1279     1  0.0000000  0.6508444  3
   1271   1270   1267   1280     1  0.0000000  0.6508444  3
   1271   2626   2625   2639     1  0.0000000  0.0000000  2
   1271   2626   2625   2640     1  0.0000000  0.0000000  2
   1272   1265   1266   1277     1  0.0000000  0.6508444  3
   1272   1265   1266   1278     1  0.0000000  0.6508444  3
   1272   1265   1267   1279     1  0.0000000  0.6508444  3
   1272   1265   1267   1280     1  0.0000000  0.6508444  3
   1272   1273   1274   1289     1  0.0000000  0.0000000  2
   1273   1272   1265   1290     1  0.0000000  0.6508444  3
   1274   1273   1272   1285     1  0.0000000  0.6508444  3
   1274   1273   1272   1286     1  0.0000000  0.6508444  3
   1275   1269   1268   1281     1  0.0000000  3.3472000  1
   1275   1269   1268   1281     1  0.0000000  0.0000000  2
   1275   1269   1268   1281     1  180.0000771  0.3347200  3
   1275   1269   1268   1282     1  0.0000000  3.3472000  1
   1275   1269   1268   1282     1  0.0000000  0.0000000  2
   1275   1269   1268   1282     1  180.0000771  0.3347200  3
   1275   1269   2600   2615     1  0.0000000  8.3680000  1
   1275   1269   2600   2615     1  180.0000771  10.4600000  2
   1276   1271   1270   1283     1  0.0000000  3.3472000  1
   1276   1271   1270   1283     1  0.0000000  0.0000000  2
   1276   1271   1270   1283     1  180.0000771  0.3347200  3
   1276   1271   1270   1284     1  0.0000000  3.3472000  1
   1276   1271   1270   1284     1  0.0000000  0.0000000  2
   1276   1271   1270   1284     1  180.0000771  0.3347200  3
   1276   1271   2626   2641     1  0.0000000  8.3680000  1
   1276   1271   2626   2641     1  180.0000771  10.4600000  2
   1277   1266   1265   1290     1  0.0000000  0.6508444  3
   1277   1266   1268   1281     1  0.0000000  0.6508444  3
   1277   1266   1268   1282     1  0.0000000  0.6508444  3
   1278   1266   1265   1290     1  0.0000000  0.6508444  3
   1278   1266   1268   1281     1  0.0000000  0.6508444  3
   1278   1266   1268   1282     1  0.0000000  0.6508444  3
   1279   1267   1265   1290     1  0.0000000  0.6508444  3
   1279   1267   1270   1283     1  0.0000000  0.6508444  3
   1279   1267   1270   1284     1  0.0000000  0.6508444  3
   1280   1267   1265   1290     1  0.0000000  0.6508444  3
   1280   1267   1270   1283     1  0.0000000  0.6508444  3
   1280   1267   1270   1284     1  0.0000000  0.6508444  3
   1281   1268   1269   2600     1  180.0000771  0.0000000  2
   1282   1268   1269   2600     1  180.0000771  0.0000000  2
   1283   1270   1271   2626     1  180.0000771  0.0000000  2
   1284   1270   1271   2626     1  180.0000771  0.0000000  2
   1285   1272   1265   1290     1  0.0000000  0.6508444  3
   1285   1272   1273   1287     1  0.0000000  0.6508444  3
   1285   1272   1273   1288     1  0.0000000  0.6508444  3
   1286   1272   1265   1290     1  0.0000000  0.6508444  3
   1286   1272   1273   1287     1  0.0000000  0.6508444  3
   1286   1272   1273   1288     1  0.0000000  0.6508444  3
   1287   1273   1274   1289     1  0.0000000  0.0000000  2
   1288   1273   1274   1289     1  0.0000000  0.0000000  2
   1291   1292   1294   1307     1  0.0000000  0.6508444  3
   1291   1292   1294   1308     1  0.0000000  0.6508444  3
   1291   1293   1296   1309     1  0.0000000  0.6508444  3
   1291   1293   1296   1310     1  0.0000000  0.6508444  3
   1291   1298   1299   1313     1  0.0000000  0.6508444  3
   1291   1298   1299   1314     1  0.0000000  0.6508444  3
   1292   1291   1293   1305     1  0.0000000  0.6508444  3
   1292   1291   1293   1306     1  0.0000000  0.6508444  3
   1292   1291   1298   1311     1  0.0000000  0.6508444  3
   1292   1291   1298   1312     1  0.0000000  0.6508444  3
   1293   1291   1292   1303     1  0.0000000  0.6508444  3
   1293   1291   1292   1304     1  0.0000000  0.6508444  3
   1293   1291   1298   1311     1  0.0000000  0.6508444  3
   1293   1291   1298   1312     1  0.0000000  0.6508444  3
   1294   1292   1291   1316     1  0.0000000  0.6508444  3
   1294   1295   2652   2667     1  180.0000771  10.4600000  2
   1295   1294   1292   1303     1  0.0000000  0.6508444  3
   1295   1294   1292   1304     1  0.0000000  0.6508444  3
   1295   2652   2651   2665     1  0.0000000  0.0000000  2
   1295   2652   2651   2666     1  0.0000000  0.0000000  2
   1296   1293   1291   1316     1  0.0000000  0.6508444  3
   1296   1297   2678   2693     1  180.0000771  10.4600000  2
   1297   1296   1293   1305     1  0.0000000  0.6508444  3
   1297   1296   1293   1306     1  0.0000000  0.6508444  3
   1297   2678   2677   2691     1  0.0000000  0.0000000  2
   1297   2678   2677   2692     1  0.0000000  0.0000000  2
   1298   1291   1292   1303     1  0.0000000  0.6508444  3
   1298   1291   1292   1304     1  0.0000000  0.6508444  3
   1298   1291   1293   1305     1  0.0000000  0.6508444  3
   1298   1291   1293   1306     1  0.0000000  0.6508444  3
   1298   1299   1300   1315     1  0.0000000  0.0000000  2
   1299   1298   1291   1316     1  0.0000000  0.6508444  3
   1300   1299   1298   1311     1  0.0000000  0.6508444  3
   1300   1299   1298   1312     1  0.0000000  0.6508444  3
   1301   1295   1294   1307     1  0.0000000  3.3472000  1
   1301   1295   1294   1307     1  0.0000000  0.0000000  2
   1301   1295   1294   1307     1  180.0000771  0.3347200  3
   1301   1295   1294   1308     1  0.0000000  3.3472000  1
   1301   1295   1294   1308     1  0.0000000  0.0000000  2
   1301   1295   1294   1308     1  180.0000771  0.3347200  3
   1301   1295   2652   2667     1  0.0000000  8.3680000  1
   1301   1295   2652   2667     1  180.0000771  10.4600000  2
   1302   1297   1296   1309     1  0.0000000  3.3472000  1
   1302   1297   1296   1309     1  0.0000000  0.0000000  2
   1302   1297   1296   1309     1  180.0000771  0.3347200  3
   1302   1297   1296   1310     1  0.0000000  3.3472000  1
   1302   1297   1296   1310     1  0.0000000  0.0000000  2
   1302   1297   1296   1310     1  180.0000771  0.3347200  3
   1302   1297   2678   2693     1  0.0000000  8.3680000  1
   1302   1297   2678   2693     1  180.0000771  10.4600000  2
   1303   1292   1291   1316     1  0.0000000  0.6508444  3
   1303   1292   1294   1307     1  0.0000000  0.6508444  3
   1303   1292   1294   1308     1  0.0000000  0.6508444  3
   1304   1292   1291   1316     1  0.0000000  0.6508444  3
   1304   1292   1294   1307     1  0.0000000  0.6508444  3
   1304   1292   1294   1308     1  0.0000000  0.6508444  3
   1305   1293   1291   1316     1  0.0000000  0.6508444  3
   1305   1293   1296   1309     1  0.0000000  0.6508444  3
   1305   1293   1296   1310     1  0.0000000  0.6508444  3
   1306   1293   1291   1316     1  0.0000000  0.6508444  3
   1306   1293   1296   1309     1  0.0000000  0.6508444  3
   1306   1293   1296   1310     1  0.0000000  0.6508444  3
   1307   1294   1295   2652     1  180.0000771  0.0000000  2
   1308   1294   1295   2652     1  180.0000771  0.0000000  2
   1309   1296   1297   2678     1  180.0000771  0.0000000  2
   1310   1296   1297   2678     1  180.0000771  0.0000000  2
   1311   1298   1291   1316     1  0.0000000  0.6508444  3
   1311   1298   1299   1313     1  0.0000000  0.6508444  3
   1311   1298   1299   1314     1  0.0000000  0.6508444  3
   1312   1298   1291   1316     1  0.0000000  0.6508444  3
   1312   1298   1299   1313     1  0.0000000  0.6508444  3
   1312   1298   1299   1314     1  0.0000000  0.6508444  3
   1313   1299   1300   1315     1  0.0000000  0.0000000  2
   1314   1299   1300   1315     1  0.0000000  0.0000000  2
   1317   1318   1320   1333     1  0.0000000  0.6508444  3
   1317   1318   1320   1334     1  0.0000000  0.6508444  3
   1317   1319   1322   1335     1  0.0000000  0.6508444  3
   1317   1319   1322   1336     1  0.0000000  0.6508444  3
   1317   1324   1325   1339     1  0.0000000  0.6508444  3
   1317   1324   1325   1340     1  0.0000000  0.6508444  3
   1318   1317   1319   1331     1  0.0000000  0.6508444  3
   1318   1317   1319   1332     1  0.0000000  0.6508444  3
   1318   1317   1324   1337     1  0.0000000  0.6508444  3
   1318   1317   1324   1338     1  0.0000000  0.6508444  3
   1319   1317   1318   1329     1  0.0000000  0.6508444  3
   1319   1317   1318   1330     1  0.0000000  0.6508444  3
   1319   1317   1324   1337     1  0.0000000  0.6508444  3
   1319   1317   1324   1338     1  0.0000000  0.6508444  3
   1320   1318   1317   1342     1  0.0000000  0.6508444  3
   1320   1321   2704   2719     1  180.0000771  10.4600000  2
   1321   1320   1318   1329     1  0.0000000  0.6508444  3
   1321   1320   1318   1330     1  0.0000000  0.6508444  3
   1321   2704   2703   2717     1  0.0000000  0.0000000  2
   1321   2704   2703   2718     1  0.0000000  0.0000000  2
   1322   1319   1317   1342     1  0.0000000  0.6508444  3
   1322   1323   2730   2745     1  180.0000771  10.4600000  2
   1323   1322   1319   1331     1  0.0000000  0.6508444  3
   1323   1322   1319   1332     1  0.0000000  0.6508444  3
   1323   2730   2729   2743     1  0.0000000  0.0000000  2
   1323   2730   2729   2744     1  0.0000000  0.0000000  2
   1324   1317   1318   1329     1  0.0000000  0.6508444  3
   1324   1317   1318   1330     1  0.0000000  0.6508444  3
   1324   1317   1319   1331     1  0.0000000  0.6508444  3
   1324   1317   1319   1332     1  0.0000000  0.6508444  3
   1324   1325   1326   1341     1  0.0000000  0.0000000  2
   1325   1324   1317   1342     1  0.0000000  0.6508444  3
   1326   1325   1324   1337     1  0.0000000  0.6508444  3
   1326   1325   1324   1338     1  0.0000000  0.6508444  3
   1327   1321   1320   1333     1  0.0000000  3.3472000  1
   1327   1321   1320   1333     1  0.0000000  0.0000000  2
   1327   1321   1320   1333     1  180.0000771  0.3347200  3
   1327   1321   1320   1334     1  0.0000000  3.3472000  1
   1327   1321   1320   1334     1  0.0000000  0.0000000  2
   1327   1321   1320   1334     1  180.0000771  0.3347200  3
   1327   1321   2704   2719     1  0.0000000  8.3680000  1
   1327   1321   2704   2719     1  180.0000771  10.4600000  2
   1328   1323   1322   1335     1  0.0000000  3.3472000  1
   1328   1323   1322   1335     1  0.0000000  0.0000000  2
   1328   1323   1322   1335     1  180.0000771  0.3347200  3
   1328   1323   1322   1336     1  0.0000000  3.3472000  1
   1328   1323   1322   1336     1  0.0000000  0.0000000  2
   1328   1323   1322   1336     1  180.0000771  0.3347200  3
   1328   1323   2730   2745     1  0.0000000  8.3680000  1
   1328   1323   2730   2745     1  180.0000771  10.4600000  2
   1329   1318   1317   1342     1  0.0000000  0.6508444  3
   1329   1318   1320   1333     1  0.0000000  0.6508444  3
   1329   1318   1320   1334     1  0.0000000  0.6508444  3
   1330   1318   1317   1342     1  0.0000000  0.6508444  3
   1330   1318   1320   1333     1  0.0000000  0.6508444  3
   1330   1318   1320   1334     1  0.0000000  0.6508444  3
   1331   1319   1317   1342     1  0.0000000  0.6508444  3
   1331   1319   1322   1335     1  0.0000000  0.6508444  3
   1331   1319   1322   1336     1  0.0000000  0.6508444  3
   1332   1319   1317   1342     1  0.0000000  0.6508444  3
   1332   1319   1322   1335     1  0.0000000  0.6508444  3
   1332   1319   1322   1336     1  0.0000000  0.6508444  3
   1333   1320   1321   2704     1  180.0000771  0.0000000  2
   1334   1320   1321   2704     1  180.0000771  0.0000000  2
   1335   1322   1323   2730     1  180.0000771  0.0000000  2
   1336   1322   1323   2730     1  180.0000771  0.0000000  2
   1337   1324   1317   1342     1  0.0000000  0.6508444  3
   1337   1324   1325   1339     1  0.0000000  0.6508444  3
   1337   1324   1325   1340     1  0.0000000  0.6508444  3
   1338   1324   1317   1342     1  0.0000000  0.6508444  3
   1338   1324   1325   1339     1  0.0000000  0.6508444  3
   1338   1324   1325   1340     1  0.0000000  0.6508444  3
   1339   1325   1326   1341     1  0.0000000  0.0000000  2
   1340   1325   1326   1341     1  0.0000000  0.0000000  2
   1343   1344   1346   1359     1  0.0000000  0.6508444  3
   1343   1344   1346   1360     1  0.0000000  0.6508444  3
   1343   1345   1348   1361     1  0.0000000  0.6508444  3
   1343   1345   1348   1362     1  0.0000000  0.6508444  3
   1343   1350   1351   1365     1  0.0000000  0.6508444  3
   1343   1350   1351   1366     1  0.0000000  0.6508444  3
   1344   1343   1345   1357     1  0.0000000  0.6508444  3
   1344   1343   1345   1358     1  0.0000000  0.6508444  3
   1344   1343   1350   1363     1  0.0000000  0.6508444  3
   1344   1343   1350   1364     1  0.0000000  0.6508444  3
   1345   1343   1344   1355     1  0.0000000  0.6508444  3
   1345   1343   1344   1356     1  0.0000000  0.6508444  3
   1345   1343   1350   1363     1  0.0000000  0.6508444  3
   1345   1343   1350   1364     1  0.0000000  0.6508444  3
   1346   1344   1343   1368     1  0.0000000  0.6508444  3
   1346   1347   2756   2771     1  180.0000771  10.4600000  2
   1347   1346   1344   1355     1  0.0000000  0.6508444  3
   1347   1346   1344   1356     1  0.0000000  0.6508444  3
   1347   2756   2755   2769     1  0.0000000  0.0000000  2
   1347   2756   2755   2770     1  0.0000000  0.0000000  2
   1348   1345   1343   1368     1  0.0000000  0.6508444  3
   1348   1349   2782   2797     1  180.0000771  10.4600000  2
   1349   1348   1345   1357     1  0.0000000  0.6508444  3
   1349   1348   1345   1358     1  0.0000000  0.6508444  3
   1349   2782   2781   2795     1  0.0000000  0.0000000  2
   1349   2782   2781   2796     1  0.0000000  0.0000000  2
   1350   1343   1344   1355     1  0.0000000  0.6508444  3
   1350   1343   1344   1356     1  0.0000000  0.6508444  3
   1350   1343   1345   1357     1  0.0000000  0.6508444  3
   1350   1343   1345   1358     1  0.0000000  0.6508444  3
   1350   1351   1352   1367     1  0.0000000  0.0000000  2
   1351   1350   1343   1368     1  0.0000000  0.6508444  3
   1352   1351   1350   1363     1  0.0000000  0.6508444  3
   1352   1351   1350   1364     1  0.0000000  0.6508444  3
   1353   1347   1346   1359     1  0.0000000  3.3472000  1
   1353   1347   1346   1359     1  0.0000000  0.0000000  2
   1353   1347   1346   1359     1  180.0000771  0.3347200  3
   1353   1347   1346   1360     1  0.0000000  3.3472000  1
   1353   1347   1346   1360     1  0.0000000  0.0000000  2
   1353   1347   1346   1360     1  180.0000771  0.3347200  3
   1353   1347   2756   2771     1  0.0000000  8.3680000  1
   1353   1347   2756   2771     1  180.0000771  10.4600000  2
   1354   1349   1348   1361     1  0.0000000  3.3472000  1
   1354   1349   1348   1361     1  0.0000000  0.0000000  2
   1354   1349   1348   1361     1  180.0000771  0.3347200  3
   1354   1349   1348   1362     1  0.0000000  3.3472000  1
   1354   1349   1348   1362     1  0.0000000  0.0000000  2
   1354   1349   1348   1362     1  180.0000771  0.3347200  3
   1354   1349   2782   2797     1  0.0000000  8.3680000  1
   1354   1349   2782   2797     1  180.0000771  10.4600000  2
   1355   1344   1343   1368     1  0.0000000  0.6508444  3
   1355   1344   1346   1359     1  0.0000000  0.6508444  3
   1355   1344   1346   1360     1  0.0000000  0.6508444  3
   1356   1344   1343   1368     1  0.0000000  0.6508444  3
   1356   1344   1346   1359     1  0.0000000  0.6508444  3
   1356   1344   1346   1360     1  0.0000000  0.6508444  3
   1357   1345   1343   1368     1  0.0000000  0.6508444  3
   1357   1345   1348   1361     1  0.0000000  0.6508444  3
   1357   1345   1348   1362     1  0.0000000  0.6508444  3
   1358   1345   1343   1368     1  0.0000000  0.6508444  3
   1358   1345   1348   1361     1  0.0000000  0.6508444  3
   1358   1345   1348   1362     1  0.0000000  0.6508444  3
   1359   1346   1347   2756     1  180.0000771  0.0000000  2
   1360   1346   1347   2756     1  180.0000771  0.0000000  2
   1361   1348   1349   2782     1  180.0000771  0.0000000  2
   1362   1348   1349   2782     1  180.0000771  0.0000000  2
   1363   1350   1343   1368     1  0.0000000  0.6508444  3
   1363   1350   1351   1365     1  0.0000000  0.6508444  3
   1363   1350   1351   1366     1  0.0000000  0.6508444  3
   1364   1350   1343   1368     1  0.0000000  0.6508444  3
   1364   1350   1351   1365     1  0.0000000  0.6508444  3
   1364   1350   1351   1366     1  0.0000000  0.6508444  3
   1365   1351   1352   1367     1  0.0000000  0.0000000  2
   1366   1351   1352   1367     1  0.0000000  0.0000000  2
   1369   1370   1372   1385     1  0.0000000  0.6508444  3
   1369   1370   1372   1386     1  0.0000000  0.6508444  3
   1369   1371   1374   1387     1  0.0000000  0.6508444  3
   1369   1371   1374   1388     1  0.0000000  0.6508444  3
   1369   1376   1377   1391     1  0.0000000  0.6508444  3
   1369   1376   1377   1392     1  0.0000000  0.6508444  3
   1370   1369   1371   1383     1  0.0000000  0.6508444  3
   1370   1369   1371   1384     1  0.0000000  0.6508444  3
   1370   1369   1376   1389     1  0.0000000  0.6508444  3
   1370   1369   1376   1390     1  0.0000000  0.6508444  3
   1371   1369   1370   1381     1  0.0000000  0.6508444  3
   1371   1369   1370   1382     1  0.0000000  0.6508444  3
   1371   1369   1376   1389     1  0.0000000  0.6508444  3
   1371   1369   1376   1390     1  0.0000000  0.6508444  3
   1372   1370   1369   1394     1  0.0000000  0.6508444  3
   1372   1373   2808   2823     1  180.0000771  10.4600000  2
   1373   1372   1370   1381     1  0.0000000  0.6508444  3
   1373   1372   1370   1382     1  0.0000000  0.6508444  3
   1373   2808   2807   2821     1  0.0000000  0.0000000  2
   1373   2808   2807   2822     1  0.0000000  0.0000000  2
   1374   1371   1369   1394     1  0.0000000  0.6508444  3
   1374   1375   2834   2849     1  180.0000771  10.4600000  2
   1375   1374   1371   1383     1  0.0000000  0.6508444  3
   1375   1374   1371   1384     1  0.0000000  0.6508444  3
   1375   2834   2833   2847     1  0.0000000  0.0000000  2
   1375   2834   2833   2848     1  0.0000000  0.0000000  2
   1376   1369   1370   1381     1  0.0000000  0.6508444  3
   1376   1369   1370   1382     1  0.0000000  0.6508444  3
   1376   1369   1371   1383     1  0.0000000  0.6508444  3
   1376   1369   1371   1384     1  0.0000000  0.6508444  3
   1376   1377   1378   1393     1  0.0000000  0.0000000  2
   1377   1376   1369   1394     1  0.0000000  0.6508444  3
   1378   1377   1376   1389     1  0.0000000  0.6508444  3
   1378   1377   1376   1390     1  0.0000000  0.6508444  3
   1379   1373   1372   1385     1  0.0000000  3.3472000  1
   1379   1373   1372   1385     1  0.0000000  0.0000000  2
   1379   1373   1372   1385     1  180.0000771  0.3347200  3
   1379   1373   1372   1386     1  0.0000000  3.3472000  1
   1379   1373   1372   1386     1  0.0000000  0.0000000  2
   1379   1373   1372   1386     1  180.0000771  0.3347200  3
   1379   1373   2808   2823     1  0.0000000  8.3680000  1
   1379   1373   2808   2823     1  180.0000771  10.4600000  2
   1380   1375   1374   1387     1  0.0000000  3.3472000  1
   1380   1375   1374   1387     1  0.0000000  0.0000000  2
   1380   1375   1374   1387     1  180.0000771  0.3347200  3
   1380   1375   1374   1388     1  0.0000000  3.3472000  1
   1380   1375   1374   1388     1  0.0000000  0.0000000  2
   1380   1375   1374   1388     1  180.0000771  0.3347200  3
   1380   1375   2834   2849     1  0.0000000  8.3680000  1
   1380   1375   2834   2849     1  180.0000771  10.4600000  2
   1381   1370   1369   1394     1  0.0000000  0.6508444  3
   1381   1370   1372   1385     1  0.0000000  0.6508444  3
   1381   1370   1372   1386     1  0.0000000  0.6508444  3
   1382   1370   1369   1394     1  0.0000000  0.6508444  3
   1382   1370   1372   1385     1  0.0000000  0.6508444  3
   1382   1370   1372   1386     1  0.0000000  0.6508444  3
   1383   1371   1369   1394     1  0.0000000  0.6508444  3
   1383   1371   1374   1387     1  0.0000000  0.6508444  3
   1383   1371   1374   1388     1  0.0000000  0.6508444  3
   1384   1371   1369   1394     1  0.0000000  0.6508444  3
   1384   1371   1374   1387     1  0.0000000  0.6508444  3
   1384   1371   1374   1388     1  0.0000000  0.6508444  3
   1385   1372   1373   2808     1  180.0000771  0.0000000  2
   1386   1372   1373   2808     1  180.0000771  0.0000000  2
   1387   1374   1375   2834     1  180.0000771  0.0000000  2
   1388   1374   1375   2834     1  180.0000771  0.0000000  2
   1389   1376   1369   1394     1  0.0000000  0.6508444  3
   1389   1376   1377   1391     1  0.0000000  0.6508444  3
   1389   1376   1377   1392     1  0.0000000  0.6508444  3
   1390   1376   1369   1394     1  0.0000000  0.6508444  3
   1390   1376   1377   1391     1  0.0000000  0.6508444  3
   1390   1376   1377   1392     1  0.0000000  0.6508444  3
   1391   1377   1378   1393     1  0.0000000  0.0000000  2
   1392   1377   1378   1393     1  0.0000000  0.0000000  2
   1395   1396   1398   1411     1  0.0000000  0.6508444  3
   1395   1396   1398   1412     1  0.0000000  0.6508444  3
   1395   1397   1400   1413     1  0.0000000  0.6508444  3
   1395   1397   1400   1414     1  0.0000000  0.6508444  3
   1395   1402   1403   1417     1  0.0000000  0.6508444  3
   1395   1402   1403   1418     1  0.0000000  0.6508444  3
   1396   1395   1397   1409     1  0.0000000  0.6508444  3
   1396   1395   1397   1410     1  0.0000000  0.6508444  3
   1396   1395   1402   1415     1  0.0000000  0.6508444  3
   1396   1395   1402   1416     1  0.0000000  0.6508444  3
   1397   1395   1396   1407     1  0.0000000  0.6508444  3
   1397   1395   1396   1408     1  0.0000000  0.6508444  3
   1397   1395   1402   1415     1  0.0000000  0.6508444  3
   1397   1395   1402   1416     1  0.0000000  0.6508444  3
   1398   1396   1395   1420     1  0.0000000  0.6508444  3
   1398   1399   2860   2875     1  180.0000771  10.4600000  2
   1399   1398   1396   1407     1  0.0000000  0.6508444  3
   1399   1398   1396   1408     1  0.0000000  0.6508444  3
   1399   2860   2859   2873     1  0.0000000  0.0000000  2
   1399   2860   2859   2874     1  0.0000000  0.0000000  2
   1400   1397   1395   1420     1  0.0000000  0.6508444  3
   1400   1401   2886   2901     1  180.0000771  10.4600000  2
   1401   1400   1397   1409     1  0.0000000  0.6508444  3
   1401   1400   1397   1410     1  0.0000000  0.6508444  3
   1401   2886   2885   2899     1  0.0000000  0.0000000  2
   1401   2886   2885   2900     1  0.0000000  0.0000000  2
   1402   1395   1396   1407     1  0.0000000  0.6508444  3
   1402   1395   1396   1408     1  0.0000000  0.6508444  3
   1402   1395   1397   1409     1  0.0000000  0.6508444  3
   1402   1395   1397   1410     1  0.0000000  0.6508444  3
   1402   1403   1404   1419     1  0.0000000  0.0000000  2
   1403   1402   1395   1420     1  0.0000000  0.6508444  3
   1404   1403   1402   1415     1  0.0000000  0.6508444  3
   1404   1403   1402   1416     1  0.0000000  0.6508444  3
   1405   1399   1398   1411     1  0.0000000  3.3472000  1
   1405   1399   1398   1411     1  0.0000000  0.0000000  2
   1405   1399   1398   1411     1  180.0000771  0.3347200  3
   1405   1399   1398   1412     1  0.0000000  3.3472000  1
   1405   1399   1398   1412     1  0.0000000  0.0000000  2
   1405   1399   1398   1412     1  180.0000771  0.3347200  3
   1405   1399   2860   2875     1  0.0000000  8.3680000  1
   1405   1399   2860   2875     1  180.0000771  10.4600000  2
   1406   1401   1400   1413     1  0.0000000  3.3472000  1
   1406   1401   1400   1413     1  0.0000000  0.0000000  2
   1406   1401   1400   1413     1  180.0000771  0.3347200  3
   1406   1401   1400   1414     1  0.0000000  3.3472000  1
   1406   1401   1400   1414     1  0.0000000  0.0000000  2
   1406   1401   1400   1414     1  180.0000771  0.3347200  3
   1406   1401   2886   2901     1  0.0000000  8.3680000  1
   1406   1401   2886   2901     1  180.0000771  10.4600000  2
   1407   1396   1395   1420     1  0.0000000  0.6508444  3
   1407   1396   1398   1411     1  0.0000000  0.6508444  3
   1407   1396   1398   1412     1  0.0000000  0.6508444  3
   1408   1396   1395   1420     1  0.0000000  0.6508444  3
   1408   1396   1398   1411     1  0.0000000  0.6508444  3
   1408   1396   1398   1412     1  0.0000000  0.6508444  3
   1409   1397   1395   1420     1  0.0000000  0.6508444  3
   1409   1397   1400   1413     1  0.0000000  0.6508444  3
   1409   1397   1400   1414     1  0.0000000  0.6508444  3
   1410   1397   1395   1420     1  0.0000000  0.6508444  3
   1410   1397   1400   1413     1  0.0000000  0.6508444  3
   1410   1397   1400   1414     1  0.0000000  0.6508444  3
   1411   1398   1399   2860     1  180.0000771  0.0000000  2
   1412   1398   1399   2860     1  180.0000771  0.0000000  2
   1413   1400   1401   2886     1  180.0000771  0.0000000  2
   1414   1400   1401   2886     1  180.0000771  0.0000000  2
   1415   1402   1395   1420     1  0.0000000  0.6508444  3
   1415   1402   1403   1417     1  0.0000000  0.6508444  3
   1415   1402   1403   1418     1  0.0000000  0.6508444  3
   1416   1402   1395   1420     1  0.0000000  0.6508444  3
   1416   1402   1403   1417     1  0.0000000  0.6508444  3
   1416   1402   1403   1418     1  0.0000000  0.6508444  3
   1417   1403   1404   1419     1  0.0000000  0.0000000  2
   1418   1403   1404   1419     1  0.0000000  0.0000000  2
   1421   1422   1424   1437     1  0.0000000  0.6508444  3
   1421   1422   1424   1438     1  0.0000000  0.6508444  3
   1421   1423   1426   1439     1  0.0000000  0.6508444  3
   1421   1423   1426   1440     1  0.0000000  0.6508444  3
   1421   1428   1429   1443     1  0.0000000  0.6508444  3
   1421   1428   1429   1444     1  0.0000000  0.6508444  3
   1422   1421   1423   1435     1  0.0000000  0.6508444  3
   1422   1421   1423   1436     1  0.0000000  0.6508444  3
   1422   1421   1428   1441     1  0.0000000  0.6508444  3
   1422   1421   1428   1442     1  0.0000000  0.6508444  3
   1423   1421   1422   1433     1  0.0000000  0.6508444  3
   1423   1421   1422   1434     1  0.0000000  0.6508444  3
   1423   1421   1428   1441     1  0.0000000  0.6508444  3
   1423   1421   1428   1442     1  0.0000000  0.6508444  3
   1424   1422   1421   1446     1  0.0000000  0.6508444  3
   1424   1425   2912   2927     1  180.0000771  10.4600000  2
   1425   1424   1422   1433     1  0.0000000  0.6508444  3
   1425   1424   1422   1434     1  0.0000000  0.6508444  3
   1425   2912   2911   2925     1  0.0000000  0.0000000  2
   1425   2912   2911   2926     1  0.0000000  0.0000000  2
   1426   1423   1421   1446     1  0.0000000  0.6508444  3
   1426   1427   2938   2953     1  180.0000771  10.4600000  2
   1427   1426   1423   1435     1  0.0000000  0.6508444  3
   1427   1426   1423   1436     1  0.0000000  0.6508444  3
   1427   2938   2937   2951     1  0.0000000  0.0000000  2
   1427   2938   2937   2952     1  0.0000000  0.0000000  2
   1428   1421   1422   1433     1  0.0000000  0.6508444  3
   1428   1421   1422   1434     1  0.0000000  0.6508444  3
   1428   1421   1423   1435     1  0.0000000  0.6508444  3
   1428   1421   1423   1436     1  0.0000000  0.6508444  3
   1428   1429   1430   1445     1  0.0000000  0.0000000  2
   1429   1428   1421   1446     1  0.0000000  0.6508444  3
   1430   1429   1428   1441     1  0.0000000  0.6508444  3
   1430   1429   1428   1442     1  0.0000000  0.6508444  3
   1431   1425   1424   1437     1  0.0000000  3.3472000  1
   1431   1425   1424   1437     1  0.0000000  0.0000000  2
   1431   1425   1424   1437     1  180.0000771  0.3347200  3
   1431   1425   1424   1438     1  0.0000000  3.3472000  1
   1431   1425   1424   1438     1  0.0000000  0.0000000  2
   1431   1425   1424   1438     1  180.0000771  0.3347200  3
   1431   1425   2912   2927     1  0.0000000  8.3680000  1
   1431   1425   2912   2927     1  180.0000771  10.4600000  2
   1432   1427   1426   1439     1  0.0000000  3.3472000  1
   1432   1427   1426   1439     1  0.0000000  0.0000000  2
   1432   1427   1426   1439     1  180.0000771  0.3347200  3
   1432   1427   1426   1440     1  0.0000000  3.3472000  1
   1432   1427   1426   1440     1  0.0000000  0.0000000  2
   1432   1427   1426   1440     1  180.0000771  0.3347200  3
   1432   1427   2938   2953     1  0.0000000  8.3680000  1
   1432   1427   2938   2953     1  180.0000771  10.4600000  2
   1433   1422   1421   1446     1  0.0000000  0.6508444  3
   1433   1422   1424   1437     1  0.0000000  0.6508444  3
   1433   1422   1424   1438     1  0.0000000  0.6508444  3
   1434   1422   1421   1446     1  0.0000000  0.6508444  3
   1434   1422   1424   1437     1  0.0000000  0.6508444  3
   1434   1422   1424   1438     1  0.0000000  0.6508444  3
   1435   1423   1421   1446     1  0.0000000  0.6508444  3
   1435   1423   1426   1439     1  0.0000000  0.6508444  3
   1435   1423   1426   1440     1  0.0000000  0.6508444  3
   1436   1423   1421   1446     1  0.0000000  0.6508444  3
   1436   1423   1426   1439     1  0.0000000  0.6508444  3
   1436   1423   1426   1440     1  0.0000000  0.6508444  3
   1437   1424   1425   2912     1  180.0000771  0.0000000  2
   1438   1424   1425   2912     1  180.0000771  0.0000000  2
   1439   1426   1427   2938     1  180.0000771  0.0000000  2
   1440   1426   1427   2938     1  180.0000771  0.0000000  2
   1441   1428   1421   1446     1  0.0000000  0.6508444  3
   1441   1428   1429   1443     1  0.0000000  0.6508444  3
   1441   1428   1429   1444     1  0.0000000  0.6508444  3
   1442   1428   1421   1446     1  0.0000000  0.6508444  3
   1442   1428   1429   1443     1  0.0000000  0.6508444  3
   1442   1428   1429   1444     1  0.0000000  0.6508444  3
   1443   1429   1430   1445     1  0.0000000  0.0000000  2
   1444   1429   1430   1445     1  0.0000000  0.0000000  2
   1447   1448   1450   1463     1  0.0000000  0.6508444  3
   1447   1448   1450   1464     1  0.0000000  0.6508444  3
   1447   1449   1452   1465     1  0.0000000  0.6508444  3
   1447   1449   1452   1466     1  0.0000000  0.6508444  3
   1447   1454   1455   1469     1  0.0000000  0.6508444  3
   1447   1454   1455   1470     1  0.0000000  0.6508444  3
   1448   1447   1449   1461     1  0.0000000  0.6508444  3
   1448   1447   1449   1462     1  0.0000000  0.6508444  3
   1448   1447   1454   1467     1  0.0000000  0.6508444  3
   1448   1447   1454   1468     1  0.0000000  0.6508444  3
   1449   1447   1448   1459     1  0.0000000  0.6508444  3
   1449   1447   1448   1460     1  0.0000000  0.6508444  3
   1449   1447   1454   1467     1  0.0000000  0.6508444  3
   1449   1447   1454   1468     1  0.0000000  0.6508444  3
   1450   1448   1447   1472     1  0.0000000  0.6508444  3
   1450   1451   2964   2979     1  180.0000771  10.4600000  2
   1451   1450   1448   1459     1  0.0000000  0.6508444  3
   1451   1450   1448   1460     1  0.0000000  0.6508444  3
   1451   2964   2963   2977     1  0.0000000  0.0000000  2
   1451   2964   2963   2978     1  0.0000000  0.0000000  2
   1452   1449   1447   1472     1  0.0000000  0.6508444  3
   1452   1453   2990   3005     1  180.0000771  10.4600000  2
   1453   1452   1449   1461     1  0.0000000  0.6508444  3
   1453   1452   1449   1462     1  0.0000000  0.6508444  3
   1453   2990   2989   3003     1  0.0000000  0.0000000  2
   1453   2990   2989   3004     1  0.0000000  0.0000000  2
   1454   1447   1448   1459     1  0.0000000  0.6508444  3
   1454   1447   1448   1460     1  0.0000000  0.6508444  3
   1454   1447   1449   1461     1  0.0000000  0.6508444  3
   1454   1447   1449   1462     1  0.0000000  0.6508444  3
   1454   1455   1456   1471     1  0.0000000  0.0000000  2
   1455   1454   1447   1472     1  0.0000000  0.6508444  3
   1456   1455   1454   1467     1  0.0000000  0.6508444  3
   1456   1455   1454   1468     1  0.0000000  0.6508444  3
   1457   1451   1450   1463     1  0.0000000  3.3472000  1
   1457   1451   1450   1463     1  0.0000000  0.0000000  2
   1457   1451   1450   1463     1  180.0000771  0.3347200  3
   1457   1451   1450   1464     1  0.0000000  3.3472000  1
   1457   1451   1450   1464     1  0.0000000  0.0000000  2
   1457   1451   1450   1464     1  180.0000771  0.3347200  3
   1457   1451   2964   2979     1  0.0000000  8.3680000  1
   1457   1451   2964   2979     1  180.0000771  10.4600000  2
   1458   1453   1452   1465     1  0.0000000  3.3472000  1
   1458   1453   1452   1465     1  0.0000000  0.0000000  2
   1458   1453   1452   1465     1  180.0000771  0.3347200  3
   1458   1453   1452   1466     1  0.0000000  3.3472000  1
   1458   1453   1452   1466     1  0.0000000  0.0000000  2
   1458   1453   1452   1466     1  180.0000771  0.3347200  3
   1458   1453   2990   3005     1  0.0000000  8.3680000  1
   1458   1453   2990   3005     1  180.0000771  10.4600000  2
   1459   1448   1447   1472     1  0.0000000  0.6508444  3
   1459   1448   1450   1463     1  0.0000000  0.6508444  3
   1459   1448   1450   1464     1  0.0000000  0.6508444  3
   1460   1448   1447   1472     1  0.0000000  0.6508444  3
   1460   1448   1450   1463     1  0.0000000  0.6508444  3
   1460   1448   1450   1464     1  0.0000000  0.6508444  3
   1461   1449   1447   1472     1  0.0000000  0.6508444  3
   1461   1449   1452   1465     1  0.0000000  0.6508444  3
   1461   1449   1452   1466     1  0.0000000  0.6508444  3
   1462   1449   1447   1472     1  0.0000000  0.6508444  3
   1462   1449   1452   1465     1  0.0000000  0.6508444  3
   1462   1449   1452   1466     1  0.0000000  0.6508444  3
   1463   1450   1451   2964     1  180.0000771  0.0000000  2
   1464   1450   1451   2964     1  180.0000771  0.0000000  2
   1465   1452   1453   2990     1  180.0000771  0.0000000  2
   1466   1452   1453   2990     1  180.0000771  0.0000000  2
   1467   1454   1447   1472     1  0.0000000  0.6508444  3
   1467   1454   1455   1469     1  0.0000000  0.6508444  3
   1467   1454   1455   1470     1  0.0000000  0.6508444  3
   1468   1454   1447   1472     1  0.0000000  0.6508444  3
   1468   1454   1455   1469     1  0.0000000  0.6508444  3
   1468   1454   1455   1470     1  0.0000000  0.6508444  3
   1469   1455   1456   1471     1  0.0000000  0.0000000  2
   1470   1455   1456   1471     1  0.0000000  0.0000000  2
   1473   1474   1476   1489     1  0.0000000  0.6508444  3
   1473   1474   1476   1490     1  0.0000000  0.6508444  3
   1473   1475   1478   1491     1  0.0000000  0.6508444  3
   1473   1475   1478   1492     1  0.0000000  0.6508444  3
   1473   1480   1481   1495     1  0.0000000  0.6508444  3
   1473   1480   1481   1496     1  0.0000000  0.6508444  3
   1474   1473   1475   1487     1  0.0000000  0.6508444  3
   1474   1473   1475   1488     1  0.0000000  0.6508444  3
   1474   1473   1480   1493     1  0.0000000  0.6508444  3
   1474   1473   1480   1494     1  0.0000000  0.6508444  3
   1475   1473   1474   1485     1  0.0000000  0.6508444  3
   1475   1473   1474   1486     1  0.0000000  0.6508444  3
   1475   1473   1480   1493     1  0.0000000  0.6508444  3
   1475   1473   1480   1494     1  0.0000000  0.6508444  3
   1476   1474   1473   1498     1  0.0000000  0.6508444  3
   1476   1477   3016   3031     1  180.0000771  10.4600000  2
   1477   1476   1474   1485     1  0.0000000  0.6508444  3
   1477   1476   1474   1486     1  0.0000000  0.6508444  3
   1477   3016   3015   3029     1  0.0000000  0.0000000  2
   1477   3016   3015   3030     1  0.0000000  0.0000000  2
   1478   1475   1473   1498     1  0.0000000  0.6508444  3
   1478   1479   3042   3057     1  180.0000771  10.4600000  2
   1479   1478   1475   1487     1  0.0000000  0.6508444  3
   1479   1478   1475   1488     1  0.0000000  0.6508444  3
   1479   3042   3041   3055     1  0.0000000  0.0000000  2
   1479   3042   3041   3056     1  0.0000000  0.0000000  2
   1480   1473   1474   1485     1  0.0000000  0.6508444  3
   1480   1473   1474   1486     1  0.0000000  0.6508444  3
   1480   1473   1475   1487     1  0.0000000  0.6508444  3
   1480   1473   1475   1488     1  0.0000000  0.6508444  3
   1480   1481   1482   1497     1  0.0000000  0.0000000  2
   1481   1480   1473   1498     1  0.0000000  0.6508444  3
   1482   1481   1480   1493     1  0.0000000  0.6508444  3
   1482   1481   1480   1494     1  0.0000000  0.6508444  3
   1483   1477   1476   1489     1  0.0000000  3.3472000  1
   1483   1477   1476   1489     1  0.0000000  0.0000000  2
   1483   1477   1476   1489     1  180.0000771  0.3347200  3
   1483   1477   1476   1490     1  0.0000000  3.3472000  1
   1483   1477   1476   1490     1  0.0000000  0.0000000  2
   1483   1477   1476   1490     1  180.0000771  0.3347200  3
   1483   1477   3016   3031     1  0.0000000  8.3680000  1
   1483   1477   3016   3031     1  180.0000771  10.4600000  2
   1484   1479   1478   1491     1  0.0000000  3.3472000  1
   1484   1479   1478   1491     1  0.0000000  0.0000000  2
   1484   1479   1478   1491     1  180.0000771  0.3347200  3
   1484   1479   1478   1492     1  0.0000000  3.3472000  1
   1484   1479   1478   1492     1  0.0000000  0.0000000  2
   1484   1479   1478   1492     1  180.0000771  0.3347200  3
   1484   1479   3042   3057     1  0.0000000  8.3680000  1
   1484   1479   3042   3057     1  180.0000771  10.4600000  2
   1485   1474   1473   1498     1  0.0000000  0.6508444  3
   1485   1474   1476   1489     1  0.0000000  0.6508444  3
   1485   1474   1476   1490     1  0.0000000  0.6508444  3
   1486   1474   1473   1498     1  0.0000000  0.6508444  3
   1486   1474   1476   1489     1  0.0000000  0.6508444  3
   1486   1474   1476   1490     1  0.0000000  0.6508444  3
   1487   1475   1473   1498     1  0.0000000  0.6508444  3
   1487   1475   1478   1491     1  0.0000000  0.6508444  3
   1487   1475   1478   1492     1  0.0000000  0.6508444  3
   1488   1475   1473   1498     1  0.0000000  0.6508444  3
   1488   1475   1478   1491     1  0.0000000  0.6508444  3
   1488   1475   1478   1492     1  0.0000000  0.6508444  3
   1489   1476   1477   3016     1  180.0000771  0.0000000  2
   1490   1476   1477   3016     1  180.0000771  0.0000000  2
   1491   1478   1479   3042     1  180.0000771  0.0000000  2
   1492   1478   1479   3042     1  180.0000771  0.0000000  2
   1493   1480   1473   1498     1  0.0000000  0.6508444  3
   1493   1480   1481   1495     1  0.0000000  0.6508444  3
   1493   1480   1481   1496     1  0.0000000  0.6508444  3
   1494   1480   1473   1498     1  0.0000000  0.6508444  3
   1494   1480   1481   1495     1  0.0000000  0.6508444  3
   1494   1480   1481   1496     1  0.0000000  0.6508444  3
   1495   1481   1482   1497     1  0.0000000  0.0000000  2
   1496   1481   1482   1497     1  0.0000000  0.0000000  2
   1499   1500   1502   1515     1  0.0000000  0.6508444  3
   1499   1500   1502   1516     1  0.0000000  0.6508444  3
   1499   1501   1504   1517     1  0.0000000  0.6508444  3
   1499   1501   1504   1518     1  0.0000000  0.6508444  3
   1499   1506   1507   1521     1  0.0000000  0.6508444  3
   1499   1506   1507   1522     1  0.0000000  0.6508444  3
   1500   1499   1501   1513     1  0.0000000  0.6508444  3
   1500   1499   1501   1514     1  0.0000000  0.6508444  3
   1500   1499   1506   1519     1  0.0000000  0.6508444  3
   1500   1499   1506   1520     1  0.0000000  0.6508444  3
   1501   1499   1500   1511     1  0.0000000  0.6508444  3
   1501   1499   1500   1512     1  0.0000000  0.6508444  3
   1501   1499   1506   1519     1  0.0000000  0.6508444  3
   1501   1499   1506   1520     1  0.0000000  0.6508444  3
   1502   1500   1499   1524     1  0.0000000  0.6508444  3
   1502   1503   3068   3083     1  180.0000771  10.4600000  2
   1503   1502   1500   1511     1  0.0000000  0.6508444  3
   1503   1502   1500   1512     1  0.0000000  0.6508444  3
   1503   3068   3067   3081     1  0.0000000  0.0000000  2
   1503   3068   3067   3082     1  0.0000000  0.0000000  2
   1504   1501   1499   1524     1  0.0000000  0.6508444  3
   1504   1505   3094   3109     1  180.0000771  10.4600000  2
   1505   1504   1501   1513     1  0.0000000  0.6508444  3
   1505   1504   1501   1514     1  0.0000000  0.6508444  3
   1505   3094   3093   3107     1  0.0000000  0.0000000  2
   1505   3094   3093   3108     1  0.0000000  0.0000000  2
   1506   1499   1500   1511     1  0.0000000  0.6508444  3
   1506   1499   1500   1512     1  0.0000000  0.6508444  3
   1506   1499   1501   1513     1  0.0000000  0.6508444  3
   1506   1499   1501   1514     1  0.0000000  0.6508444  3
   1506   1507   1508   1523     1  0.0000000  0.0000000  2
   1507   1506   1499   1524     1  0.0000000  0.6508444  3
   1508   1507   1506   1519     1  0.0000000  0.6508444  3
   1508   1507   1506   1520     1  0.0000000  0.6508444  3
   1509   1503   1502   1515     1  0.0000000  3.3472000  1
   1509   1503   1502   1515     1  0.0000000  0.0000000  2
   1509   1503   1502   1515     1  180.0000771  0.3347200  3
   1509   1503   1502   1516     1  0.0000000  3.3472000  1
   1509   1503   1502   1516     1  0.0000000  0.0000000  2
   1509   1503   1502   1516     1  180.0000771  0.3347200  3
   1509   1503   3068   3083     1  0.0000000  8.3680000  1
   1509   1503   3068   3083     1  180.0000771  10.4600000  2
   1510   1505   1504   1517     1  0.0000000  3.3472000  1
   1510   1505   1504   1517     1  0.0000000  0.0000000  2
   1510   1505   1504   1517     1  180.0000771  0.3347200  3
   1510   1505   1504   1518     1  0.0000000  3.3472000  1
   1510   1505   1504   1518     1  0.0000000  0.0000000  2
   1510   1505   1504   1518     1  180.0000771  0.3347200  3
   1510   1505   3094   3109     1  0.0000000  8.3680000  1
   1510   1505   3094   3109     1  180.0000771  10.4600000  2
   1511   1500   1499   1524     1  0.0000000  0.6508444  3
   1511   1500   1502   1515     1  0.0000000  0.6508444  3
   1511   1500   1502   1516     1  0.0000000  0.6508444  3
   1512   1500   1499   1524     1  0.0000000  0.6508444  3
   1512   1500   1502   1515     1  0.0000000  0.6508444  3
   1512   1500   1502   1516     1  0.0000000  0.6508444  3
   1513   1501   1499   1524     1  0.0000000  0.6508444  3
   1513   1501   1504   1517     1  0.0000000  0.6508444  3
   1513   1501   1504   1518     1  0.0000000  0.6508444  3
   1514   1501   1499   1524     1  0.0000000  0.6508444  3
   1514   1501   1504   1517     1  0.0000000  0.6508444  3
   1514   1501   1504   1518     1  0.0000000  0.6508444  3
   1515   1502   1503   3068     1  180.0000771  0.0000000  2
   1516   1502   1503   3068     1  180.0000771  0.0000000  2
   1517   1504   1505   3094     1  180.0000771  0.0000000  2
   1518   1504   1505   3094     1  180.0000771  0.0000000  2
   1519   1506   1499   1524     1  0.0000000  0.6508444  3
   1519   1506   1507   1521     1  0.0000000  0.6508444  3
   1519   1506   1507   1522     1  0.0000000  0.6508444  3
   1520   1506   1499   1524     1  0.0000000  0.6508444  3
   1520   1506   1507   1521     1  0.0000000  0.6508444  3
   1520   1506   1507   1522     1  0.0000000  0.6508444  3
   1521   1507   1508   1523     1  0.0000000  0.0000000  2
   1522   1507   1508   1523     1  0.0000000  0.0000000  2
   1525   1526   1528   1541     1  0.0000000  0.6508444  3
   1525   1526   1528   1542     1  0.0000000  0.6508444  3
   1525   1527   1530   1543     1  0.0000000  0.6508444  3
   1525   1527   1530   1544     1  0.0000000  0.6508444  3
   1525   1532   1533   1547     1  0.0000000  0.6508444  3
   1525   1532   1533   1548     1  0.0000000  0.6508444  3
   1526   1525   1527   1539     1  0.0000000  0.6508444  3
   1526   1525   1527   1540     1  0.0000000  0.6508444  3
   1526   1525   1532   1545     1  0.0000000  0.6508444  3
   1526   1525   1532   1546     1  0.0000000  0.6508444  3
   1527   1525   1526   1537     1  0.0000000  0.6508444  3
   1527   1525   1526   1538     1  0.0000000  0.6508444  3
   1527   1525   1532   1545     1  0.0000000  0.6508444  3
   1527   1525   1532   1546     1  0.0000000  0.6508444  3
   1528   1526   1525   1550     1  0.0000000  0.6508444  3
   1528   1529   3120   3135     1  180.0000771  10.4600000  2
   1529   1528   1526   1537     1  0.0000000  0.6508444  3
   1529   1528   1526   1538     1  0.0000000  0.6508444  3
   1529   3120   3119   3133     1  0.0000000  0.0000000  2
   1529   3120   3119   3134     1  0.0000000  0.0000000  2
   1530   1527   1525   1550     1  0.0000000  0.6508444  3
   1530   1531   3146   3161     1  180.0000771  10.4600000  2
   1531   1530   1527   1539     1  0.0000000  0.6508444  3
   1531   1530   1527   1540     1  0.0000000  0.6508444  3
   1531   3146   3145   3159     1  0.0000000  0.0000000  2
   1531   3146   3145   3160     1  0.0000000  0.0000000  2
   1532   1525   1526   1537     1  0.0000000  0.6508444  3
   1532   1525   1526   1538     1  0.0000000  0.6508444  3
   1532   1525   1527   1539     1  0.0000000  0.6508444  3
   1532   1525   1527   1540     1  0.0000000  0.6508444  3
   1532   1533   1534   1549     1  0.0000000  0.0000000  2
   1533   1532   1525   1550     1  0.0000000  0.6508444  3
   1534   1533   1532   1545     1  0.0000000  0.6508444  3
   1534   1533   1532   1546     1  0.0000000  0.6508444  3
   1535   1529   1528   1541     1  0.0000000  3.3472000  1
   1535   1529   1528   1541     1  0.0000000  0.0000000  2
   1535   1529   1528   1541     1  180.0000771  0.3347200  3
   1535   1529   1528   1542     1  0.0000000  3.3472000  1
   1535   1529   1528   1542     1  0.0000000  0.0000000  2
   1535   1529   1528   1542     1  180.0000771  0.3347200  3
   1535   1529   3120   3135     1  0.0000000  8.3680000  1
   1535   1529   3120   3135     1  180.0000771  10.4600000  2
   1536   1531   1530   1543     1  0.0000000  3.3472000  1
   1536   1531   1530   1543     1  0.0000000  0.0000000  2
   1536   1531   1530   1543     1  180.0000771  0.3347200  3
   1536   1531   1530   1544     1  0.0000000  3.3472000  1
   1536   1531   1530   1544     1  0.0000000  0.0000000  2
   1536   1531   1530   1544     1  180.0000771  0.3347200  3
   1536   1531   3146   3161     1  0.0000000  8.3680000  1
   1536   1531   3146   3161     1  180.0000771  10.4600000  2
   1537   1526   1525   1550     1  0.0000000  0.6508444  3
   1537   1526   1528   1541     1  0.0000000  0.6508444  3
   1537   1526   1528   1542     1  0.0000000  0.6508444  3
   1538   1526   1525   1550     1  0.0000000  0.6508444  3
   1538   1526   1528   1541     1  0.0000000  0.6508444  3
   1538   1526   1528   1542     1  0.0000000  0.6508444  3
   1539   1527   1525   1550     1  0.0000000  0.6508444  3
   1539   1527   1530   1543     1  0.0000000  0.6508444  3
   1539   1527   1530   1544     1  0.0000000  0.6508444  3
   1540   1527   1525   1550     1  0.0000000  0.6508444  3
   1540   1527   1530   1543     1  0.0000000  0.6508444  3
   1540   1527   1530   1544     1  0.0000000  0.6508444  3
   1541   1528   1529   3120     1  180.0000771  0.0000000  2
   1542   1528   1529   3120     1  180.0000771  0.0000000  2
   1543   1530   1531   3146     1  180.0000771  0.0000000  2
   1544   1530   1531   3146     1  180.0000771  0.0000000  2
   1545   1532   1525   1550     1  0.0000000  0.6508444  3
   1545   1532   1533   1547     1  0.0000000  0.6508444  3
   1545   1532   1533   1548     1  0.0000000  0.6508444  3
   1546   1532   1525   1550     1  0.0000000  0.6508444  3
   1546   1532   1533   1547     1  0.0000000  0.6508444  3
   1546   1532   1533   1548     1  0.0000000  0.6508444  3
   1547   1533   1534   1549     1  0.0000000  0.0000000  2
   1548   1533   1534   1549     1  0.0000000  0.0000000  2
   1551   1552   1554   1567     1  0.0000000  0.6508444  3
   1551   1552   1554   1568     1  0.0000000  0.6508444  3
   1551   1553   1556   1569     1  0.0000000  0.6508444  3
   1551   1553   1556   1570     1  0.0000000  0.6508444  3
   1551   1558   1559   1573     1  0.0000000  0.6508444  3
   1551   1558   1559   1574     1  0.0000000  0.6508444  3
   1552   1551   1553   1565     1  0.0000000  0.6508444  3
   1552   1551   1553   1566     1  0.0000000  0.6508444  3
   1552   1551   1558   1571     1  0.0000000  0.6508444  3
   1552   1551   1558   1572     1  0.0000000  0.6508444  3
   1553   1551   1552   1563     1  0.0000000  0.6508444  3
   1553   1551   1552   1564     1  0.0000000  0.6508444  3
   1553   1551   1558   1571     1  0.0000000  0.6508444  3
   1553   1551   1558   1572     1  0.0000000  0.6508444  3
   1554   1552   1551   1576     1  0.0000000  0.6508444  3
   1554   1555   3172   3187     1  180.0000771  10.4600000  2
   1555   1554   1552   1563     1  0.0000000  0.6508444  3
   1555   1554   1552   1564     1  0.0000000  0.6508444  3
   1555   3172   3171   3185     1  0.0000000  0.0000000  2
   1555   3172   3171   3186     1  0.0000000  0.0000000  2
   1556   1553   1551   1576     1  0.0000000  0.6508444  3
   1556   1557   3198   3213     1  180.0000771  10.4600000  2
   1557   1556   1553   1565     1  0.0000000  0.6508444  3
   1557   1556   1553   1566     1  0.0000000  0.6508444  3
   1557   3198   3197   3211     1  0.0000000  0.0000000  2
   1557   3198   3197   3212     1  0.0000000  0.0000000  2
   1558   1551   1552   1563     1  0.0000000  0.6508444  3
   1558   1551   1552   1564     1  0.0000000  0.6508444  3
   1558   1551   1553   1565     1  0.0000000  0.6508444  3
   1558   1551   1553   1566     1  0.0000000  0.6508444  3
   1558   1559   1560   1575     1  0.0000000  0.0000000  2
   1559   1558   1551   1576     1  0.0000000  0.6508444  3
   1560   1559   1558   1571     1  0.0000000  0.6508444  3
   1560   1559   1558   1572     1  0.0000000  0.6508444  3
   1561   1555   1554   1567     1  0.0000000  3.3472000  1
   1561   1555   1554   1567     1  0.0000000  0.0000000  2
   1561   1555   1554   1567     1  180.0000771  0.3347200  3
   1561   1555   1554   1568     1  0.0000000  3.3472000  1
   1561   1555   1554   1568     1  0.0000000  0.0000000  2
   1561   1555   1554   1568     1  180.0000771  0.3347200  3
   1561   1555   3172   3187     1  0.0000000  8.3680000  1
   1561   1555   3172   3187     1  180.0000771  10.4600000  2
   1562   1557   1556   1569     1  0.0000000  3.3472000  1
   1562   1557   1556   1569     1  0.0000000  0.0000000  2
   1562   1557   1556   1569     1  180.0000771  0.3347200  3
   1562   1557   1556   1570     1  0.0000000  3.3472000  1
   1562   1557   1556   1570     1  0.0000000  0.0000000  2
   1562   1557   1556   1570     1  180.0000771  0.3347200  3
   1562   1557   3198   3213     1  0.0000000  8.3680000  1
   1562   1557   3198   3213     1  180.0000771  10.4600000  2
   1563   1552   1551   1576     1  0.0000000  0.6508444  3
   1563   1552   1554   1567     1  0.0000000  0.6508444  3
   1563   1552   1554   1568     1  0.0000000  0.6508444  3
   1564   1552   1551   1576     1  0.0000000  0.6508444  3
   1564   1552   1554   1567     1  0.0000000  0.6508444  3
   1564   1552   1554   1568     1  0.0000000  0.6508444  3
   1565   1553   1551   1576     1  0.0000000  0.6508444  3
   1565   1553   1556   1569     1  0.0000000  0.6508444  3
   1565   1553   1556   1570     1  0.0000000  0.6508444  3
   1566   1553   1551   1576     1  0.0000000  0.6508444  3
   1566   1553   1556   1569     1  0.0000000  0.6508444  3
   1566   1553   1556   1570     1  0.0000000  0.6508444  3
   1567   1554   1555   3172     1  180.0000771  0.0000000  2
   1568   1554   1555   3172     1  180.0000771  0.0000000  2
   1569   1556   1557   3198     1  180.0000771  0.0000000  2
   1570   1556   1557   3198     1  180.0000771  0.0000000  2
   1571   1558   1551   1576     1  0.0000000  0.6508444  3
   1571   1558   1559   1573     1  0.0000000  0.6508444  3
   1571   1558   1559   1574     1  0.0000000  0.6508444  3
   1572   1558   1551   1576     1  0.0000000  0.6508444  3
   1572   1558   1559   1573     1  0.0000000  0.6508444  3
   1572   1558   1559   1574     1  0.0000000  0.6508444  3
   1573   1559   1560   1575     1  0.0000000  0.0000000  2
   1574   1559   1560   1575     1  0.0000000  0.0000000  2
   1577   1578   1580   1593     1  0.0000000  0.6508444  3
   1577   1578   1580   1594     1  0.0000000  0.6508444  3
   1577   1579   1582   1595     1  0.0000000  0.6508444  3
   1577   1579   1582   1596     1  0.0000000  0.6508444  3
   1577   1584   1585   1599     1  0.0000000  0.6508444  3
   1577   1584   1585   1600     1  0.0000000  0.6508444  3
   1578   1577   1579   1591     1  0.0000000  0.6508444  3
   1578   1577   1579   1592     1  0.0000000  0.6508444  3
   1578   1577   1584   1597     1  0.0000000  0.6508444  3
   1578   1577   1584   1598     1  0.0000000  0.6508444  3
   1579   1577   1578   1589     1  0.0000000  0.6508444  3
   1579   1577   1578   1590     1  0.0000000  0.6508444  3
   1579   1577   1584   1597     1  0.0000000  0.6508444  3
   1579   1577   1584   1598     1  0.0000000  0.6508444  3
   1580   1578   1577   1602     1  0.0000000  0.6508444  3
   1580   1581   3224   3239     1  180.0000771  10.4600000  2
   1581   1580   1578   1589     1  0.0000000  0.6508444  3
   1581   1580   1578   1590     1  0.0000000  0.6508444  3
   1581   3224   3223   3237     1  0.0000000  0.0000000  2
   1581   3224   3223   3238     1  0.0000000  0.0000000  2
   1582   1579   1577   1602     1  0.0000000  0.6508444  3
   1582   1583   3250   3265     1  180.0000771  10.4600000  2
   1583   1582   1579   1591     1  0.0000000  0.6508444  3
   1583   1582   1579   1592     1  0.0000000  0.6508444  3
   1583   3250   3249   3263     1  0.0000000  0.0000000  2
   1583   3250   3249   3264     1  0.0000000  0.0000000  2
   1584   1577   1578   1589     1  0.0000000  0.6508444  3
   1584   1577   1578   1590     1  0.0000000  0.6508444  3
   1584   1577   1579   1591     1  0.0000000  0.6508444  3
   1584   1577   1579   1592     1  0.0000000  0.6508444  3
   1584   1585   1586   1601     1  0.0000000  0.0000000  2
   1585   1584   1577   1602     1  0.0000000  0.6508444  3
   1586   1585   1584   1597     1  0.0000000  0.6508444  3
   1586   1585   1584   1598     1  0.0000000  0.6508444  3
   1587   1581   1580   1593     1  0.0000000  3.3472000  1
   1587   1581   1580   1593     1  0.0000000  0.0000000  2
   1587   1581   1580   1593     1  180.0000771  0.3347200  3
   1587   1581   1580   1594     1  0.0000000  3.3472000  1
   1587   1581   1580   1594     1  0.0000000  0.0000000  2
   1587   1581   1580   1594     1  180.0000771  0.3347200  3
   1587   1581   3224   3239     1  0.0000000  8.3680000  1
   1587   1581   3224   3239     1  180.0000771  10.4600000  2
   1588   1583   1582   1595     1  0.0000000  3.3472000  1
   1588   1583   1582   1595     1  0.0000000  0.0000000  2
   1588   1583   1582   1595     1  180.0000771  0.3347200  3
   1588   1583   1582   1596     1  0.0000000  3.3472000  1
   1588   1583   1582   1596     1  0.0000000  0.0000000  2
   1588   1583   1582   1596     1  180.0000771  0.3347200  3
   1588   1583   3250   3265     1  0.0000000  8.3680000  1
   1588   1583   3250   3265     1  180.0000771  10.4600000  2
   1589   1578   1577   1602     1  0.0000000  0.6508444  3
   1589   1578   1580   1593     1  0.0000000  0.6508444  3
   1589   1578   1580   1594     1  0.0000000  0.6508444  3
   1590   1578   1577   1602     1  0.0000000  0.6508444  3
   1590   1578   1580   1593     1  0.0000000  0.6508444  3
   1590   1578   1580   1594     1  0.0000000  0.6508444  3
   1591   1579   1577   1602     1  0.0000000  0.6508444  3
   1591   1579   1582   1595     1  0.0000000  0.6508444  3
   1591   1579   1582   1596     1  0.0000000  0.6508444  3
   1592   1579   1577   1602     1  0.0000000  0.6508444  3
   1592   1579   1582   1595     1  0.0000000  0.6508444  3
   1592   1579   1582   1596     1  0.0000000  0.6508444  3
   1593   1580   1581   3224     1  180.0000771  0.0000000  2
   1594   1580   1581   3224     1  180.0000771  0.0000000  2
   1595   1582   1583   3250     1  180.0000771  0.0000000  2
   1596   1582   1583   3250     1  180.0000771  0.0000000  2
   1597   1584   1577   1602     1  0.0000000  0.6508444  3
   1597   1584   1585   1599     1  0.0000000  0.6508444  3
   1597   1584   1585   1600     1  0.0000000  0.6508444  3
   1598   1584   1577   1602     1  0.0000000  0.6508444  3
   1598   1584   1585   1599     1  0.0000000  0.6508444  3
   1598   1584   1585   1600     1  0.0000000  0.6508444  3
   1599   1585   1586   1601     1  0.0000000  0.0000000  2
   1600   1585   1586   1601     1  0.0000000  0.0000000  2
   1603   1604   1606   1619     1  0.0000000  0.6508444  3
   1603   1604   1606   1620     1  0.0000000  0.6508444  3
   1603   1605   1608   1621     1  0.0000000  0.6508444  3
   1603   1605   1608   1622     1  0.0000000  0.6508444  3
   1603   1610   1611   1625     1  0.0000000  0.6508444  3
   1603   1610   1611   1626     1  0.0000000  0.6508444  3
   1604   1603   1605   1617     1  0.0000000  0.6508444  3
   1604   1603   1605   1618     1  0.0000000  0.6508444  3
   1604   1603   1610   1623     1  0.0000000  0.6508444  3
   1604   1603   1610   1624     1  0.0000000  0.6508444  3
   1605   1603   1604   1615     1  0.0000000  0.6508444  3
   1605   1603   1604   1616     1  0.0000000  0.6508444  3
   1605   1603   1610   1623     1  0.0000000  0.6508444  3
   1605   1603   1610   1624     1  0.0000000  0.6508444  3
   1606   1604   1603   1628     1  0.0000000  0.6508444  3
   1606   1607   3267   3268     1  180.0000771  10.4600000  2
   1607   1606   1604   1615     1  0.0000000  0.6508444  3
   1607   1606   1604   1616     1  0.0000000  0.6508444  3
   1607   3267   3269   3270     1  0.0000000  0.0000000  2
   1607   3267   3269   3272     1  0.0000000  0.0000000  2
   1608   1605   1603   1628     1  0.0000000  0.6508444  3
   1608   1609   3341   3342     1  180.0000771  10.4600000  2
   1609   1608   1605   1617     1  0.0000000  0.6508444  3
   1609   1608   1605   1618     1  0.0000000  0.6508444  3
   1609   3341   3343   3344     1  0.0000000  0.0000000  2
   1609   3341   3343   3346     1  0.0000000  0.0000000  2
   1610   1603   1604   1615     1  0.0000000  0.6508444  3
   1610   1603   1604   1616     1  0.0000000  0.6508444  3
   1610   1603   1605   1617     1  0.0000000  0.6508444  3
   1610   1603   1605   1618     1  0.0000000  0.6508444  3
   1610   1611   1612   1627     1  0.0000000  0.0000000  2
   1611   1610   1603   1628     1  0.0000000  0.6508444  3
   1612   1611   1610   1623     1  0.0000000  0.6508444  3
   1612   1611   1610   1624     1  0.0000000  0.6508444  3
   1613   1607   1606   1619     1  0.0000000  3.3472000  1
   1613   1607   1606   1619     1  0.0000000  0.0000000  2
   1613   1607   1606   1619     1  180.0000771  0.3347200  3
   1613   1607   1606   1620     1  0.0000000  3.3472000  1
   1613   1607   1606   1620     1  0.0000000  0.0000000  2
   1613   1607   1606   1620     1  180.0000771  0.3347200  3
   1613   1607   3267   3268     1  0.0000000  8.3680000  1
   1613   1607   3267   3268     1  180.0000771  10.4600000  2
   1614   1609   1608   1621     1  0.0000000  3.3472000  1
   1614   1609   1608   1621     1  0.0000000  0.0000000  2
   1614   1609   1608   1621     1  180.0000771  0.3347200  3
   1614   1609   1608   1622     1  0.0000000  3.3472000  1
   1614   1609   1608   1622     1  0.0000000  0.0000000  2
   1614   1609   1608   1622     1  180.0000771  0.3347200  3
   1614   1609   3341   3342     1  0.0000000  8.3680000  1
   1614   1609   3341   3342     1  180.0000771  10.4600000  2
   1615   1604   1603   1628     1  0.0000000  0.6508444  3
   1615   1604   1606   1619     1  0.0000000  0.6508444  3
   1615   1604   1606   1620     1  0.0000000  0.6508444  3
   1616   1604   1603   1628     1  0.0000000  0.6508444  3
   1616   1604   1606   1619     1  0.0000000  0.6508444  3
   1616   1604   1606   1620     1  0.0000000  0.6508444  3
   1617   1605   1603   1628     1  0.0000000  0.6508444  3
   1617   1605   1608   1621     1  0.0000000  0.6508444  3
   1617   1605   1608   1622     1  0.0000000  0.6508444  3
   1618   1605   1603   1628     1  0.0000000  0.6508444  3
   1618   1605   1608   1621     1  0.0000000  0.6508444  3
   1618   1605   1608   1622     1  0.0000000  0.6508444  3
   1619   1606   1607   3267     1  180.0000771  0.0000000  2
   1620   1606   1607   3267     1  180.0000771  0.0000000  2
   1621   1608   1609   3341     1  180.0000771  0.0000000  2
   1622   1608   1609   3341     1  180.0000771  0.0000000  2
   1623   1610   1603   1628     1  0.0000000  0.6508444  3
   1623   1610   1611   1625     1  0.0000000  0.6508444  3
   1623   1610   1611   1626     1  0.0000000  0.6508444  3
   1624   1610   1603   1628     1  0.0000000  0.6508444  3
   1624   1610   1611   1625     1  0.0000000  0.6508444  3
   1624   1610   1611   1626     1  0.0000000  0.6508444  3
   1625   1611   1612   1627     1  0.0000000  0.0000000  2
   1626   1611   1612   1627     1  0.0000000  0.0000000  2
   1629   1630   1632   1645     1  0.0000000  0.6508444  3
   1629   1630   1632   1646     1  0.0000000  0.6508444  3
   1629   1631   1634   1647     1  0.0000000  0.6508444  3
   1629   1631   1634   1648     1  0.0000000  0.6508444  3
   1629   1636   1637   1651     1  0.0000000  0.6508444  3
   1629   1636   1637   1652     1  0.0000000  0.6508444  3
   1630   1629   1631   1643     1  0.0000000  0.6508444  3
   1630   1629   1631   1644     1  0.0000000  0.6508444  3
   1630   1629   1636   1649     1  0.0000000  0.6508444  3
   1630   1629   1636   1650     1  0.0000000  0.6508444  3
   1631   1629   1630   1641     1  0.0000000  0.6508444  3
   1631   1629   1630   1642     1  0.0000000  0.6508444  3
   1631   1629   1636   1649     1  0.0000000  0.6508444  3
   1631   1629   1636   1650     1  0.0000000  0.6508444  3
   1632   1630   1629   1654     1  0.0000000  0.6508444  3
   1632   1633   3415   3416     1  180.0000771  10.4600000  2
   1633   1632   1630   1641     1  0.0000000  0.6508444  3
   1633   1632   1630   1642     1  0.0000000  0.6508444  3
   1633   3415   3417   3418     1  0.0000000  0.0000000  2
   1633   3415   3417   3420     1  0.0000000  0.0000000  2
   1634   1631   1629   1654     1  0.0000000  0.6508444  3
   1634   1635   3489   3490     1  180.0000771  10.4600000  2
   1635   1634   1631   1643     1  0.0000000  0.6508444  3
   1635   1634   1631   1644     1  0.0000000  0.6508444  3
   1635   3489   3491   3492     1  0.0000000  0.0000000  2
   1635   3489   3491   3494     1  0.0000000  0.0000000  2
   1636   1629   1630   1641     1  0.0000000  0.6508444  3
   1636   1629   1630   1642     1  0.0000000  0.6508444  3
   1636   1629   1631   1643     1  0.0000000  0.6508444  3
   1636   1629   1631   1644     1  0.0000000  0.6508444  3
   1636   1637   1638   1653     1  0.0000000  0.0000000  2
   1637   1636   1629   1654     1  0.0000000  0.6508444  3
   1638   1637   1636   1649     1  0.0000000  0.6508444  3
   1638   1637   1636   1650     1  0.0000000  0.6508444  3
   1639   1633   1632   1645     1  0.0000000  3.3472000  1
   1639   1633   1632   1645     1  0.0000000  0.0000000  2
   1639   1633   1632   1645     1  180.0000771  0.3347200  3
   1639   1633   1632   1646     1  0.0000000  3.3472000  1
   1639   1633   1632   1646     1  0.0000000  0.0000000  2
   1639   1633   1632   1646     1  180.0000771  0.3347200  3
   1639   1633   3415   3416     1  0.0000000  8.3680000  1
   1639   1633   3415   3416     1  180.0000771  10.4600000  2
   1640   1635   1634   1647     1  0.0000000  3.3472000  1
   1640   1635   1634   1647     1  0.0000000  0.0000000  2
   1640   1635   1634   1647     1  180.0000771  0.3347200  3
   1640   1635   1634   1648     1  0.0000000  3.3472000  1
   1640   1635   1634   1648     1  0.0000000  0.0000000  2
   1640   1635   1634   1648     1  180.0000771  0.3347200  3
   1640   1635   3489   3490     1  0.0000000  8.3680000  1
   1640   1635   3489   3490     1  180.0000771  10.4600000  2
   1641   1630   1629   1654     1  0.0000000  0.6508444  3
   1641   1630   1632   1645     1  0.0000000  0.6508444  3
   1641   1630   1632   1646     1  0.0000000  0.6508444  3
   1642   1630   1629   1654     1  0.0000000  0.6508444  3
   1642   1630   1632   1645     1  0.0000000  0.6508444  3
   1642   1630   1632   1646     1  0.0000000  0.6508444  3
   1643   1631   1629   1654     1  0.0000000  0.6508444  3
   1643   1631   1634   1647     1  0.0000000  0.6508444  3
   1643   1631   1634   1648     1  0.0000000  0.6508444  3
   1644   1631   1629   1654     1  0.0000000  0.6508444  3
   1644   1631   1634   1647     1  0.0000000  0.6508444  3
   1644   1631   1634   1648     1  0.0000000  0.6508444  3
   1645   1632   1633   3415     1  180.0000771  0.0000000  2
   1646   1632   1633   3415     1  180.0000771  0.0000000  2
   1647   1634   1635   3489     1  180.0000771  0.0000000  2
   1648   1634   1635   3489     1  180.0000771  0.0000000  2
   1649   1636   1629   1654     1  0.0000000  0.6508444  3
   1649   1636   1637   1651     1  0.0000000  0.6508444  3
   1649   1636   1637   1652     1  0.0000000  0.6508444  3
   1650   1636   1629   1654     1  0.0000000  0.6508444  3
   1650   1636   1637   1651     1  0.0000000  0.6508444  3
   1650   1636   1637   1652     1  0.0000000  0.6508444  3
   1651   1637   1638   1653     1  0.0000000  0.0000000  2
   1652   1637   1638   1653     1  0.0000000  0.0000000  2
   1655   1656   1658   1671     1  0.0000000  0.6508444  3
   1655   1656   1658   1672     1  0.0000000  0.6508444  3
   1655   1657   1660   1673     1  0.0000000  0.6508444  3
   1655   1657   1660   1674     1  0.0000000  0.6508444  3
   1655   1662   1663   1677     1  0.0000000  0.6508444  3
   1655   1662   1663   1678     1  0.0000000  0.6508444  3
   1656   1655   1657   1669     1  0.0000000  0.6508444  3
   1656   1655   1657   1670     1  0.0000000  0.6508444  3
   1656   1655   1662   1675     1  0.0000000  0.6508444  3
   1656   1655   1662   1676     1  0.0000000  0.6508444  3
   1657   1655   1656   1667     1  0.0000000  0.6508444  3
   1657   1655   1656   1668     1  0.0000000  0.6508444  3
   1657   1655   1662   1675     1  0.0000000  0.6508444  3
   1657   1655   1662   1676     1  0.0000000  0.6508444  3
   1658   1656   1655   1680     1  0.0000000  0.6508444  3
   1658   1659   3563   3564     1  180.0000771  10.4600000  2
   1659   1658   1656   1667     1  0.0000000  0.6508444  3
   1659   1658   1656   1668     1  0.0000000  0.6508444  3
   1659   3563   3565   3566     1  0.0000000  0.0000000  2
   1659   3563   3565   3568     1  0.0000000  0.0000000  2
   1660   1657   1655   1680     1  0.0000000  0.6508444  3
   1660   1661   3637   3638     1  180.0000771  10.4600000  2
   1661   1660   1657   1669     1  0.0000000  0.6508444  3
   1661   1660   1657   1670     1  0.0000000  0.6508444  3
   1661   3637   3639   3640     1  0.0000000  0.0000000  2
   1661   3637   3639   3642     1  0.0000000  0.0000000  2
   1662   1655   1656   1667     1  0.0000000  0.6508444  3
   1662   1655   1656   1668     1  0.0000000  0.6508444  3
   1662   1655   1657   1669     1  0.0000000  0.6508444  3
   1662   1655   1657   1670     1  0.0000000  0.6508444  3
   1662   1663   1664   1679     1  0.0000000  0.0000000  2
   1663   1662   1655   1680     1  0.0000000  0.6508444  3
   1664   1663   1662   1675     1  0.0000000  0.6508444  3
   1664   1663   1662   1676     1  0.0000000  0.6508444  3
   1665   1659   1658   1671     1  0.0000000  3.3472000  1
   1665   1659   1658   1671     1  0.0000000  0.0000000  2
   1665   1659   1658   1671     1  180.0000771  0.3347200  3
   1665   1659   1658   1672     1  0.0000000  3.3472000  1
   1665   1659   1658   1672     1  0.0000000  0.0000000  2
   1665   1659   1658   1672     1  180.0000771  0.3347200  3
   1665   1659   3563   3564     1  0.0000000  8.3680000  1
   1665   1659   3563   3564     1  180.0000771  10.4600000  2
   1666   1661   1660   1673     1  0.0000000  3.3472000  1
   1666   1661   1660   1673     1  0.0000000  0.0000000  2
   1666   1661   1660   1673     1  180.0000771  0.3347200  3
   1666   1661   1660   1674     1  0.0000000  3.3472000  1
   1666   1661   1660   1674     1  0.0000000  0.0000000  2
   1666   1661   1660   1674     1  180.0000771  0.3347200  3
   1666   1661   3637   3638     1  0.0000000  8.3680000  1
   1666   1661   3637   3638     1  180.0000771  10.4600000  2
   1667   1656   1655   1680     1  0.0000000  0.6508444  3
   1667   1656   1658   1671     1  0.0000000  0.6508444  3
   1667   1656   1658   1672     1  0.0000000  0.6508444  3
   1668   1656   1655   1680     1  0.0000000  0.6508444  3
   1668   1656   1658   1671     1  0.0000000  0.6508444  3
   1668   1656   1658   1672     1  0.0000000  0.6508444  3
   1669   1657   1655   1680     1  0.0000000  0.6508444  3
   1669   1657   1660   1673     1  0.0000000  0.6508444  3
   1669   1657   1660   1674     1  0.0000000  0.6508444  3
   1670   1657   1655   1680     1  0.0000000  0.6508444  3
   1670   1657   1660   1673     1  0.0000000  0.6508444  3
   1670   1657   1660   1674     1  0.0000000  0.6508444  3
   1671   1658   1659   3563     1  180.0000771  0.0000000  2
   1672   1658   1659   3563     1  180.0000771  0.0000000  2
   1673   1660   1661   3637     1  180.0000771  0.0000000  2
   1674   1660   1661   3637     1  180.0000771  0.0000000  2
   1675   1662   1655   1680     1  0.0000000  0.6508444  3
   1675   1662   1663   1677     1  0.0000000  0.6508444  3
   1675   1662   1663   1678     1  0.0000000  0.6508444  3
   1676   1662   1655   1680     1  0.0000000  0.6508444  3
   1676   1662   1663   1677     1  0.0000000  0.6508444  3
   1676   1662   1663   1678     1  0.0000000  0.6508444  3
   1677   1663   1664   1679     1  0.0000000  0.0000000  2
   1678   1663   1664   1679     1  0.0000000  0.0000000  2
   1681   1682   1684   1697     1  0.0000000  0.6508444  3
   1681   1682   1684   1698     1  0.0000000  0.6508444  3
   1681   1683   1686   1699     1  0.0000000  0.6508444  3
   1681   1683   1686   1700     1  0.0000000  0.6508444  3
   1681   1688   1689   1703     1  0.0000000  0.6508444  3
   1681   1688   1689   1704     1  0.0000000  0.6508444  3
   1682   1681   1683   1695     1  0.0000000  0.6508444  3
   1682   1681   1683   1696     1  0.0000000  0.6508444  3
   1682   1681   1688   1701     1  0.0000000  0.6508444  3
   1682   1681   1688   1702     1  0.0000000  0.6508444  3
   1683   1681   1682   1693     1  0.0000000  0.6508444  3
   1683   1681   1682   1694     1  0.0000000  0.6508444  3
   1683   1681   1688   1701     1  0.0000000  0.6508444  3
   1683   1681   1688   1702     1  0.0000000  0.6508444  3
   1684   1682   1681   1706     1  0.0000000  0.6508444  3
   1684   1685   3711   3712     1  180.0000771  10.4600000  2
   1685   1684   1682   1693     1  0.0000000  0.6508444  3
   1685   1684   1682   1694     1  0.0000000  0.6508444  3
   1685   3711   3713   3714     1  0.0000000  0.0000000  2
   1685   3711   3713   3716     1  0.0000000  0.0000000  2
   1686   1683   1681   1706     1  0.0000000  0.6508444  3
   1686   1687   3785   3786     1  180.0000771  10.4600000  2
   1687   1686   1683   1695     1  0.0000000  0.6508444  3
   1687   1686   1683   1696     1  0.0000000  0.6508444  3
   1687   3785   3787   3788     1  0.0000000  0.0000000  2
   1687   3785   3787   3790     1  0.0000000  0.0000000  2
   1688   1681   1682   1693     1  0.0000000  0.6508444  3
   1688   1681   1682   1694     1  0.0000000  0.6508444  3
   1688   1681   1683   1695     1  0.0000000  0.6508444  3
   1688   1681   1683   1696     1  0.0000000  0.6508444  3
   1688   1689   1690   1705     1  0.0000000  0.0000000  2
   1689   1688   1681   1706     1  0.0000000  0.6508444  3
   1690   1689   1688   1701     1  0.0000000  0.6508444  3
   1690   1689   1688   1702     1  0.0000000  0.6508444  3
   1691   1685   1684   1697     1  0.0000000  3.3472000  1
   1691   1685   1684   1697     1  0.0000000  0.0000000  2
   1691   1685   1684   1697     1  180.0000771  0.3347200  3
   1691   1685   1684   1698     1  0.0000000  3.3472000  1
   1691   1685   1684   1698     1  0.0000000  0.0000000  2
   1691   1685   1684   1698     1  180.0000771  0.3347200  3
   1691   1685   3711   3712     1  0.0000000  8.3680000  1
   1691   1685   3711   3712     1  180.0000771  10.4600000  2
   1692   1687   1686   1699     1  0.0000000  3.3472000  1
   1692   1687   1686   1699     1  0.0000000  0.0000000  2
   1692   1687   1686   1699     1  180.0000771  0.3347200  3
   1692   1687   1686   1700     1  0.0000000  3.3472000  1
   1692   1687   1686   1700     1  0.0000000  0.0000000  2
   1692   1687   1686   1700     1  180.0000771  0.3347200  3
   1692   1687   3785   3786     1  0.0000000  8.3680000  1
   1692   1687   3785   3786     1  180.0000771  10.4600000  2
   1693   1682   1681   1706     1  0.0000000  0.6508444  3
   1693   1682   1684   1697     1  0.0000000  0.6508444  3
   1693   1682   1684   1698     1  0.0000000  0.6508444  3
   1694   1682   1681   1706     1  0.0000000  0.6508444  3
   1694   1682   1684   1697     1  0.0000000  0.6508444  3
   1694   1682   1684   1698     1  0.0000000  0.6508444  3
   1695   1683   1681   1706     1  0.0000000  0.6508444  3
   1695   1683   1686   1699     1  0.0000000  0.6508444  3
   1695   1683   1686   1700     1  0.0000000  0.6508444  3
   1696   1683   1681   1706     1  0.0000000  0.6508444  3
   1696   1683   1686   1699     1  0.0000000  0.6508444  3
   1696   1683   1686   1700     1  0.0000000  0.6508444  3
   1697   1684   1685   3711     1  180.0000771  0.0000000  2
   1698   1684   1685   3711     1  180.0000771  0.0000000  2
   1699   1686   1687   3785     1  180.0000771  0.0000000  2
   1700   1686   1687   3785     1  180.0000771  0.0000000  2
   1701   1688   1681   1706     1  0.0000000  0.6508444  3
   1701   1688   1689   1703     1  0.0000000  0.6508444  3
   1701   1688   1689   1704     1  0.0000000  0.6508444  3
   1702   1688   1681   1706     1  0.0000000  0.6508444  3
   1702   1688   1689   1703     1  0.0000000  0.6508444  3
   1702   1688   1689   1704     1  0.0000000  0.6508444  3
   1703   1689   1690   1705     1  0.0000000  0.0000000  2
   1704   1689   1690   1705     1  0.0000000  0.0000000  2
   1707   1708   1710   1723     1  0.0000000  0.6508444  3
   1707   1708   1710   1724     1  0.0000000  0.6508444  3
   1707   1709   1712   1725     1  0.0000000  0.6508444  3
   1707   1709   1712   1726     1  0.0000000  0.6508444  3
   1707   1714   1715   1729     1  0.0000000  0.6508444  3
   1707   1714   1715   1730     1  0.0000000  0.6508444  3
   1708   1707   1709   1721     1  0.0000000  0.6508444  3
   1708   1707   1709   1722     1  0.0000000  0.6508444  3
   1708   1707   1714   1727     1  0.0000000  0.6508444  3
   1708   1707   1714   1728     1  0.0000000  0.6508444  3
   1709   1707   1708   1719     1  0.0000000  0.6508444  3
   1709   1707   1708   1720     1  0.0000000  0.6508444  3
   1709   1707   1714   1727     1  0.0000000  0.6508444  3
   1709   1707   1714   1728     1  0.0000000  0.6508444  3
   1710   1708   1707   1732     1  0.0000000  0.6508444  3
   1710   1711   3859   3860     1  180.0000771  10.4600000  2
   1711   1710   1708   1719     1  0.0000000  0.6508444  3
   1711   1710   1708   1720     1  0.0000000  0.6508444  3
   1711   3859   3861   3862     1  0.0000000  0.0000000  2
   1711   3859   3861   3864     1  0.0000000  0.0000000  2
   1712   1709   1707   1732     1  0.0000000  0.6508444  3
   1712   1713   3933   3934     1  180.0000771  10.4600000  2
   1713   1712   1709   1721     1  0.0000000  0.6508444  3
   1713   1712   1709   1722     1  0.0000000  0.6508444  3
   1713   3933   3935   3936     1  0.0000000  0.0000000  2
   1713   3933   3935   3938     1  0.0000000  0.0000000  2
   1714   1707   1708   1719     1  0.0000000  0.6508444  3
   1714   1707   1708   1720     1  0.0000000  0.6508444  3
   1714   1707   1709   1721     1  0.0000000  0.6508444  3
   1714   1707   1709   1722     1  0.0000000  0.6508444  3
   1714   1715   1716   1731     1  0.0000000  0.0000000  2
   1715   1714   1707   1732     1  0.0000000  0.6508444  3
   1716   1715   1714   1727     1  0.0000000  0.6508444  3
   1716   1715   1714   1728     1  0.0000000  0.6508444  3
   1717   1711   1710   1723     1  0.0000000  3.3472000  1
   1717   1711   1710   1723     1  0.0000000  0.0000000  2
   1717   1711   1710   1723     1  180.0000771  0.3347200  3
   1717   1711   1710   1724     1  0.0000000  3.3472000  1
   1717   1711   1710   1724     1  0.0000000  0.0000000  2
   1717   1711   1710   1724     1  180.0000771  0.3347200  3
   1717   1711   3859   3860     1  0.0000000  8.3680000  1
   1717   1711   3859   3860     1  180.0000771  10.4600000  2
   1718   1713   1712   1725     1  0.0000000  3.3472000  1
   1718   1713   1712   1725     1  0.0000000  0.0000000  2
   1718   1713   1712   1725     1  180.0000771  0.3347200  3
   1718   1713   1712   1726     1  0.0000000  3.3472000  1
   1718   1713   1712   1726     1  0.0000000  0.0000000  2
   1718   1713   1712   1726     1  180.0000771  0.3347200  3
   1718   1713   3933   3934     1  0.0000000  8.3680000  1
   1718   1713   3933   3934     1  180.0000771  10.4600000  2
   1719   1708   1707   1732     1  0.0000000  0.6508444  3
   1719   1708   1710   1723     1  0.0000000  0.6508444  3
   1719   1708   1710   1724     1  0.0000000  0.6508444  3
   1720   1708   1707   1732     1  0.0000000  0.6508444  3
   1720   1708   1710   1723     1  0.0000000  0.6508444  3
   1720   1708   1710   1724     1  0.0000000  0.6508444  3
   1721   1709   1707   1732     1  0.0000000  0.6508444  3
   1721   1709   1712   1725     1  0.0000000  0.6508444  3
   1721   1709   1712   1726     1  0.0000000  0.6508444  3
   1722   1709   1707   1732     1  0.0000000  0.6508444  3
   1722   1709   1712   1725     1  0.0000000  0.6508444  3
   1722   1709   1712   1726     1  0.0000000  0.6508444  3
   1723   1710   1711   3859     1  180.0000771  0.0000000  2
   1724   1710   1711   3859     1  180.0000771  0.0000000  2
   1725   1712   1713   3933     1  180.0000771  0.0000000  2
   1726   1712   1713   3933     1  180.0000771  0.0000000  2
   1727   1714   1707   1732     1  0.0000000  0.6508444  3
   1727   1714   1715   1729     1  0.0000000  0.6508444  3
   1727   1714   1715   1730     1  0.0000000  0.6508444  3
   1728   1714   1707   1732     1  0.0000000  0.6508444  3
   1728   1714   1715   1729     1  0.0000000  0.6508444  3
   1728   1714   1715   1730     1  0.0000000  0.6508444  3
   1729   1715   1716   1731     1  0.0000000  0.0000000  2
   1730   1715   1716   1731     1  0.0000000  0.0000000  2
   1733   1734   1736   1749     1  0.0000000  0.6508444  3
   1733   1734   1736   1750     1  0.0000000  0.6508444  3
   1733   1735   1738   1751     1  0.0000000  0.6508444  3
   1733   1735   1738   1752     1  0.0000000  0.6508444  3
   1733   1740   1741   1755     1  0.0000000  0.6508444  3
   1733   1740   1741   1756     1  0.0000000  0.6508444  3
   1734   1733   1735   1747     1  0.0000000  0.6508444  3
   1734   1733   1735   1748     1  0.0000000  0.6508444  3
   1734   1733   1740   1753     1  0.0000000  0.6508444  3
   1734   1733   1740   1754     1  0.0000000  0.6508444  3
   1735   1733   1734   1745     1  0.0000000  0.6508444  3
   1735   1733   1734   1746     1  0.0000000  0.6508444  3
   1735   1733   1740   1753     1  0.0000000  0.6508444  3
   1735   1733   1740   1754     1  0.0000000  0.6508444  3
   1736   1734   1733   1758     1  0.0000000  0.6508444  3
   1736   1737   4007   4008     1  180.0000771  10.4600000  2
   1737   1736   1734   1745     1  0.0000000  0.6508444  3
   1737   1736   1734   1746     1  0.0000000  0.6508444  3
   1737   4007   4009   4010     1  0.0000000  0.0000000  2
   1737   4007   4009   4012     1  0.0000000  0.0000000  2
   1738   1735   1733   1758     1  0.0000000  0.6508444  3
   1738   1739   4081   4082     1  180.0000771  10.4600000  2
   1739   1738   1735   1747     1  0.0000000  0.6508444  3
   1739   1738   1735   1748     1  0.0000000  0.6508444  3
   1739   4081   4083   4084     1  0.0000000  0.0000000  2
   1739   4081   4083   4086     1  0.0000000  0.0000000  2
   1740   1733   1734   1745     1  0.0000000  0.6508444  3
   1740   1733   1734   1746     1  0.0000000  0.6508444  3
   1740   1733   1735   1747     1  0.0000000  0.6508444  3
   1740   1733   1735   1748     1  0.0000000  0.6508444  3
   1740   1741   1742   1757     1  0.0000000  0.0000000  2
   1741   1740   1733   1758     1  0.0000000  0.6508444  3
   1742   1741   1740   1753     1  0.0000000  0.6508444  3
   1742   1741   1740   1754     1  0.0000000  0.6508444  3
   1743   1737   1736   1749     1  0.0000000  3.3472000  1
   1743   1737   1736   1749     1  0.0000000  0.0000000  2
   1743   1737   1736   1749     1  180.0000771  0.3347200  3
   1743   1737   1736   1750     1  0.0000000  3.3472000  1
   1743   1737   1736   1750     1  0.0000000  0.0000000  2
   1743   1737   1736   1750     1  180.0000771  0.3347200  3
   1743   1737   4007   4008     1  0.0000000  8.3680000  1
   1743   1737   4007   4008     1  180.0000771  10.4600000  2
   1744   1739   1738   1751     1  0.0000000  3.3472000  1
   1744   1739   1738   1751     1  0.0000000  0.0000000  2
   1744   1739   1738   1751     1  180.0000771  0.3347200  3
   1744   1739   1738   1752     1  0.0000000  3.3472000  1
   1744   1739   1738   1752     1  0.0000000  0.0000000  2
   1744   1739   1738   1752     1  180.0000771  0.3347200  3
   1744   1739   4081   4082     1  0.0000000  8.3680000  1
   1744   1739   4081   4082     1  180.0000771  10.4600000  2
   1745   1734   1733   1758     1  0.0000000  0.6508444  3
   1745   1734   1736   1749     1  0.0000000  0.6508444  3
   1745   1734   1736   1750     1  0.0000000  0.6508444  3
   1746   1734   1733   1758     1  0.0000000  0.6508444  3
   1746   1734   1736   1749     1  0.0000000  0.6508444  3
   1746   1734   1736   1750     1  0.0000000  0.6508444  3
   1747   1735   1733   1758     1  0.0000000  0.6508444  3
   1747   1735   1738   1751     1  0.0000000  0.6508444  3
   1747   1735   1738   1752     1  0.0000000  0.6508444  3
   1748   1735   1733   1758     1  0.0000000  0.6508444  3
   1748   1735   1738   1751     1  0.0000000  0.6508444  3
   1748   1735   1738   1752     1  0.0000000  0.6508444  3
   1749   1736   1737   4007     1  180.0000771  0.0000000  2
   1750   1736   1737   4007     1  180.0000771  0.0000000  2
   1751   1738   1739   4081     1  180.0000771  0.0000000  2
   1752   1738   1739   4081     1  180.0000771  0.0000000  2
   1753   1740   1733   1758     1  0.0000000  0.6508444  3
   1753   1740   1741   1755     1  0.0000000  0.6508444  3
   1753   1740   1741   1756     1  0.0000000  0.6508444  3
   1754   1740   1733   1758     1  0.0000000  0.6508444  3
   1754   1740   1741   1755     1  0.0000000  0.6508444  3
   1754   1740   1741   1756     1  0.0000000  0.6508444  3
   1755   1741   1742   1757     1  0.0000000  0.0000000  2
   1756   1741   1742   1757     1  0.0000000  0.0000000  2
   1759   1760   1762   1775     1  0.0000000  0.6508444  3
   1759   1760   1762   1776     1  0.0000000  0.6508444  3
   1759   1761   1764   1777     1  0.0000000  0.6508444  3
   1759   1761   1764   1778     1  0.0000000  0.6508444  3
   1759   1766   1767   1781     1  0.0000000  0.6508444  3
   1759   1766   1767   1782     1  0.0000000  0.6508444  3
   1760   1759   1761   1773     1  0.0000000  0.6508444  3
   1760   1759   1761   1774     1  0.0000000  0.6508444  3
   1760   1759   1766   1779     1  0.0000000  0.6508444  3
   1760   1759   1766   1780     1  0.0000000  0.6508444  3
   1761   1759   1760   1771     1  0.0000000  0.6508444  3
   1761   1759   1760   1772     1  0.0000000  0.6508444  3
   1761   1759   1766   1779     1  0.0000000  0.6508444  3
   1761   1759   1766   1780     1  0.0000000  0.6508444  3
   1762   1760   1759   1784     1  0.0000000  0.6508444  3
   1762   1763   4155   4156     1  180.0000771  10.4600000  2
   1763   1762   1760   1771     1  0.0000000  0.6508444  3
   1763   1762   1760   1772     1  0.0000000  0.6508444  3
   1763   4155   4157   4158     1  0.0000000  0.0000000  2
   1763   4155   4157   4160     1  0.0000000  0.0000000  2
   1764   1761   1759   1784     1  0.0000000  0.6508444  3
   1764   1765   4229   4230     1  180.0000771  10.4600000  2
   1765   1764   1761   1773     1  0.0000000  0.6508444  3
   1765   1764   1761   1774     1  0.0000000  0.6508444  3
   1765   4229   4231   4232     1  0.0000000  0.0000000  2
   1765   4229   4231   4234     1  0.0000000  0.0000000  2
   1766   1759   1760   1771     1  0.0000000  0.6508444  3
   1766   1759   1760   1772     1  0.0000000  0.6508444  3
   1766   1759   1761   1773     1  0.0000000  0.6508444  3
   1766   1759   1761   1774     1  0.0000000  0.6508444  3
   1766   1767   1768   1783     1  0.0000000  0.0000000  2
   1767   1766   1759   1784     1  0.0000000  0.6508444  3
   1768   1767   1766   1779     1  0.0000000  0.6508444  3
   1768   1767   1766   1780     1  0.0000000  0.6508444  3
   1769   1763   1762   1775     1  0.0000000  3.3472000  1
   1769   1763   1762   1775     1  0.0000000  0.0000000  2
   1769   1763   1762   1775     1  180.0000771  0.3347200  3
   1769   1763   1762   1776     1  0.0000000  3.3472000  1
   1769   1763   1762   1776     1  0.0000000  0.0000000  2
   1769   1763   1762   1776     1  180.0000771  0.3347200  3
   1769   1763   4155   4156     1  0.0000000  8.3680000  1
   1769   1763   4155   4156     1  180.0000771  10.4600000  2
   1770   1765   1764   1777     1  0.0000000  3.3472000  1
   1770   1765   1764   1777     1  0.0000000  0.0000000  2
   1770   1765   1764   1777     1  180.0000771  0.3347200  3
   1770   1765   1764   1778     1  0.0000000  3.3472000  1
   1770   1765   1764   1778     1  0.0000000  0.0000000  2
   1770   1765   1764   1778     1  180.0000771  0.3347200  3
   1770   1765   4229   4230     1  0.0000000  8.3680000  1
   1770   1765   4229   4230     1  180.0000771  10.4600000  2
   1771   1760   1759   1784     1  0.0000000  0.6508444  3
   1771   1760   1762   1775     1  0.0000000  0.6508444  3
   1771   1760   1762   1776     1  0.0000000  0.6508444  3
   1772   1760   1759   1784     1  0.0000000  0.6508444  3
   1772   1760   1762   1775     1  0.0000000  0.6508444  3
   1772   1760   1762   1776     1  0.0000000  0.6508444  3
   1773   1761   1759   1784     1  0.0000000  0.6508444  3
   1773   1761   1764   1777     1  0.0000000  0.6508444  3
   1773   1761   1764   1778     1  0.0000000  0.6508444  3
   1774   1761   1759   1784     1  0.0000000  0.6508444  3
   1774   1761   1764   1777     1  0.0000000  0.6508444  3
   1774   1761   1764   1778     1  0.0000000  0.6508444  3
   1775   1762   1763   4155     1  180.0000771  0.0000000  2
   1776   1762   1763   4155     1  180.0000771  0.0000000  2
   1777   1764   1765   4229     1  180.0000771  0.0000000  2
   1778   1764   1765   4229     1  180.0000771  0.0000000  2
   1779   1766   1759   1784     1  0.0000000  0.6508444  3
   1779   1766   1767   1781     1  0.0000000  0.6508444  3
   1779   1766   1767   1782     1  0.0000000  0.6508444  3
   1780   1766   1759   1784     1  0.0000000  0.6508444  3
   1780   1766   1767   1781     1  0.0000000  0.6508444  3
   1780   1766   1767   1782     1  0.0000000  0.6508444  3
   1781   1767   1768   1783     1  0.0000000  0.0000000  2
   1782   1767   1768   1783     1  0.0000000  0.0000000  2
   1785   1786   1788   1801     1  0.0000000  0.6508444  3
   1785   1786   1788   1802     1  0.0000000  0.6508444  3
   1785   1787   1790   1803     1  0.0000000  0.6508444  3
   1785   1787   1790   1804     1  0.0000000  0.6508444  3
   1785   1792   1793   1807     1  0.0000000  0.6508444  3
   1785   1792   1793   1808     1  0.0000000  0.6508444  3
   1786   1785   1787   1799     1  0.0000000  0.6508444  3
   1786   1785   1787   1800     1  0.0000000  0.6508444  3
   1786   1785   1792   1805     1  0.0000000  0.6508444  3
   1786   1785   1792   1806     1  0.0000000  0.6508444  3
   1787   1785   1786   1797     1  0.0000000  0.6508444  3
   1787   1785   1786   1798     1  0.0000000  0.6508444  3
   1787   1785   1792   1805     1  0.0000000  0.6508444  3
   1787   1785   1792   1806     1  0.0000000  0.6508444  3
   1788   1786   1785   1810     1  0.0000000  0.6508444  3
   1788   1789   4303   4304     1  180.0000771  10.4600000  2
   1789   1788   1786   1797     1  0.0000000  0.6508444  3
   1789   1788   1786   1798     1  0.0000000  0.6508444  3
   1789   4303   4305   4306     1  0.0000000  0.0000000  2
   1789   4303   4305   4308     1  0.0000000  0.0000000  2
   1790   1787   1785   1810     1  0.0000000  0.6508444  3
   1790   1791   4377   4378     1  180.0000771  10.4600000  2
   1791   1790   1787   1799     1  0.0000000  0.6508444  3
   1791   1790   1787   1800     1  0.0000000  0.6508444  3
   1791   4377   4379   4380     1  0.0000000  0.0000000  2
   1791   4377   4379   4382     1  0.0000000  0.0000000  2
   1792   1785   1786   1797     1  0.0000000  0.6508444  3
   1792   1785   1786   1798     1  0.0000000  0.6508444  3
   1792   1785   1787   1799     1  0.0000000  0.6508444  3
   1792   1785   1787   1800     1  0.0000000  0.6508444  3
   1792   1793   1794   1809     1  0.0000000  0.0000000  2
   1793   1792   1785   1810     1  0.0000000  0.6508444  3
   1794   1793   1792   1805     1  0.0000000  0.6508444  3
   1794   1793   1792   1806     1  0.0000000  0.6508444  3
   1795   1789   1788   1801     1  0.0000000  3.3472000  1
   1795   1789   1788   1801     1  0.0000000  0.0000000  2
   1795   1789   1788   1801     1  180.0000771  0.3347200  3
   1795   1789   1788   1802     1  0.0000000  3.3472000  1
   1795   1789   1788   1802     1  0.0000000  0.0000000  2
   1795   1789   1788   1802     1  180.0000771  0.3347200  3
   1795   1789   4303   4304     1  0.0000000  8.3680000  1
   1795   1789   4303   4304     1  180.0000771  10.4600000  2
   1796   1791   1790   1803     1  0.0000000  3.3472000  1
   1796   1791   1790   1803     1  0.0000000  0.0000000  2
   1796   1791   1790   1803     1  180.0000771  0.3347200  3
   1796   1791   1790   1804     1  0.0000000  3.3472000  1
   1796   1791   1790   1804     1  0.0000000  0.0000000  2
   1796   1791   1790   1804     1  180.0000771  0.3347200  3
   1796   1791   4377   4378     1  0.0000000  8.3680000  1
   1796   1791   4377   4378     1  180.0000771  10.4600000  2
   1797   1786   1785   1810     1  0.0000000  0.6508444  3
   1797   1786   1788   1801     1  0.0000000  0.6508444  3
   1797   1786   1788   1802     1  0.0000000  0.6508444  3
   1798   1786   1785   1810     1  0.0000000  0.6508444  3
   1798   1786   1788   1801     1  0.0000000  0.6508444  3
   1798   1786   1788   1802     1  0.0000000  0.6508444  3
   1799   1787   1785   1810     1  0.0000000  0.6508444  3
   1799   1787   1790   1803     1  0.0000000  0.6508444  3
   1799   1787   1790   1804     1  0.0000000  0.6508444  3
   1800   1787   1785   1810     1  0.0000000  0.6508444  3
   1800   1787   1790   1803     1  0.0000000  0.6508444  3
   1800   1787   1790   1804     1  0.0000000  0.6508444  3
   1801   1788   1789   4303     1  180.0000771  0.0000000  2
   1802   1788   1789   4303     1  180.0000771  0.0000000  2
   1803   1790   1791   4377     1  180.0000771  0.0000000  2
   1804   1790   1791   4377     1  180.0000771  0.0000000  2
   1805   1792   1785   1810     1  0.0000000  0.6508444  3
   1805   1792   1793   1807     1  0.0000000  0.6508444  3
   1805   1792   1793   1808     1  0.0000000  0.6508444  3
   1806   1792   1785   1810     1  0.0000000  0.6508444  3
   1806   1792   1793   1807     1  0.0000000  0.6508444  3
   1806   1792   1793   1808     1  0.0000000  0.6508444  3
   1807   1793   1794   1809     1  0.0000000  0.0000000  2
   1808   1793   1794   1809     1  0.0000000  0.0000000  2
   1811   1812   1814   1827     1  0.0000000  0.6508444  3
   1811   1812   1814   1828     1  0.0000000  0.6508444  3
   1811   1813   1816   1829     1  0.0000000  0.6508444  3
   1811   1813   1816   1830     1  0.0000000  0.6508444  3
   1811   1818   1819   1833     1  0.0000000  0.6508444  3
   1811   1818   1819   1834     1  0.0000000  0.6508444  3
   1812   1811   1813   1825     1  0.0000000  0.6508444  3
   1812   1811   1813   1826     1  0.0000000  0.6508444  3
   1812   1811   1818   1831     1  0.0000000  0.6508444  3
   1812   1811   1818   1832     1  0.0000000  0.6508444  3
   1813   1811   1812   1823     1  0.0000000  0.6508444  3
   1813   1811   1812   1824     1  0.0000000  0.6508444  3
   1813   1811   1818   1831     1  0.0000000  0.6508444  3
   1813   1811   1818   1832     1  0.0000000  0.6508444  3
   1814   1812   1811   1836     1  0.0000000  0.6508444  3
   1814   1815   4451   4452     1  180.0000771  10.4600000  2
   1815   1814   1812   1823     1  0.0000000  0.6508444  3
   1815   1814   1812   1824     1  0.0000000  0.6508444  3
   1815   4451   4453   4454     1  0.0000000  0.0000000  2
   1815   4451   4453   4456     1  0.0000000  0.0000000  2
   1816   1813   1811   1836     1  0.0000000  0.6508444  3
   1816   1817   4525   4526     1  180.0000771  10.4600000  2
   1817   1816   1813   1825     1  0.0000000  0.6508444  3
   1817   1816   1813   1826     1  0.0000000  0.6508444  3
   1817   4525   4527   4528     1  0.0000000  0.0000000  2
   1817   4525   4527   4530     1  0.0000000  0.0000000  2
   1818   1811   1812   1823     1  0.0000000  0.6508444  3
   1818   1811   1812   1824     1  0.0000000  0.6508444  3
   1818   1811   1813   1825     1  0.0000000  0.6508444  3
   1818   1811   1813   1826     1  0.0000000  0.6508444  3
   1818   1819   1820   1835     1  0.0000000  0.0000000  2
   1819   1818   1811   1836     1  0.0000000  0.6508444  3
   1820   1819   1818   1831     1  0.0000000  0.6508444  3
   1820   1819   1818   1832     1  0.0000000  0.6508444  3
   1821   1815   1814   1827     1  0.0000000  3.3472000  1
   1821   1815   1814   1827     1  0.0000000  0.0000000  2
   1821   1815   1814   1827     1  180.0000771  0.3347200  3
   1821   1815   1814   1828     1  0.0000000  3.3472000  1
   1821   1815   1814   1828     1  0.0000000  0.0000000  2
   1821   1815   1814   1828     1  180.0000771  0.3347200  3
   1821   1815   4451   4452     1  0.0000000  8.3680000  1
   1821   1815   4451   4452     1  180.0000771  10.4600000  2
   1822   1817   1816   1829     1  0.0000000  3.3472000  1
   1822   1817   1816   1829     1  0.0000000  0.0000000  2
   1822   1817   1816   1829     1  180.0000771  0.3347200  3
   1822   1817   1816   1830     1  0.0000000  3.3472000  1
   1822   1817   1816   1830     1  0.0000000  0.0000000  2
   1822   1817   1816   1830     1  180.0000771  0.3347200  3
   1822   1817   4525   4526     1  0.0000000  8.3680000  1
   1822   1817   4525   4526     1  180.0000771  10.4600000  2
   1823   1812   1811   1836     1  0.0000000  0.6508444  3
   1823   1812   1814   1827     1  0.0000000  0.6508444  3
   1823   1812   1814   1828     1  0.0000000  0.6508444  3
   1824   1812   1811   1836     1  0.0000000  0.6508444  3
   1824   1812   1814   1827     1  0.0000000  0.6508444  3
   1824   1812   1814   1828     1  0.0000000  0.6508444  3
   1825   1813   1811   1836     1  0.0000000  0.6508444  3
   1825   1813   1816   1829     1  0.0000000  0.6508444  3
   1825   1813   1816   1830     1  0.0000000  0.6508444  3
   1826   1813   1811   1836     1  0.0000000  0.6508444  3
   1826   1813   1816   1829     1  0.0000000  0.6508444  3
   1826   1813   1816   1830     1  0.0000000  0.6508444  3
   1827   1814   1815   4451     1  180.0000771  0.0000000  2
   1828   1814   1815   4451     1  180.0000771  0.0000000  2
   1829   1816   1817   4525     1  180.0000771  0.0000000  2
   1830   1816   1817   4525     1  180.0000771  0.0000000  2
   1831   1818   1811   1836     1  0.0000000  0.6508444  3
   1831   1818   1819   1833     1  0.0000000  0.6508444  3
   1831   1818   1819   1834     1  0.0000000  0.6508444  3
   1832   1818   1811   1836     1  0.0000000  0.6508444  3
   1832   1818   1819   1833     1  0.0000000  0.6508444  3
   1832   1818   1819   1834     1  0.0000000  0.6508444  3
   1833   1819   1820   1835     1  0.0000000  0.0000000  2
   1834   1819   1820   1835     1  0.0000000  0.0000000  2
   1837   1838   1840   1853     1  0.0000000  0.6508444  3
   1837   1838   1840   1854     1  0.0000000  0.6508444  3
   1837   1839   1842   1855     1  0.0000000  0.6508444  3
   1837   1839   1842   1856     1  0.0000000  0.6508444  3
   1837   1844   1845   1859     1  0.0000000  0.6508444  3
   1837   1844   1845   1860     1  0.0000000  0.6508444  3
   1838   1837   1839   1851     1  0.0000000  0.6508444  3
   1838   1837   1839   1852     1  0.0000000  0.6508444  3
   1838   1837   1844   1857     1  0.0000000  0.6508444  3
   1838   1837   1844   1858     1  0.0000000  0.6508444  3
   1839   1837   1838   1849     1  0.0000000  0.6508444  3
   1839   1837   1838   1850     1  0.0000000  0.6508444  3
   1839   1837   1844   1857     1  0.0000000  0.6508444  3
   1839   1837   1844   1858     1  0.0000000  0.6508444  3
   1840   1838   1837   1862     1  0.0000000  0.6508444  3
   1840   1841   4599   4600     1  180.0000771  10.4600000  2
   1841   1840   1838   1849     1  0.0000000  0.6508444  3
   1841   1840   1838   1850     1  0.0000000  0.6508444  3
   1841   4599   4601   4602     1  0.0000000  0.0000000  2
   1841   4599   4601   4604     1  0.0000000  0.0000000  2
   1842   1839   1837   1862     1  0.0000000  0.6508444  3
   1842   1843   4673   4674     1  180.0000771  10.4600000  2
   1843   1842   1839   1851     1  0.0000000  0.6508444  3
   1843   1842   1839   1852     1  0.0000000  0.6508444  3
   1843   4673   4675   4676     1  0.0000000  0.0000000  2
   1843   4673   4675   4678     1  0.0000000  0.0000000  2
   1844   1837   1838   1849     1  0.0000000  0.6508444  3
   1844   1837   1838   1850     1  0.0000000  0.6508444  3
   1844   1837   1839   1851     1  0.0000000  0.6508444  3
   1844   1837   1839   1852     1  0.0000000  0.6508444  3
   1844   1845   1846   1861     1  0.0000000  0.0000000  2
   1845   1844   1837   1862     1  0.0000000  0.6508444  3
   1846   1845   1844   1857     1  0.0000000  0.6508444  3
   1846   1845   1844   1858     1  0.0000000  0.6508444  3
   1847   1841   1840   1853     1  0.0000000  3.3472000  1
   1847   1841   1840   1853     1  0.0000000  0.0000000  2
   1847   1841   1840   1853     1  180.0000771  0.3347200  3
   1847   1841   1840   1854     1  0.0000000  3.3472000  1
   1847   1841   1840   1854     1  0.0000000  0.0000000  2
   1847   1841   1840   1854     1  180.0000771  0.3347200  3
   1847   1841   4599   4600     1  0.0000000  8.3680000  1
   1847   1841   4599   4600     1  180.0000771  10.4600000  2
   1848   1843   1842   1855     1  0.0000000  3.3472000  1
   1848   1843   1842   1855     1  0.0000000  0.0000000  2
   1848   1843   1842   1855     1  180.0000771  0.3347200  3
   1848   1843   1842   1856     1  0.0000000  3.3472000  1
   1848   1843   1842   1856     1  0.0000000  0.0000000  2
   1848   1843   1842   1856     1  180.0000771  0.3347200  3
   1848   1843   4673   4674     1  0.0000000  8.3680000  1
   1848   1843   4673   4674     1  180.0000771  10.4600000  2
   1849   1838   1837   1862     1  0.0000000  0.6508444  3
   1849   1838   1840   1853     1  0.0000000  0.6508444  3
   1849   1838   1840   1854     1  0.0000000  0.6508444  3
   1850   1838   1837   1862     1  0.0000000  0.6508444  3
   1850   1838   1840   1853     1  0.0000000  0.6508444  3
   1850   1838   1840   1854     1  0.0000000  0.6508444  3
   1851   1839   1837   1862     1  0.0000000  0.6508444  3
   1851   1839   1842   1855     1  0.0000000  0.6508444  3
   1851   1839   1842   1856     1  0.0000000  0.6508444  3
   1852   1839   1837   1862     1  0.0000000  0.6508444  3
   1852   1839   1842   1855     1  0.0000000  0.6508444  3
   1852   1839   1842   1856     1  0.0000000  0.6508444  3
   1853   1840   1841   4599     1  180.0000771  0.0000000  2
   1854   1840   1841   4599     1  180.0000771  0.0000000  2
   1855   1842   1843   4673     1  180.0000771  0.0000000  2
   1856   1842   1843   4673     1  180.0000771  0.0000000  2
   1857   1844   1837   1862     1  0.0000000  0.6508444  3
   1857   1844   1845   1859     1  0.0000000  0.6508444  3
   1857   1844   1845   1860     1  0.0000000  0.6508444  3
   1858   1844   1837   1862     1  0.0000000  0.6508444  3
   1858   1844   1845   1859     1  0.0000000  0.6508444  3
   1858   1844   1845   1860     1  0.0000000  0.6508444  3
   1859   1845   1846   1861     1  0.0000000  0.0000000  2
   1860   1845   1846   1861     1  0.0000000  0.0000000  2
   1863   1864   1866   1879     1  0.0000000  0.6508444  3
   1863   1864   1866   1880     1  0.0000000  0.6508444  3
   1863   1865   1868   1881     1  0.0000000  0.6508444  3
   1863   1865   1868   1882     1  0.0000000  0.6508444  3
   1863   1870   1871   1885     1  0.0000000  0.6508444  3
   1863   1870   1871   1886     1  0.0000000  0.6508444  3
   1864   1863   1865   1877     1  0.0000000  0.6508444  3
   1864   1863   1865   1878     1  0.0000000  0.6508444  3
   1864   1863   1870   1883     1  0.0000000  0.6508444  3
   1864   1863   1870   1884     1  0.0000000  0.6508444  3
   1865   1863   1864   1875     1  0.0000000  0.6508444  3
   1865   1863   1864   1876     1  0.0000000  0.6508444  3
   1865   1863   1870   1883     1  0.0000000  0.6508444  3
   1865   1863   1870   1884     1  0.0000000  0.6508444  3
   1866   1864   1863   1888     1  0.0000000  0.6508444  3
   1866   1867   4747   4748     1  180.0000771  10.4600000  2
   1867   1866   1864   1875     1  0.0000000  0.6508444  3
   1867   1866   1864   1876     1  0.0000000  0.6508444  3
   1867   4747   4749   4750     1  0.0000000  0.0000000  2
   1867   4747   4749   4752     1  0.0000000  0.0000000  2
   1868   1865   1863   1888     1  0.0000000  0.6508444  3
   1868   1869   4821   4822     1  180.0000771  10.4600000  2
   1869   1868   1865   1877     1  0.0000000  0.6508444  3
   1869   1868   1865   1878     1  0.0000000  0.6508444  3
   1869   4821   4823   4824     1  0.0000000  0.0000000  2
   1869   4821   4823   4826     1  0.0000000  0.0000000  2
   1870   1863   1864   1875     1  0.0000000  0.6508444  3
   1870   1863   1864   1876     1  0.0000000  0.6508444  3
   1870   1863   1865   1877     1  0.0000000  0.6508444  3
   1870   1863   1865   1878     1  0.0000000  0.6508444  3
   1870   1871   1872   1887     1  0.0000000  0.0000000  2
   1871   1870   1863   1888     1  0.0000000  0.6508444  3
   1872   1871   1870   1883     1  0.0000000  0.6508444  3
   1872   1871   1870   1884     1  0.0000000  0.6508444  3
   1873   1867   1866   1879     1  0.0000000  3.3472000  1
   1873   1867   1866   1879     1  0.0000000  0.0000000  2
   1873   1867   1866   1879     1  180.0000771  0.3347200  3
   1873   1867   1866   1880     1  0.0000000  3.3472000  1
   1873   1867   1866   1880     1  0.0000000  0.0000000  2
   1873   1867   1866   1880     1  180.0000771  0.3347200  3
   1873   1867   4747   4748     1  0.0000000  8.3680000  1
   1873   1867   4747   4748     1  180.0000771  10.4600000  2
   1874   1869   1868   1881     1  0.0000000  3.3472000  1
   1874   1869   1868   1881     1  0.0000000  0.0000000  2
   1874   1869   1868   1881     1  180.0000771  0.3347200  3
   1874   1869   1868   1882     1  0.0000000  3.3472000  1
   1874   1869   1868   1882     1  0.0000000  0.0000000  2
   1874   1869   1868   1882     1  180.0000771  0.3347200  3
   1874   1869   4821   4822     1  0.0000000  8.3680000  1
   1874   1869   4821   4822     1  180.0000771  10.4600000  2
   1875   1864   1863   1888     1  0.0000000  0.6508444  3
   1875   1864   1866   1879     1  0.0000000  0.6508444  3
   1875   1864   1866   1880     1  0.0000000  0.6508444  3
   1876   1864   1863   1888     1  0.0000000  0.6508444  3
   1876   1864   1866   1879     1  0.0000000  0.6508444  3
   1876   1864   1866   1880     1  0.0000000  0.6508444  3
   1877   1865   1863   1888     1  0.0000000  0.6508444  3
   1877   1865   1868   1881     1  0.0000000  0.6508444  3
   1877   1865   1868   1882     1  0.0000000  0.6508444  3
   1878   1865   1863   1888     1  0.0000000  0.6508444  3
   1878   1865   1868   1881     1  0.0000000  0.6508444  3
   1878   1865   1868   1882     1  0.0000000  0.6508444  3
   1879   1866   1867   4747     1  180.0000771  0.0000000  2
   1880   1866   1867   4747     1  180.0000771  0.0000000  2
   1881   1868   1869   4821     1  180.0000771  0.0000000  2
   1882   1868   1869   4821     1  180.0000771  0.0000000  2
   1883   1870   1863   1888     1  0.0000000  0.6508444  3
   1883   1870   1871   1885     1  0.0000000  0.6508444  3
   1883   1870   1871   1886     1  0.0000000  0.6508444  3
   1884   1870   1863   1888     1  0.0000000  0.6508444  3
   1884   1870   1871   1885     1  0.0000000  0.6508444  3
   1884   1870   1871   1886     1  0.0000000  0.6508444  3
   1885   1871   1872   1887     1  0.0000000  0.0000000  2
   1886   1871   1872   1887     1  0.0000000  0.0000000  2
   1889   1890   1892   1905     1  0.0000000  0.6508444  3
   1889   1890   1892   1906     1  0.0000000  0.6508444  3
   1889   1891   1894   1907     1  0.0000000  0.6508444  3
   1889   1891   1894   1908     1  0.0000000  0.6508444  3
   1889   1896   1897   1911     1  0.0000000  0.6508444  3
   1889   1896   1897   1912     1  0.0000000  0.6508444  3
   1890   1889   1891   1903     1  0.0000000  0.6508444  3
   1890   1889   1891   1904     1  0.0000000  0.6508444  3
   1890   1889   1896   1909     1  0.0000000  0.6508444  3
   1890   1889   1896   1910     1  0.0000000  0.6508444  3
   1891   1889   1890   1901     1  0.0000000  0.6508444  3
   1891   1889   1890   1902     1  0.0000000  0.6508444  3
   1891   1889   1896   1909     1  0.0000000  0.6508444  3
   1891   1889   1896   1910     1  0.0000000  0.6508444  3
   1892   1890   1889   1914     1  0.0000000  0.6508444  3
   1892   1893   4895   4896     1  180.0000771  10.4600000  2
   1893   1892   1890   1901     1  0.0000000  0.6508444  3
   1893   1892   1890   1902     1  0.0000000  0.6508444  3
   1893   4895   4897   4898     1  0.0000000  0.0000000  2
   1893   4895   4897   4900     1  0.0000000  0.0000000  2
   1894   1891   1889   1914     1  0.0000000  0.6508444  3
   1894   1895   4969   4970     1  180.0000771  10.4600000  2
   1895   1894   1891   1903     1  0.0000000  0.6508444  3
   1895   1894   1891   1904     1  0.0000000  0.6508444  3
   1895   4969   4971   4972     1  0.0000000  0.0000000  2
   1895   4969   4971   4974     1  0.0000000  0.0000000  2
   1896   1889   1890   1901     1  0.0000000  0.6508444  3
   1896   1889   1890   1902     1  0.0000000  0.6508444  3
   1896   1889   1891   1903     1  0.0000000  0.6508444  3
   1896   1889   1891   1904     1  0.0000000  0.6508444  3
   1896   1897   1898   1913     1  0.0000000  0.0000000  2
   1897   1896   1889   1914     1  0.0000000  0.6508444  3
   1898   1897   1896   1909     1  0.0000000  0.6508444  3
   1898   1897   1896   1910     1  0.0000000  0.6508444  3
   1899   1893   1892   1905     1  0.0000000  3.3472000  1
   1899   1893   1892   1905     1  0.0000000  0.0000000  2
   1899   1893   1892   1905     1  180.0000771  0.3347200  3
   1899   1893   1892   1906     1  0.0000000  3.3472000  1
   1899   1893   1892   1906     1  0.0000000  0.0000000  2
   1899   1893   1892   1906     1  180.0000771  0.3347200  3
   1899   1893   4895   4896     1  0.0000000  8.3680000  1
   1899   1893   4895   4896     1  180.0000771  10.4600000  2
   1900   1895   1894   1907     1  0.0000000  3.3472000  1
   1900   1895   1894   1907     1  0.0000000  0.0000000  2
   1900   1895   1894   1907     1  180.0000771  0.3347200  3
   1900   1895   1894   1908     1  0.0000000  3.3472000  1
   1900   1895   1894   1908     1  0.0000000  0.0000000  2
   1900   1895   1894   1908     1  180.0000771  0.3347200  3
   1900   1895   4969   4970     1  0.0000000  8.3680000  1
   1900   1895   4969   4970     1  180.0000771  10.4600000  2
   1901   1890   1889   1914     1  0.0000000  0.6508444  3
   1901   1890   1892   1905     1  0.0000000  0.6508444  3
   1901   1890   1892   1906     1  0.0000000  0.6508444  3
   1902   1890   1889   1914     1  0.0000000  0.6508444  3
   1902   1890   1892   1905     1  0.0000000  0.6508444  3
   1902   1890   1892   1906     1  0.0000000  0.6508444  3
   1903   1891   1889   1914     1  0.0000000  0.6508444  3
   1903   1891   1894   1907     1  0.0000000  0.6508444  3
   1903   1891   1894   1908     1  0.0000000  0.6508444  3
   1904   1891   1889   1914     1  0.0000000  0.6508444  3
   1904   1891   1894   1907     1  0.0000000  0.6508444  3
   1904   1891   1894   1908     1  0.0000000  0.6508444  3
   1905   1892   1893   4895     1  180.0000771  0.0000000  2
   1906   1892   1893   4895     1  180.0000771  0.0000000  2
   1907   1894   1895   4969     1  180.0000771  0.0000000  2
   1908   1894   1895   4969     1  180.0000771  0.0000000  2
   1909   1896   1889   1914     1  0.0000000  0.6508444  3
   1909   1896   1897   1911     1  0.0000000  0.6508444  3
   1909   1896   1897   1912     1  0.0000000  0.6508444  3
   1910   1896   1889   1914     1  0.0000000  0.6508444  3
   1910   1896   1897   1911     1  0.0000000  0.6508444  3
   1910   1896   1897   1912     1  0.0000000  0.6508444  3
   1911   1897   1898   1913     1  0.0000000  0.0000000  2
   1912   1897   1898   1913     1  0.0000000  0.0000000  2
   1915   1916   1918   1931     1  0.0000000  0.6508444  3
   1915   1916   1918   1932     1  0.0000000  0.6508444  3
   1915   1917   1920   1933     1  0.0000000  0.6508444  3
   1915   1917   1920   1934     1  0.0000000  0.6508444  3
   1915   1922   1923   1937     1  0.0000000  0.6508444  3
   1915   1922   1923   1938     1  0.0000000  0.6508444  3
   1916   1915   1917   1929     1  0.0000000  0.6508444  3
   1916   1915   1917   1930     1  0.0000000  0.6508444  3
   1916   1915   1922   1935     1  0.0000000  0.6508444  3
   1916   1915   1922   1936     1  0.0000000  0.6508444  3
   1917   1915   1916   1927     1  0.0000000  0.6508444  3
   1917   1915   1916   1928     1  0.0000000  0.6508444  3
   1917   1915   1922   1935     1  0.0000000  0.6508444  3
   1917   1915   1922   1936     1  0.0000000  0.6508444  3
   1918   1916   1915   1940     1  0.0000000  0.6508444  3
   1918   1919   5043   5044     1  180.0000771  10.4600000  2
   1919   1918   1916   1927     1  0.0000000  0.6508444  3
   1919   1918   1916   1928     1  0.0000000  0.6508444  3
   1919   5043   5045   5046     1  0.0000000  0.0000000  2
   1919   5043   5045   5048     1  0.0000000  0.0000000  2
   1920   1917   1915   1940     1  0.0000000  0.6508444  3
   1920   1921   5117   5118     1  180.0000771  10.4600000  2
   1921   1920   1917   1929     1  0.0000000  0.6508444  3
   1921   1920   1917   1930     1  0.0000000  0.6508444  3
   1921   5117   5119   5120     1  0.0000000  0.0000000  2
   1921   5117   5119   5122     1  0.0000000  0.0000000  2
   1922   1915   1916   1927     1  0.0000000  0.6508444  3
   1922   1915   1916   1928     1  0.0000000  0.6508444  3
   1922   1915   1917   1929     1  0.0000000  0.6508444  3
   1922   1915   1917   1930     1  0.0000000  0.6508444  3
   1922   1923   1924   1939     1  0.0000000  0.0000000  2
   1923   1922   1915   1940     1  0.0000000  0.6508444  3
   1924   1923   1922   1935     1  0.0000000  0.6508444  3
   1924   1923   1922   1936     1  0.0000000  0.6508444  3
   1925   1919   1918   1931     1  0.0000000  3.3472000  1
   1925   1919   1918   1931     1  0.0000000  0.0000000  2
   1925   1919   1918   1931     1  180.0000771  0.3347200  3
   1925   1919   1918   1932     1  0.0000000  3.3472000  1
   1925   1919   1918   1932     1  0.0000000  0.0000000  2
   1925   1919   1918   1932     1  180.0000771  0.3347200  3
   1925   1919   5043   5044     1  0.0000000  8.3680000  1
   1925   1919   5043   5044     1  180.0000771  10.4600000  2
   1926   1921   1920   1933     1  0.0000000  3.3472000  1
   1926   1921   1920   1933     1  0.0000000  0.0000000  2
   1926   1921   1920   1933     1  180.0000771  0.3347200  3
   1926   1921   1920   1934     1  0.0000000  3.3472000  1
   1926   1921   1920   1934     1  0.0000000  0.0000000  2
   1926   1921   1920   1934     1  180.0000771  0.3347200  3
   1926   1921   5117   5118     1  0.0000000  8.3680000  1
   1926   1921   5117   5118     1  180.0000771  10.4600000  2
   1927   1916   1915   1940     1  0.0000000  0.6508444  3
   1927   1916   1918   1931     1  0.0000000  0.6508444  3
   1927   1916   1918   1932     1  0.0000000  0.6508444  3
   1928   1916   1915   1940     1  0.0000000  0.6508444  3
   1928   1916   1918   1931     1  0.0000000  0.6508444  3
   1928   1916   1918   1932     1  0.0000000  0.6508444  3
   1929   1917   1915   1940     1  0.0000000  0.6508444  3
   1929   1917   1920   1933     1  0.0000000  0.6508444  3
   1929   1917   1920   1934     1  0.0000000  0.6508444  3
   1930   1917   1915   1940     1  0.0000000  0.6508444  3
   1930   1917   1920   1933     1  0.0000000  0.6508444  3
   1930   1917   1920   1934     1  0.0000000  0.6508444  3
   1931   1918   1919   5043     1  180.0000771  0.0000000  2
   1932   1918   1919   5043     1  180.0000771  0.0000000  2
   1933   1920   1921   5117     1  180.0000771  0.0000000  2
   1934   1920   1921   5117     1  180.0000771  0.0000000  2
   1935   1922   1915   1940     1  0.0000000  0.6508444  3
   1935   1922   1923   1937     1  0.0000000  0.6508444  3
   1935   1922   1923   1938     1  0.0000000  0.6508444  3
   1936   1922   1915   1940     1  0.0000000  0.6508444  3
   1936   1922   1923   1937     1  0.0000000  0.6508444  3
   1936   1922   1923   1938     1  0.0000000  0.6508444  3
   1937   1923   1924   1939     1  0.0000000  0.0000000  2
   1938   1923   1924   1939     1  0.0000000  0.0000000  2
   1941   1942   1944   1957     1  0.0000000  0.6508444  3
   1941   1942   1944   1958     1  0.0000000  0.6508444  3
   1941   1943   1946   1959     1  0.0000000  0.6508444  3
   1941   1943   1946   1960     1  0.0000000  0.6508444  3
   1941   1948   1949   1963     1  0.0000000  0.6508444  3
   1941   1948   1949   1964     1  0.0000000  0.6508444  3
   1942   1941   1943   1955     1  0.0000000  0.6508444  3
   1942   1941   1943   1956     1  0.0000000  0.6508444  3
   1942   1941   1948   1961     1  0.0000000  0.6508444  3
   1942   1941   1948   1962     1  0.0000000  0.6508444  3
   1943   1941   1942   1953     1  0.0000000  0.6508444  3
   1943   1941   1942   1954     1  0.0000000  0.6508444  3
   1943   1941   1948   1961     1  0.0000000  0.6508444  3
   1943   1941   1948   1962     1  0.0000000  0.6508444  3
   1944   1942   1941   1966     1  0.0000000  0.6508444  3
   1944   1945   5191   5192     1  180.0000771  10.4600000  2
   1945   1944   1942   1953     1  0.0000000  0.6508444  3
   1945   1944   1942   1954     1  0.0000000  0.6508444  3
   1945   5191   5193   5194     1  0.0000000  0.0000000  2
   1945   5191   5193   5196     1  0.0000000  0.0000000  2
   1946   1943   1941   1966     1  0.0000000  0.6508444  3
   1946   1947   5265   5266     1  180.0000771  10.4600000  2
   1947   1946   1943   1955     1  0.0000000  0.6508444  3
   1947   1946   1943   1956     1  0.0000000  0.6508444  3
   1947   5265   5267   5268     1  0.0000000  0.0000000  2
   1947   5265   5267   5270     1  0.0000000  0.0000000  2
   1948   1941   1942   1953     1  0.0000000  0.6508444  3
   1948   1941   1942   1954     1  0.0000000  0.6508444  3
   1948   1941   1943   1955     1  0.0000000  0.6508444  3
   1948   1941   1943   1956     1  0.0000000  0.6508444  3
   1948   1949   1950   1965     1  0.0000000  0.0000000  2
   1949   1948   1941   1966     1  0.0000000  0.6508444  3
   1950   1949   1948   1961     1  0.0000000  0.6508444  3
   1950   1949   1948   1962     1  0.0000000  0.6508444  3
   1951   1945   1944   1957     1  0.0000000  3.3472000  1
   1951   1945   1944   1957     1  0.0000000  0.0000000  2
   1951   1945   1944   1957     1  180.0000771  0.3347200  3
   1951   1945   1944   1958     1  0.0000000  3.3472000  1
   1951   1945   1944   1958     1  0.0000000  0.0000000  2
   1951   1945   1944   1958     1  180.0000771  0.3347200  3
   1951   1945   5191   5192     1  0.0000000  8.3680000  1
   1951   1945   5191   5192     1  180.0000771  10.4600000  2
   1952   1947   1946   1959     1  0.0000000  3.3472000  1
   1952   1947   1946   1959     1  0.0000000  0.0000000  2
   1952   1947   1946   1959     1  180.0000771  0.3347200  3
   1952   1947   1946   1960     1  0.0000000  3.3472000  1
   1952   1947   1946   1960     1  0.0000000  0.0000000  2
   1952   1947   1946   1960     1  180.0000771  0.3347200  3
   1952   1947   5265   5266     1  0.0000000  8.3680000  1
   1952   1947   5265   5266     1  180.0000771  10.4600000  2
   1953   1942   1941   1966     1  0.0000000  0.6508444  3
   1953   1942   1944   1957     1  0.0000000  0.6508444  3
   1953   1942   1944   1958     1  0.0000000  0.6508444  3
   1954   1942   1941   1966     1  0.0000000  0.6508444  3
   1954   1942   1944   1957     1  0.0000000  0.6508444  3
   1954   1942   1944   1958     1  0.0000000  0.6508444  3
   1955   1943   1941   1966     1  0.0000000  0.6508444  3
   1955   1943   1946   1959     1  0.0000000  0.6508444  3
   1955   1943   1946   1960     1  0.0000000  0.6508444  3
   1956   1943   1941   1966     1  0.0000000  0.6508444  3
   1956   1943   1946   1959     1  0.0000000  0.6508444  3
   1956   1943   1946   1960     1  0.0000000  0.6508444  3
   1957   1944   1945   5191     1  180.0000771  0.0000000  2
   1958   1944   1945   5191     1  180.0000771  0.0000000  2
   1959   1946   1947   5265     1  180.0000771  0.0000000  2
   1960   1946   1947   5265     1  180.0000771  0.0000000  2
   1961   1948   1941   1966     1  0.0000000  0.6508444  3
   1961   1948   1949   1963     1  0.0000000  0.6508444  3
   1961   1948   1949   1964     1  0.0000000  0.6508444  3
   1962   1948   1941   1966     1  0.0000000  0.6508444  3
   1962   1948   1949   1963     1  0.0000000  0.6508444  3
   1962   1948   1949   1964     1  0.0000000  0.6508444  3
   1963   1949   1950   1965     1  0.0000000  0.0000000  2
   1964   1949   1950   1965     1  0.0000000  0.0000000  2
   1967   1968   1970   1983     1  0.0000000  0.6508444  3
   1967   1968   1970   1984     1  0.0000000  0.6508444  3
   1967   1969   1972   1985     1  0.0000000  0.6508444  3
   1967   1969   1972   1986     1  0.0000000  0.6508444  3
   1967   1974   1975   1989     1  0.0000000  0.6508444  3
   1967   1974   1975   1990     1  0.0000000  0.6508444  3
   1968   1967   1969   1981     1  0.0000000  0.6508444  3
   1968   1967   1969   1982     1  0.0000000  0.6508444  3
   1968   1967   1974   1987     1  0.0000000  0.6508444  3
   1968   1967   1974   1988     1  0.0000000  0.6508444  3
   1969   1967   1968   1979     1  0.0000000  0.6508444  3
   1969   1967   1968   1980     1  0.0000000  0.6508444  3
   1969   1967   1974   1987     1  0.0000000  0.6508444  3
   1969   1967   1974   1988     1  0.0000000  0.6508444  3
   1970   1968   1967   1992     1  0.0000000  0.6508444  3
   1970   1971   5339   5340     1  180.0000771  10.4600000  2
   1971   1970   1968   1979     1  0.0000000  0.6508444  3
   1971   1970   1968   1980     1  0.0000000  0.6508444  3
   1971   5339   5341   5342     1  0.0000000  0.0000000  2
   1971   5339   5341   5344     1  0.0000000  0.0000000  2
   1972   1969   1967   1992     1  0.0000000  0.6508444  3
   1972   1973   5413   5414     1  180.0000771  10.4600000  2
   1973   1972   1969   1981     1  0.0000000  0.6508444  3
   1973   1972   1969   1982     1  0.0000000  0.6508444  3
   1973   5413   5415   5416     1  0.0000000  0.0000000  2
   1973   5413   5415   5418     1  0.0000000  0.0000000  2
   1974   1967   1968   1979     1  0.0000000  0.6508444  3
   1974   1967   1968   1980     1  0.0000000  0.6508444  3
   1974   1967   1969   1981     1  0.0000000  0.6508444  3
   1974   1967   1969   1982     1  0.0000000  0.6508444  3
   1974   1975   1976   1991     1  0.0000000  0.0000000  2
   1975   1974   1967   1992     1  0.0000000  0.6508444  3
   1976   1975   1974   1987     1  0.0000000  0.6508444  3
   1976   1975   1974   1988     1  0.0000000  0.6508444  3
   1977   1971   1970   1983     1  0.0000000  3.3472000  1
   1977   1971   1970   1983     1  0.0000000  0.0000000  2
   1977   1971   1970   1983     1  180.0000771  0.3347200  3
   1977   1971   1970   1984     1  0.0000000  3.3472000  1
   1977   1971   1970   1984     1  0.0000000  0.0000000  2
   1977   1971   1970   1984     1  180.0000771  0.3347200  3
   1977   1971   5339   5340     1  0.0000000  8.3680000  1
   1977   1971   5339   5340     1  180.0000771  10.4600000  2
   1978   1973   1972   1985     1  0.0000000  3.3472000  1
   1978   1973   1972   1985     1  0.0000000  0.0000000  2
   1978   1973   1972   1985     1  180.0000771  0.3347200  3
   1978   1973   1972   1986     1  0.0000000  3.3472000  1
   1978   1973   1972   1986     1  0.0000000  0.0000000  2
   1978   1973   1972   1986     1  180.0000771  0.3347200  3
   1978   1973   5413   5414     1  0.0000000  8.3680000  1
   1978   1973   5413   5414     1  180.0000771  10.4600000  2
   1979   1968   1967   1992     1  0.0000000  0.6508444  3
   1979   1968   1970   1983     1  0.0000000  0.6508444  3
   1979   1968   1970   1984     1  0.0000000  0.6508444  3
   1980   1968   1967   1992     1  0.0000000  0.6508444  3
   1980   1968   1970   1983     1  0.0000000  0.6508444  3
   1980   1968   1970   1984     1  0.0000000  0.6508444  3
   1981   1969   1967   1992     1  0.0000000  0.6508444  3
   1981   1969   1972   1985     1  0.0000000  0.6508444  3
   1981   1969   1972   1986     1  0.0000000  0.6508444  3
   1982   1969   1967   1992     1  0.0000000  0.6508444  3
   1982   1969   1972   1985     1  0.0000000  0.6508444  3
   1982   1969   1972   1986     1  0.0000000  0.6508444  3
   1983   1970   1971   5339     1  180.0000771  0.0000000  2
   1984   1970   1971   5339     1  180.0000771  0.0000000  2
   1985   1972   1973   5413     1  180.0000771  0.0000000  2
   1986   1972   1973   5413     1  180.0000771  0.0000000  2
   1987   1974   1967   1992     1  0.0000000  0.6508444  3
   1987   1974   1975   1989     1  0.0000000  0.6508444  3
   1987   1974   1975   1990     1  0.0000000  0.6508444  3
   1988   1974   1967   1992     1  0.0000000  0.6508444  3
   1988   1974   1975   1989     1  0.0000000  0.6508444  3
   1988   1974   1975   1990     1  0.0000000  0.6508444  3
   1989   1975   1976   1991     1  0.0000000  0.0000000  2
   1990   1975   1976   1991     1  0.0000000  0.0000000  2
   1993   1994   1996   2009     1  0.0000000  0.6508444  3
   1993   1994   1996   2010     1  0.0000000  0.6508444  3
   1993   1995   1998   2011     1  0.0000000  0.6508444  3
   1993   1995   1998   2012     1  0.0000000  0.6508444  3
   1993   2000   2001   2015     1  0.0000000  0.6508444  3
   1993   2000   2001   2016     1  0.0000000  0.6508444  3
   1994   1993   1995   2007     1  0.0000000  0.6508444  3
   1994   1993   1995   2008     1  0.0000000  0.6508444  3
   1994   1993   2000   2013     1  0.0000000  0.6508444  3
   1994   1993   2000   2014     1  0.0000000  0.6508444  3
   1995   1993   1994   2005     1  0.0000000  0.6508444  3
   1995   1993   1994   2006     1  0.0000000  0.6508444  3
   1995   1993   2000   2013     1  0.0000000  0.6508444  3
   1995   1993   2000   2014     1  0.0000000  0.6508444  3
   1996   1994   1993   2018     1  0.0000000  0.6508444  3
   1996   1997   5487   5488     1  180.0000771  10.4600000  2
   1997   1996   1994   2005     1  0.0000000  0.6508444  3
   1997   1996   1994   2006     1  0.0000000  0.6508444  3
   1997   5487   5489   5490     1  0.0000000  0.0000000  2
   1997   5487   5489   5492     1  0.0000000  0.0000000  2
   1998   1995   1993   2018     1  0.0000000  0.6508444  3
   1998   1999   5561   5562     1  180.0000771  10.4600000  2
   1999   1998   1995   2007     1  0.0000000  0.6508444  3
   1999   1998   1995   2008     1  0.0000000  0.6508444  3
   1999   5561   5563   5564     1  0.0000000  0.0000000  2
   1999   5561   5563   5566     1  0.0000000  0.0000000  2
   2000   1993   1994   2005     1  0.0000000  0.6508444  3
   2000   1993   1994   2006     1  0.0000000  0.6508444  3
   2000   1993   1995   2007     1  0.0000000  0.6508444  3
   2000   1993   1995   2008     1  0.0000000  0.6508444  3
   2000   2001   2002   2017     1  0.0000000  0.0000000  2
   2001   2000   1993   2018     1  0.0000000  0.6508444  3
   2002   2001   2000   2013     1  0.0000000  0.6508444  3
   2002   2001   2000   2014     1  0.0000000  0.6508444  3
   2003   1997   1996   2009     1  0.0000000  3.3472000  1
   2003   1997   1996   2009     1  0.0000000  0.0000000  2
   2003   1997   1996   2009     1  180.0000771  0.3347200  3
   2003   1997   1996   2010     1  0.0000000  3.3472000  1
   2003   1997   1996   2010     1  0.0000000  0.0000000  2
   2003   1997   1996   2010     1  180.0000771  0.3347200  3
   2003   1997   5487   5488     1  0.0000000  8.3680000  1
   2003   1997   5487   5488     1  180.0000771  10.4600000  2
   2004   1999   1998   2011     1  0.0000000  3.3472000  1
   2004   1999   1998   2011     1  0.0000000  0.0000000  2
   2004   1999   1998   2011     1  180.0000771  0.3347200  3
   2004   1999   1998   2012     1  0.0000000  3.3472000  1
   2004   1999   1998   2012     1  0.0000000  0.0000000  2
   2004   1999   1998   2012     1  180.0000771  0.3347200  3
   2004   1999   5561   5562     1  0.0000000  8.3680000  1
   2004   1999   5561   5562     1  180.0000771  10.4600000  2
   2005   1994   1993   2018     1  0.0000000  0.6508444  3
   2005   1994   1996   2009     1  0.0000000  0.6508444  3
   2005   1994   1996   2010     1  0.0000000  0.6508444  3
   2006   1994   1993   2018     1  0.0000000  0.6508444  3
   2006   1994   1996   2009     1  0.0000000  0.6508444  3
   2006   1994   1996   2010     1  0.0000000  0.6508444  3
   2007   1995   1993   2018     1  0.0000000  0.6508444  3
   2007   1995   1998   2011     1  0.0000000  0.6508444  3
   2007   1995   1998   2012     1  0.0000000  0.6508444  3
   2008   1995   1993   2018     1  0.0000000  0.6508444  3
   2008   1995   1998   2011     1  0.0000000  0.6508444  3
   2008   1995   1998   2012     1  0.0000000  0.6508444  3
   2009   1996   1997   5487     1  180.0000771  0.0000000  2
   2010   1996   1997   5487     1  180.0000771  0.0000000  2
   2011   1998   1999   5561     1  180.0000771  0.0000000  2
   2012   1998   1999   5561     1  180.0000771  0.0000000  2
   2013   2000   1993   2018     1  0.0000000  0.6508444  3
   2013   2000   2001   2015     1  0.0000000  0.6508444  3
   2013   2000   2001   2016     1  0.0000000  0.6508444  3
   2014   2000   1993   2018     1  0.0000000  0.6508444  3
   2014   2000   2001   2015     1  0.0000000  0.6508444  3
   2014   2000   2001   2016     1  0.0000000  0.6508444  3
   2015   2001   2002   2017     1  0.0000000  0.0000000  2
   2016   2001   2002   2017     1  0.0000000  0.0000000  2
   2019   2020   2022   2035     1  0.0000000  0.6508444  3
   2019   2020   2022   2036     1  0.0000000  0.6508444  3
   2019   2021   2024   2037     1  0.0000000  0.6508444  3
   2019   2021   2024   2038     1  0.0000000  0.6508444  3
   2019   2026   2027   2041     1  0.0000000  0.6508444  3
   2019   2026   2027   2042     1  0.0000000  0.6508444  3
   2020   2019   2021   2033     1  0.0000000  0.6508444  3
   2020   2019   2021   2034     1  0.0000000  0.6508444  3
   2020   2019   2026   2039     1  0.0000000  0.6508444  3
   2020   2019   2026   2040     1  0.0000000  0.6508444  3
   2021   2019   2020   2031     1  0.0000000  0.6508444  3
   2021   2019   2020   2032     1  0.0000000  0.6508444  3
   2021   2019   2026   2039     1  0.0000000  0.6508444  3
   2021   2019   2026   2040     1  0.0000000  0.6508444  3
   2022   2020   2019   2044     1  0.0000000  0.6508444  3
   2022   2023   5635   5636     1  180.0000771  10.4600000  2
   2023   2022   2020   2031     1  0.0000000  0.6508444  3
   2023   2022   2020   2032     1  0.0000000  0.6508444  3
   2023   5635   5637   5638     1  0.0000000  0.0000000  2
   2023   5635   5637   5640     1  0.0000000  0.0000000  2
   2024   2021   2019   2044     1  0.0000000  0.6508444  3
   2024   2025   5709   5710     1  180.0000771  10.4600000  2
   2025   2024   2021   2033     1  0.0000000  0.6508444  3
   2025   2024   2021   2034     1  0.0000000  0.6508444  3
   2025   5709   5711   5712     1  0.0000000  0.0000000  2
   2025   5709   5711   5714     1  0.0000000  0.0000000  2
   2026   2019   2020   2031     1  0.0000000  0.6508444  3
   2026   2019   2020   2032     1  0.0000000  0.6508444  3
   2026   2019   2021   2033     1  0.0000000  0.6508444  3
   2026   2019   2021   2034     1  0.0000000  0.6508444  3
   2026   2027   2028   2043     1  0.0000000  0.0000000  2
   2027   2026   2019   2044     1  0.0000000  0.6508444  3
   2028   2027   2026   2039     1  0.0000000  0.6508444  3
   2028   2027   2026   2040     1  0.0000000  0.6508444  3
   2029   2023   2022   2035     1  0.0000000  3.3472000  1
   2029   2023   2022   2035     1  0.0000000  0.0000000  2
   2029   2023   2022   2035     1  180.0000771  0.3347200  3
   2029   2023   2022   2036     1  0.0000000  3.3472000  1
   2029   2023   2022   2036     1  0.0000000  0.0000000  2
   2029   2023   2022   2036     1  180.0000771  0.3347200  3
   2029   2023   5635   5636     1  0.0000000  8.3680000  1
   2029   2023   5635   5636     1  180.0000771  10.4600000  2
   2030   2025   2024   2037     1  0.0000000  3.3472000  1
   2030   2025   2024   2037     1  0.0000000  0.0000000  2
   2030   2025   2024   2037     1  180.0000771  0.3347200  3
   2030   2025   2024   2038     1  0.0000000  3.3472000  1
   2030   2025   2024   2038     1  0.0000000  0.0000000  2
   2030   2025   2024   2038     1  180.0000771  0.3347200  3
   2030   2025   5709   5710     1  0.0000000  8.3680000  1
   2030   2025   5709   5710     1  180.0000771  10.4600000  2
   2031   2020   2019   2044     1  0.0000000  0.6508444  3
   2031   2020   2022   2035     1  0.0000000  0.6508444  3
   2031   2020   2022   2036     1  0.0000000  0.6508444  3
   2032   2020   2019   2044     1  0.0000000  0.6508444  3
   2032   2020   2022   2035     1  0.0000000  0.6508444  3
   2032   2020   2022   2036     1  0.0000000  0.6508444  3
   2033   2021   2019   2044     1  0.0000000  0.6508444  3
   2033   2021   2024   2037     1  0.0000000  0.6508444  3
   2033   2021   2024   2038     1  0.0000000  0.6508444  3
   2034   2021   2019   2044     1  0.0000000  0.6508444  3
   2034   2021   2024   2037     1  0.0000000  0.6508444  3
   2034   2021   2024   2038     1  0.0000000  0.6508444  3
   2035   2022   2023   5635     1  180.0000771  0.0000000  2
   2036   2022   2023   5635     1  180.0000771  0.0000000  2
   2037   2024   2025   5709     1  180.0000771  0.0000000  2
   2038   2024   2025   5709     1  180.0000771  0.0000000  2
   2039   2026   2019   2044     1  0.0000000  0.6508444  3
   2039   2026   2027   2041     1  0.0000000  0.6508444  3
   2039   2026   2027   2042     1  0.0000000  0.6508444  3
   2040   2026   2019   2044     1  0.0000000  0.6508444  3
   2040   2026   2027   2041     1  0.0000000  0.6508444  3
   2040   2026   2027   2042     1  0.0000000  0.6508444  3
   2041   2027   2028   2043     1  0.0000000  0.0000000  2
   2042   2027   2028   2043     1  0.0000000  0.0000000  2
   2045   2046   2048   2061     1  0.0000000  0.6508444  3
   2045   2046   2048   2062     1  0.0000000  0.6508444  3
   2045   2047   2050   2063     1  0.0000000  0.6508444  3
   2045   2047   2050   2064     1  0.0000000  0.6508444  3
   2045   2052   2053   2067     1  0.0000000  0.6508444  3
   2045   2052   2053   2068     1  0.0000000  0.6508444  3
   2046   2045   2047   2059     1  0.0000000  0.6508444  3
   2046   2045   2047   2060     1  0.0000000  0.6508444  3
   2046   2045   2052   2065     1  0.0000000  0.6508444  3
   2046   2045   2052   2066     1  0.0000000  0.6508444  3
   2047   2045   2046   2057     1  0.0000000  0.6508444  3
   2047   2045   2046   2058     1  0.0000000  0.6508444  3
   2047   2045   2052   2065     1  0.0000000  0.6508444  3
   2047   2045   2052   2066     1  0.0000000  0.6508444  3
   2048   2046   2045   2070     1  0.0000000  0.6508444  3
   2048   2049   5783   5784     1  180.0000771  10.4600000  2
   2049   2048   2046   2057     1  0.0000000  0.6508444  3
   2049   2048   2046   2058     1  0.0000000  0.6508444  3
   2049   5783   5785   5786     1  0.0000000  0.0000000  2
   2049   5783   5785   5788     1  0.0000000  0.0000000  2
   2050   2047   2045   2070     1  0.0000000  0.6508444  3
   2050   2051   5857   5858     1  180.0000771  10.4600000  2
   2051   2050   2047   2059     1  0.0000000  0.6508444  3
   2051   2050   2047   2060     1  0.0000000  0.6508444  3
   2051   5857   5859   5860     1  0.0000000  0.0000000  2
   2051   5857   5859   5862     1  0.0000000  0.0000000  2
   2052   2045   2046   2057     1  0.0000000  0.6508444  3
   2052   2045   2046   2058     1  0.0000000  0.6508444  3
   2052   2045   2047   2059     1  0.0000000  0.6508444  3
   2052   2045   2047   2060     1  0.0000000  0.6508444  3
   2052   2053   2054   2069     1  0.0000000  0.0000000  2
   2053   2052   2045   2070     1  0.0000000  0.6508444  3
   2054   2053   2052   2065     1  0.0000000  0.6508444  3
   2054   2053   2052   2066     1  0.0000000  0.6508444  3
   2055   2049   2048   2061     1  0.0000000  3.3472000  1
   2055   2049   2048   2061     1  0.0000000  0.0000000  2
   2055   2049   2048   2061     1  180.0000771  0.3347200  3
   2055   2049   2048   2062     1  0.0000000  3.3472000  1
   2055   2049   2048   2062     1  0.0000000  0.0000000  2
   2055   2049   2048   2062     1  180.0000771  0.3347200  3
   2055   2049   5783   5784     1  0.0000000  8.3680000  1
   2055   2049   5783   5784     1  180.0000771  10.4600000  2
   2056   2051   2050   2063     1  0.0000000  3.3472000  1
   2056   2051   2050   2063     1  0.0000000  0.0000000  2
   2056   2051   2050   2063     1  180.0000771  0.3347200  3
   2056   2051   2050   2064     1  0.0000000  3.3472000  1
   2056   2051   2050   2064     1  0.0000000  0.0000000  2
   2056   2051   2050   2064     1  180.0000771  0.3347200  3
   2056   2051   5857   5858     1  0.0000000  8.3680000  1
   2056   2051   5857   5858     1  180.0000771  10.4600000  2
   2057   2046   2045   2070     1  0.0000000  0.6508444  3
   2057   2046   2048   2061     1  0.0000000  0.6508444  3
   2057   2046   2048   2062     1  0.0000000  0.6508444  3
   2058   2046   2045   2070     1  0.0000000  0.6508444  3
   2058   2046   2048   2061     1  0.0000000  0.6508444  3
   2058   2046   2048   2062     1  0.0000000  0.6508444  3
   2059   2047   2045   2070     1  0.0000000  0.6508444  3
   2059   2047   2050   2063     1  0.0000000  0.6508444  3
   2059   2047   2050   2064     1  0.0000000  0.6508444  3
   2060   2047   2045   2070     1  0.0000000  0.6508444  3
   2060   2047   2050   2063     1  0.0000000  0.6508444  3
   2060   2047   2050   2064     1  0.0000000  0.6508444  3
   2061   2048   2049   5783     1  180.0000771  0.0000000  2
   2062   2048   2049   5783     1  180.0000771  0.0000000  2
   2063   2050   2051   5857     1  180.0000771  0.0000000  2
   2064   2050   2051   5857     1  180.0000771  0.0000000  2
   2065   2052   2045   2070     1  0.0000000  0.6508444  3
   2065   2052   2053   2067     1  0.0000000  0.6508444  3
   2065   2052   2053   2068     1  0.0000000  0.6508444  3
   2066   2052   2045   2070     1  0.0000000  0.6508444  3
   2066   2052   2053   2067     1  0.0000000  0.6508444  3
   2066   2052   2053   2068     1  0.0000000  0.6508444  3
   2067   2053   2054   2069     1  0.0000000  0.0000000  2
   2068   2053   2054   2069     1  0.0000000  0.0000000  2
   2071   2072   2074   2087     1  0.0000000  0.6508444  3
   2071   2072   2074   2088     1  0.0000000  0.6508444  3
   2071   2073   2076   2089     1  0.0000000  0.6508444  3
   2071   2073   2076   2090     1  0.0000000  0.6508444  3
   2071   2078   2079   2093     1  0.0000000  0.6508444  3
   2071   2078   2079   2094     1  0.0000000  0.6508444  3
   2072   2071   2073   2085     1  0.0000000  0.6508444  3
   2072   2071   2073   2086     1  0.0000000  0.6508444  3
   2072   2071   2078   2091     1  0.0000000  0.6508444  3
   2072   2071   2078   2092     1  0.0000000  0.6508444  3
   2073   2071   2072   2083     1  0.0000000  0.6508444  3
   2073   2071   2072   2084     1  0.0000000  0.6508444  3
   2073   2071   2078   2091     1  0.0000000  0.6508444  3
   2073   2071   2078   2092     1  0.0000000  0.6508444  3
   2074   2072   2071   2096     1  0.0000000  0.6508444  3
   2074   2075   5931   5932     1  180.0000771  10.4600000  2
   2075   2074   2072   2083     1  0.0000000  0.6508444  3
   2075   2074   2072   2084     1  0.0000000  0.6508444  3
   2075   5931   5933   5934     1  0.0000000  0.0000000  2
   2075   5931   5933   5936     1  0.0000000  0.0000000  2
   2076   2073   2071   2096     1  0.0000000  0.6508444  3
   2076   2077   6005   6006     1  180.0000771  10.4600000  2
   2077   2076   2073   2085     1  0.0000000  0.6508444  3
   2077   2076   2073   2086     1  0.0000000  0.6508444  3
   2077   6005   6007   6008     1  0.0000000  0.0000000  2
   2077   6005   6007   6010     1  0.0000000  0.0000000  2
   2078   2071   2072   2083     1  0.0000000  0.6508444  3
   2078   2071   2072   2084     1  0.0000000  0.6508444  3
   2078   2071   2073   2085     1  0.0000000  0.6508444  3
   2078   2071   2073   2086     1  0.0000000  0.6508444  3
   2078   2079   2080   2095     1  0.0000000  0.0000000  2
   2079   2078   2071   2096     1  0.0000000  0.6508444  3
   2080   2079   2078   2091     1  0.0000000  0.6508444  3
   2080   2079   2078   2092     1  0.0000000  0.6508444  3
   2081   2075   2074   2087     1  0.0000000  3.3472000  1
   2081   2075   2074   2087     1  0.0000000  0.0000000  2
   2081   2075   2074   2087     1  180.0000771  0.3347200  3
   2081   2075   2074   2088     1  0.0000000  3.3472000  1
   2081   2075   2074   2088     1  0.0000000  0.0000000  2
   2081   2075   2074   2088     1  180.0000771  0.3347200  3
   2081   2075   5931   5932     1  0.0000000  8.3680000  1
   2081   2075   5931   5932     1  180.0000771  10.4600000  2
   2082   2077   2076   2089     1  0.0000000  3.3472000  1
   2082   2077   2076   2089     1  0.0000000  0.0000000  2
   2082   2077   2076   2089     1  180.0000771  0.3347200  3
   2082   2077   2076   2090     1  0.0000000  3.3472000  1
   2082   2077   2076   2090     1  0.0000000  0.0000000  2
   2082   2077   2076   2090     1  180.0000771  0.3347200  3
   2082   2077   6005   6006     1  0.0000000  8.3680000  1
   2082   2077   6005   6006     1  180.0000771  10.4600000  2
   2083   2072   2071   2096     1  0.0000000  0.6508444  3
   2083   2072   2074   2087     1  0.0000000  0.6508444  3
   2083   2072   2074   2088     1  0.0000000  0.6508444  3
   2084   2072   2071   2096     1  0.0000000  0.6508444  3
   2084   2072   2074   2087     1  0.0000000  0.6508444  3
   2084   2072   2074   2088     1  0.0000000  0.6508444  3
   2085   2073   2071   2096     1  0.0000000  0.6508444  3
   2085   2073   2076   2089     1  0.0000000  0.6508444  3
   2085   2073   2076   2090     1  0.0000000  0.6508444  3
   2086   2073   2071   2096     1  0.0000000  0.6508444  3
   2086   2073   2076   2089     1  0.0000000  0.6508444  3
   2086   2073   2076   2090     1  0.0000000  0.6508444  3
   2087   2074   2075   5931     1  180.0000771  0.0000000  2
   2088   2074   2075   5931     1  180.0000771  0.0000000  2
   2089   2076   2077   6005     1  180.0000771  0.0000000  2
   2090   2076   2077   6005     1  180.0000771  0.0000000  2
   2091   2078   2071   2096     1  0.0000000  0.6508444  3
   2091   2078   2079   2093     1  0.0000000  0.6508444  3
   2091   2078   2079   2094     1  0.0000000  0.6508444  3
   2092   2078   2071   2096     1  0.0000000  0.6508444  3
   2092   2078   2079   2093     1  0.0000000  0.6508444  3
   2092   2078   2079   2094     1  0.0000000  0.6508444  3
   2093   2079   2080   2095     1  0.0000000  0.0000000  2
   2094   2079   2080   2095     1  0.0000000  0.0000000  2
   2097   2098   2100   2113     1  0.0000000  0.6508444  3
   2097   2098   2100   2114     1  0.0000000  0.6508444  3
   2097   2099   2102   2115     1  0.0000000  0.6508444  3
   2097   2099   2102   2116     1  0.0000000  0.6508444  3
   2097   2104   2105   2119     1  0.0000000  0.6508444  3
   2097   2104   2105   2120     1  0.0000000  0.6508444  3
   2098   2097   2099   2111     1  0.0000000  0.6508444  3
   2098   2097   2099   2112     1  0.0000000  0.6508444  3
   2098   2097   2104   2117     1  0.0000000  0.6508444  3
   2098   2097   2104   2118     1  0.0000000  0.6508444  3
   2099   2097   2098   2109     1  0.0000000  0.6508444  3
   2099   2097   2098   2110     1  0.0000000  0.6508444  3
   2099   2097   2104   2117     1  0.0000000  0.6508444  3
   2099   2097   2104   2118     1  0.0000000  0.6508444  3
   2100   2098   2097   2122     1  0.0000000  0.6508444  3
   2100   2101   6079   6080     1  180.0000771  10.4600000  2
   2101   2100   2098   2109     1  0.0000000  0.6508444  3
   2101   2100   2098   2110     1  0.0000000  0.6508444  3
   2101   6079   6081   6082     1  0.0000000  0.0000000  2
   2101   6079   6081   6084     1  0.0000000  0.0000000  2
   2102   2099   2097   2122     1  0.0000000  0.6508444  3
   2102   2103   6153   6154     1  180.0000771  10.4600000  2
   2103   2102   2099   2111     1  0.0000000  0.6508444  3
   2103   2102   2099   2112     1  0.0000000  0.6508444  3
   2103   6153   6155   6156     1  0.0000000  0.0000000  2
   2103   6153   6155   6158     1  0.0000000  0.0000000  2
   2104   2097   2098   2109     1  0.0000000  0.6508444  3
   2104   2097   2098   2110     1  0.0000000  0.6508444  3
   2104   2097   2099   2111     1  0.0000000  0.6508444  3
   2104   2097   2099   2112     1  0.0000000  0.6508444  3
   2104   2105   2106   2121     1  0.0000000  0.0000000  2
   2105   2104   2097   2122     1  0.0000000  0.6508444  3
   2106   2105   2104   2117     1  0.0000000  0.6508444  3
   2106   2105   2104   2118     1  0.0000000  0.6508444  3
   2107   2101   2100   2113     1  0.0000000  3.3472000  1
   2107   2101   2100   2113     1  0.0000000  0.0000000  2
   2107   2101   2100   2113     1  180.0000771  0.3347200  3
   2107   2101   2100   2114     1  0.0000000  3.3472000  1
   2107   2101   2100   2114     1  0.0000000  0.0000000  2
   2107   2101   2100   2114     1  180.0000771  0.3347200  3
   2107   2101   6079   6080     1  0.0000000  8.3680000  1
   2107   2101   6079   6080     1  180.0000771  10.4600000  2
   2108   2103   2102   2115     1  0.0000000  3.3472000  1
   2108   2103   2102   2115     1  0.0000000  0.0000000  2
   2108   2103   2102   2115     1  180.0000771  0.3347200  3
   2108   2103   2102   2116     1  0.0000000  3.3472000  1
   2108   2103   2102   2116     1  0.0000000  0.0000000  2
   2108   2103   2102   2116     1  180.0000771  0.3347200  3
   2108   2103   6153   6154     1  0.0000000  8.3680000  1
   2108   2103   6153   6154     1  180.0000771  10.4600000  2
   2109   2098   2097   2122     1  0.0000000  0.6508444  3
   2109   2098   2100   2113     1  0.0000000  0.6508444  3
   2109   2098   2100   2114     1  0.0000000  0.6508444  3
   2110   2098   2097   2122     1  0.0000000  0.6508444  3
   2110   2098   2100   2113     1  0.0000000  0.6508444  3
   2110   2098   2100   2114     1  0.0000000  0.6508444  3
   2111   2099   2097   2122     1  0.0000000  0.6508444  3
   2111   2099   2102   2115     1  0.0000000  0.6508444  3
   2111   2099   2102   2116     1  0.0000000  0.6508444  3
   2112   2099   2097   2122     1  0.0000000  0.6508444  3
   2112   2099   2102   2115     1  0.0000000  0.6508444  3
   2112   2099   2102   2116     1  0.0000000  0.6508444  3
   2113   2100   2101   6079     1  180.0000771  0.0000000  2
   2114   2100   2101   6079     1  180.0000771  0.0000000  2
   2115   2102   2103   6153     1  180.0000771  0.0000000  2
   2116   2102   2103   6153     1  180.0000771  0.0000000  2
   2117   2104   2097   2122     1  0.0000000  0.6508444  3
   2117   2104   2105   2119     1  0.0000000  0.6508444  3
   2117   2104   2105   2120     1  0.0000000  0.6508444  3
   2118   2104   2097   2122     1  0.0000000  0.6508444  3
   2118   2104   2105   2119     1  0.0000000  0.6508444  3
   2118   2104   2105   2120     1  0.0000000  0.6508444  3
   2119   2105   2106   2121     1  0.0000000  0.0000000  2
   2120   2105   2106   2121     1  0.0000000  0.0000000  2
   2123   2124   2126   2139     1  0.0000000  0.6508444  3
   2123   2124   2126   2140     1  0.0000000  0.6508444  3
   2123   2125   2128   2141     1  0.0000000  0.6508444  3
   2123   2125   2128   2142     1  0.0000000  0.6508444  3
   2123   2130   2131   2145     1  0.0000000  0.6508444  3
   2123   2130   2131   2146     1  0.0000000  0.6508444  3
   2124   2123   2125   2137     1  0.0000000  0.6508444  3
   2124   2123   2125   2138     1  0.0000000  0.6508444  3
   2124   2123   2130   2143     1  0.0000000  0.6508444  3
   2124   2123   2130   2144     1  0.0000000  0.6508444  3
   2125   2123   2124   2135     1  0.0000000  0.6508444  3
   2125   2123   2124   2136     1  0.0000000  0.6508444  3
   2125   2123   2130   2143     1  0.0000000  0.6508444  3
   2125   2123   2130   2144     1  0.0000000  0.6508444  3
   2126   2124   2123   2148     1  0.0000000  0.6508444  3
   2126   2127   6227   6228     1  180.0000771  10.4600000  2
   2127   2126   2124   2135     1  0.0000000  0.6508444  3
   2127   2126   2124   2136     1  0.0000000  0.6508444  3
   2127   6227   6229   6230     1  0.0000000  0.0000000  2
   2127   6227   6229   6232     1  0.0000000  0.0000000  2
   2128   2125   2123   2148     1  0.0000000  0.6508444  3
   2128   2129   6301   6302     1  180.0000771  10.4600000  2
   2129   2128   2125   2137     1  0.0000000  0.6508444  3
   2129   2128   2125   2138     1  0.0000000  0.6508444  3
   2129   6301   6303   6304     1  0.0000000  0.0000000  2
   2129   6301   6303   6306     1  0.0000000  0.0000000  2
   2130   2123   2124   2135     1  0.0000000  0.6508444  3
   2130   2123   2124   2136     1  0.0000000  0.6508444  3
   2130   2123   2125   2137     1  0.0000000  0.6508444  3
   2130   2123   2125   2138     1  0.0000000  0.6508444  3
   2130   2131   2132   2147     1  0.0000000  0.0000000  2
   2131   2130   2123   2148     1  0.0000000  0.6508444  3
   2132   2131   2130   2143     1  0.0000000  0.6508444  3
   2132   2131   2130   2144     1  0.0000000  0.6508444  3
   2133   2127   2126   2139     1  0.0000000  3.3472000  1
   2133   2127   2126   2139     1  0.0000000  0.0000000  2
   2133   2127   2126   2139     1  180.0000771  0.3347200  3
   2133   2127   2126   2140     1  0.0000000  3.3472000  1
   2133   2127   2126   2140     1  0.0000000  0.0000000  2
   2133   2127   2126   2140     1  180.0000771  0.3347200  3
   2133   2127   6227   6228     1  0.0000000  8.3680000  1
   2133   2127   6227   6228     1  180.0000771  10.4600000  2
   2134   2129   2128   2141     1  0.0000000  3.3472000  1
   2134   2129   2128   2141     1  0.0000000  0.0000000  2
   2134   2129   2128   2141     1  180.0000771  0.3347200  3
   2134   2129   2128   2142     1  0.0000000  3.3472000  1
   2134   2129   2128   2142     1  0.0000000  0.0000000  2
   2134   2129   2128   2142     1  180.0000771  0.3347200  3
   2134   2129   6301   6302     1  0.0000000  8.3680000  1
   2134   2129   6301   6302     1  180.0000771  10.4600000  2
   2135   2124   2123   2148     1  0.0000000  0.6508444  3
   2135   2124   2126   2139     1  0.0000000  0.6508444  3
   2135   2124   2126   2140     1  0.0000000  0.6508444  3
   2136   2124   2123   2148     1  0.0000000  0.6508444  3
   2136   2124   2126   2139     1  0.0000000  0.6508444  3
   2136   2124   2126   2140     1  0.0000000  0.6508444  3
   2137   2125   2123   2148     1  0.0000000  0.6508444  3
   2137   2125   2128   2141     1  0.0000000  0.6508444  3
   2137   2125   2128   2142     1  0.0000000  0.6508444  3
   2138   2125   2123   2148     1  0.0000000  0.6508444  3
   2138   2125   2128   2141     1  0.0000000  0.6508444  3
   2138   2125   2128   2142     1  0.0000000  0.6508444  3
   2139   2126   2127   6227     1  180.0000771  0.0000000  2
   2140   2126   2127   6227     1  180.0000771  0.0000000  2
   2141   2128   2129   6301     1  180.0000771  0.0000000  2
   2142   2128   2129   6301     1  180.0000771  0.0000000  2
   2143   2130   2123   2148     1  0.0000000  0.6508444  3
   2143   2130   2131   2145     1  0.0000000  0.6508444  3
   2143   2130   2131   2146     1  0.0000000  0.6508444  3
   2144   2130   2123   2148     1  0.0000000  0.6508444  3
   2144   2130   2131   2145     1  0.0000000  0.6508444  3
   2144   2130   2131   2146     1  0.0000000  0.6508444  3
   2145   2131   2132   2147     1  0.0000000  0.0000000  2
   2146   2131   2132   2147     1  0.0000000  0.0000000  2
   2149   2150   2152   2165     1  0.0000000  0.6508444  3
   2149   2150   2152   2166     1  0.0000000  0.6508444  3
   2149   2151   2154   2167     1  0.0000000  0.6508444  3
   2149   2151   2154   2168     1  0.0000000  0.6508444  3
   2149   2156   2157   2171     1  0.0000000  0.6508444  3
   2149   2156   2157   2172     1  0.0000000  0.6508444  3
   2150   2149   2151   2163     1  0.0000000  0.6508444  3
   2150   2149   2151   2164     1  0.0000000  0.6508444  3
   2150   2149   2156   2169     1  0.0000000  0.6508444  3
   2150   2149   2156   2170     1  0.0000000  0.6508444  3
   2151   2149   2150   2161     1  0.0000000  0.6508444  3
   2151   2149   2150   2162     1  0.0000000  0.6508444  3
   2151   2149   2156   2169     1  0.0000000  0.6508444  3
   2151   2149   2156   2170     1  0.0000000  0.6508444  3
   2152   2150   2149   2174     1  0.0000000  0.6508444  3
   2152   2153   6375   6376     1  180.0000771  10.4600000  2
   2153   2152   2150   2161     1  0.0000000  0.6508444  3
   2153   2152   2150   2162     1  0.0000000  0.6508444  3
   2153   6375   6377   6378     1  0.0000000  0.0000000  2
   2153   6375   6377   6380     1  0.0000000  0.0000000  2
   2154   2151   2149   2174     1  0.0000000  0.6508444  3
   2154   2155   6449   6450     1  180.0000771  10.4600000  2
   2155   2154   2151   2163     1  0.0000000  0.6508444  3
   2155   2154   2151   2164     1  0.0000000  0.6508444  3
   2155   6449   6451   6452     1  0.0000000  0.0000000  2
   2155   6449   6451   6454     1  0.0000000  0.0000000  2
   2156   2149   2150   2161     1  0.0000000  0.6508444  3
   2156   2149   2150   2162     1  0.0000000  0.6508444  3
   2156   2149   2151   2163     1  0.0000000  0.6508444  3
   2156   2149   2151   2164     1  0.0000000  0.6508444  3
   2156   2157   2158   2173     1  0.0000000  0.0000000  2
   2157   2156   2149   2174     1  0.0000000  0.6508444  3
   2158   2157   2156   2169     1  0.0000000  0.6508444  3
   2158   2157   2156   2170     1  0.0000000  0.6508444  3
   2159   2153   2152   2165     1  0.0000000  3.3472000  1
   2159   2153   2152   2165     1  0.0000000  0.0000000  2
   2159   2153   2152   2165     1  180.0000771  0.3347200  3
   2159   2153   2152   2166     1  0.0000000  3.3472000  1
   2159   2153   2152   2166     1  0.0000000  0.0000000  2
   2159   2153   2152   2166     1  180.0000771  0.3347200  3
   2159   2153   6375   6376     1  0.0000000  8.3680000  1
   2159   2153   6375   6376     1  180.0000771  10.4600000  2
   2160   2155   2154   2167     1  0.0000000  3.3472000  1
   2160   2155   2154   2167     1  0.0000000  0.0000000  2
   2160   2155   2154   2167     1  180.0000771  0.3347200  3
   2160   2155   2154   2168     1  0.0000000  3.3472000  1
   2160   2155   2154   2168     1  0.0000000  0.0000000  2
   2160   2155   2154   2168     1  180.0000771  0.3347200  3
   2160   2155   6449   6450     1  0.0000000  8.3680000  1
   2160   2155   6449   6450     1  180.0000771  10.4600000  2
   2161   2150   2149   2174     1  0.0000000  0.6508444  3
   2161   2150   2152   2165     1  0.0000000  0.6508444  3
   2161   2150   2152   2166     1  0.0000000  0.6508444  3
   2162   2150   2149   2174     1  0.0000000  0.6508444  3
   2162   2150   2152   2165     1  0.0000000  0.6508444  3
   2162   2150   2152   2166     1  0.0000000  0.6508444  3
   2163   2151   2149   2174     1  0.0000000  0.6508444  3
   2163   2151   2154   2167     1  0.0000000  0.6508444  3
   2163   2151   2154   2168     1  0.0000000  0.6508444  3
   2164   2151   2149   2174     1  0.0000000  0.6508444  3
   2164   2151   2154   2167     1  0.0000000  0.6508444  3
   2164   2151   2154   2168     1  0.0000000  0.6508444  3
   2165   2152   2153   6375     1  180.0000771  0.0000000  2
   2166   2152   2153   6375     1  180.0000771  0.0000000  2
   2167   2154   2155   6449     1  180.0000771  0.0000000  2
   2168   2154   2155   6449     1  180.0000771  0.0000000  2
   2169   2156   2149   2174     1  0.0000000  0.6508444  3
   2169   2156   2157   2171     1  0.0000000  0.6508444  3
   2169   2156   2157   2172     1  0.0000000  0.6508444  3
   2170   2156   2149   2174     1  0.0000000  0.6508444  3
   2170   2156   2157   2171     1  0.0000000  0.6508444  3
   2170   2156   2157   2172     1  0.0000000  0.6508444  3
   2171   2157   2158   2173     1  0.0000000  0.0000000  2
   2172   2157   2158   2173     1  0.0000000  0.0000000  2
   2175   2176   2178   2191     1  0.0000000  0.6508444  3
   2175   2176   2178   2192     1  0.0000000  0.6508444  3
   2175   2177   2180   2193     1  0.0000000  0.6508444  3
   2175   2177   2180   2194     1  0.0000000  0.6508444  3
   2175   2182   2183   2197     1  0.0000000  0.6508444  3
   2175   2182   2183   2198     1  0.0000000  0.6508444  3
   2176   2175   2177   2189     1  0.0000000  0.6508444  3
   2176   2175   2177   2190     1  0.0000000  0.6508444  3
   2176   2175   2182   2195     1  0.0000000  0.6508444  3
   2176   2175   2182   2196     1  0.0000000  0.6508444  3
   2177   2175   2176   2187     1  0.0000000  0.6508444  3
   2177   2175   2176   2188     1  0.0000000  0.6508444  3
   2177   2175   2182   2195     1  0.0000000  0.6508444  3
   2177   2175   2182   2196     1  0.0000000  0.6508444  3
   2178   2176   2175   2200     1  0.0000000  0.6508444  3
   2178   2179   6523   6524     1  180.0000771  10.4600000  2
   2179   2178   2176   2187     1  0.0000000  0.6508444  3
   2179   2178   2176   2188     1  0.0000000  0.6508444  3
   2179   6523   6525   6526     1  0.0000000  0.0000000  2
   2179   6523   6525   6528     1  0.0000000  0.0000000  2
   2180   2177   2175   2200     1  0.0000000  0.6508444  3
   2180   2181   6597   6598     1  180.0000771  10.4600000  2
   2181   2180   2177   2189     1  0.0000000  0.6508444  3
   2181   2180   2177   2190     1  0.0000000  0.6508444  3
   2181   6597   6599   6600     1  0.0000000  0.0000000  2
   2181   6597   6599   6602     1  0.0000000  0.0000000  2
   2182   2175   2176   2187     1  0.0000000  0.6508444  3
   2182   2175   2176   2188     1  0.0000000  0.6508444  3
   2182   2175   2177   2189     1  0.0000000  0.6508444  3
   2182   2175   2177   2190     1  0.0000000  0.6508444  3
   2182   2183   2184   2199     1  0.0000000  0.0000000  2
   2183   2182   2175   2200     1  0.0000000  0.6508444  3
   2184   2183   2182   2195     1  0.0000000  0.6508444  3
   2184   2183   2182   2196     1  0.0000000  0.6508444  3
   2185   2179   2178   2191     1  0.0000000  3.3472000  1
   2185   2179   2178   2191     1  0.0000000  0.0000000  2
   2185   2179   2178   2191     1  180.0000771  0.3347200  3
   2185   2179   2178   2192     1  0.0000000  3.3472000  1
   2185   2179   2178   2192     1  0.0000000  0.0000000  2
   2185   2179   2178   2192     1  180.0000771  0.3347200  3
   2185   2179   6523   6524     1  0.0000000  8.3680000  1
   2185   2179   6523   6524     1  180.0000771  10.4600000  2
   2186   2181   2180   2193     1  0.0000000  3.3472000  1
   2186   2181   2180   2193     1  0.0000000  0.0000000  2
   2186   2181   2180   2193     1  180.0000771  0.3347200  3
   2186   2181   2180   2194     1  0.0000000  3.3472000  1
   2186   2181   2180   2194     1  0.0000000  0.0000000  2
   2186   2181   2180   2194     1  180.0000771  0.3347200  3
   2186   2181   6597   6598     1  0.0000000  8.3680000  1
   2186   2181   6597   6598     1  180.0000771  10.4600000  2
   2187   2176   2175   2200     1  0.0000000  0.6508444  3
   2187   2176   2178   2191     1  0.0000000  0.6508444  3
   2187   2176   2178   2192     1  0.0000000  0.6508444  3
   2188   2176   2175   2200     1  0.0000000  0.6508444  3
   2188   2176   2178   2191     1  0.0000000  0.6508444  3
   2188   2176   2178   2192     1  0.0000000  0.6508444  3
   2189   2177   2175   2200     1  0.0000000  0.6508444  3
   2189   2177   2180   2193     1  0.0000000  0.6508444  3
   2189   2177   2180   2194     1  0.0000000  0.6508444  3
   2190   2177   2175   2200     1  0.0000000  0.6508444  3
   2190   2177   2180   2193     1  0.0000000  0.6508444  3
   2190   2177   2180   2194     1  0.0000000  0.6508444  3
   2191   2178   2179   6523     1  180.0000771  0.0000000  2
   2192   2178   2179   6523     1  180.0000771  0.0000000  2
   2193   2180   2181   6597     1  180.0000771  0.0000000  2
   2194   2180   2181   6597     1  180.0000771  0.0000000  2
   2195   2182   2175   2200     1  0.0000000  0.6508444  3
   2195   2182   2183   2197     1  0.0000000  0.6508444  3
   2195   2182   2183   2198     1  0.0000000  0.6508444  3
   2196   2182   2175   2200     1  0.0000000  0.6508444  3
   2196   2182   2183   2197     1  0.0000000  0.6508444  3
   2196   2182   2183   2198     1  0.0000000  0.6508444  3
   2197   2183   2184   2199     1  0.0000000  0.0000000  2
   2198   2183   2184   2199     1  0.0000000  0.0000000  2
   2201   2202   2204   2217     1  0.0000000  0.6508444  3
   2201   2202   2204   2218     1  0.0000000  0.6508444  3
   2201   2203   2206   2219     1  0.0000000  0.6508444  3
   2201   2203   2206   2220     1  0.0000000  0.6508444  3
   2201   2208   2209   2223     1  0.0000000  0.6508444  3
   2201   2208   2209   2224     1  0.0000000  0.6508444  3
   2202   2201   2203   2215     1  0.0000000  0.6508444  3
   2202   2201   2203   2216     1  0.0000000  0.6508444  3
   2202   2201   2208   2221     1  0.0000000  0.6508444  3
   2202   2201   2208   2222     1  0.0000000  0.6508444  3
   2203   2201   2202   2213     1  0.0000000  0.6508444  3
   2203   2201   2202   2214     1  0.0000000  0.6508444  3
   2203   2201   2208   2221     1  0.0000000  0.6508444  3
   2203   2201   2208   2222     1  0.0000000  0.6508444  3
   2204   2202   2201   2226     1  0.0000000  0.6508444  3
   2204   2205   6671   6672     1  180.0000771  10.4600000  2
   2205   2204   2202   2213     1  0.0000000  0.6508444  3
   2205   2204   2202   2214     1  0.0000000  0.6508444  3
   2205   6671   6673   6674     1  0.0000000  0.0000000  2
   2205   6671   6673   6676     1  0.0000000  0.0000000  2
   2206   2203   2201   2226     1  0.0000000  0.6508444  3
   2206   2207   6745   6746     1  180.0000771  10.4600000  2
   2207   2206   2203   2215     1  0.0000000  0.6508444  3
   2207   2206   2203   2216     1  0.0000000  0.6508444  3
   2207   6745   6747   6748     1  0.0000000  0.0000000  2
   2207   6745   6747   6750     1  0.0000000  0.0000000  2
   2208   2201   2202   2213     1  0.0000000  0.6508444  3
   2208   2201   2202   2214     1  0.0000000  0.6508444  3
   2208   2201   2203   2215     1  0.0000000  0.6508444  3
   2208   2201   2203   2216     1  0.0000000  0.6508444  3
   2208   2209   2210   2225     1  0.0000000  0.0000000  2
   2209   2208   2201   2226     1  0.0000000  0.6508444  3
   2210   2209   2208   2221     1  0.0000000  0.6508444  3
   2210   2209   2208   2222     1  0.0000000  0.6508444  3
   2211   2205   2204   2217     1  0.0000000  3.3472000  1
   2211   2205   2204   2217     1  0.0000000  0.0000000  2
   2211   2205   2204   2217     1  180.0000771  0.3347200  3
   2211   2205   2204   2218     1  0.0000000  3.3472000  1
   2211   2205   2204   2218     1  0.0000000  0.0000000  2
   2211   2205   2204   2218     1  180.0000771  0.3347200  3
   2211   2205   6671   6672     1  0.0000000  8.3680000  1
   2211   2205   6671   6672     1  180.0000771  10.4600000  2
   2212   2207   2206   2219     1  0.0000000  3.3472000  1
   2212   2207   2206   2219     1  0.0000000  0.0000000  2
   2212   2207   2206   2219     1  180.0000771  0.3347200  3
   2212   2207   2206   2220     1  0.0000000  3.3472000  1
   2212   2207   2206   2220     1  0.0000000  0.0000000  2
   2212   2207   2206   2220     1  180.0000771  0.3347200  3
   2212   2207   6745   6746     1  0.0000000  8.3680000  1
   2212   2207   6745   6746     1  180.0000771  10.4600000  2
   2213   2202   2201   2226     1  0.0000000  0.6508444  3
   2213   2202   2204   2217     1  0.0000000  0.6508444  3
   2213   2202   2204   2218     1  0.0000000  0.6508444  3
   2214   2202   2201   2226     1  0.0000000  0.6508444  3
   2214   2202   2204   2217     1  0.0000000  0.6508444  3
   2214   2202   2204   2218     1  0.0000000  0.6508444  3
   2215   2203   2201   2226     1  0.0000000  0.6508444  3
   2215   2203   2206   2219     1  0.0000000  0.6508444  3
   2215   2203   2206   2220     1  0.0000000  0.6508444  3
   2216   2203   2201   2226     1  0.0000000  0.6508444  3
   2216   2203   2206   2219     1  0.0000000  0.6508444  3
   2216   2203   2206   2220     1  0.0000000  0.6508444  3
   2217   2204   2205   6671     1  180.0000771  0.0000000  2
   2218   2204   2205   6671     1  180.0000771  0.0000000  2
   2219   2206   2207   6745     1  180.0000771  0.0000000  2
   2220   2206   2207   6745     1  180.0000771  0.0000000  2
   2221   2208   2201   2226     1  0.0000000  0.6508444  3
   2221   2208   2209   2223     1  0.0000000  0.6508444  3
   2221   2208   2209   2224     1  0.0000000  0.6508444  3
   2222   2208   2201   2226     1  0.0000000  0.6508444  3
   2222   2208   2209   2223     1  0.0000000  0.6508444  3
   2222   2208   2209   2224     1  0.0000000  0.6508444  3
   2223   2209   2210   2225     1  0.0000000  0.0000000  2
   2224   2209   2210   2225     1  0.0000000  0.0000000  2
   2227   2228   2230   2243     1  0.0000000  0.6508444  3
   2227   2228   2230   2244     1  0.0000000  0.6508444  3
   2227   2229   2232   2245     1  0.0000000  0.6508444  3
   2227   2229   2232   2246     1  0.0000000  0.6508444  3
   2227   2234   2235   2249     1  0.0000000  0.6508444  3
   2227   2234   2235   2250     1  0.0000000  0.6508444  3
   2228   2227   2229   2241     1  0.0000000  0.6508444  3
   2228   2227   2229   2242     1  0.0000000  0.6508444  3
   2228   2227   2234   2247     1  0.0000000  0.6508444  3
   2228   2227   2234   2248     1  0.0000000  0.6508444  3
   2229   2227   2228   2239     1  0.0000000  0.6508444  3
   2229   2227   2228   2240     1  0.0000000  0.6508444  3
   2229   2227   2234   2247     1  0.0000000  0.6508444  3
   2229   2227   2234   2248     1  0.0000000  0.6508444  3
   2230   2228   2227   2252     1  0.0000000  0.6508444  3
   2230   2231   6819   6820     1  180.0000771  10.4600000  2
   2231   2230   2228   2239     1  0.0000000  0.6508444  3
   2231   2230   2228   2240     1  0.0000000  0.6508444  3
   2231   6819   6821   6822     1  0.0000000  0.0000000  2
   2231   6819   6821   6824     1  0.0000000  0.0000000  2
   2232   2229   2227   2252     1  0.0000000  0.6508444  3
   2232   2233   6893   6894     1  180.0000771  10.4600000  2
   2233   2232   2229   2241     1  0.0000000  0.6508444  3
   2233   2232   2229   2242     1  0.0000000  0.6508444  3
   2233   6893   6895   6896     1  0.0000000  0.0000000  2
   2233   6893   6895   6898     1  0.0000000  0.0000000  2
   2234   2227   2228   2239     1  0.0000000  0.6508444  3
   2234   2227   2228   2240     1  0.0000000  0.6508444  3
   2234   2227   2229   2241     1  0.0000000  0.6508444  3
   2234   2227   2229   2242     1  0.0000000  0.6508444  3
   2234   2235   2236   2251     1  0.0000000  0.0000000  2
   2235   2234   2227   2252     1  0.0000000  0.6508444  3
   2236   2235   2234   2247     1  0.0000000  0.6508444  3
   2236   2235   2234   2248     1  0.0000000  0.6508444  3
   2237   2231   2230   2243     1  0.0000000  3.3472000  1
   2237   2231   2230   2243     1  0.0000000  0.0000000  2
   2237   2231   2230   2243     1  180.0000771  0.3347200  3
   2237   2231   2230   2244     1  0.0000000  3.3472000  1
   2237   2231   2230   2244     1  0.0000000  0.0000000  2
   2237   2231   2230   2244     1  180.0000771  0.3347200  3
   2237   2231   6819   6820     1  0.0000000  8.3680000  1
   2237   2231   6819   6820     1  180.0000771  10.4600000  2
   2238   2233   2232   2245     1  0.0000000  3.3472000  1
   2238   2233   2232   2245     1  0.0000000  0.0000000  2
   2238   2233   2232   2245     1  180.0000771  0.3347200  3
   2238   2233   2232   2246     1  0.0000000  3.3472000  1
   2238   2233   2232   2246     1  0.0000000  0.0000000  2
   2238   2233   2232   2246     1  180.0000771  0.3347200  3
   2238   2233   6893   6894     1  0.0000000  8.3680000  1
   2238   2233   6893   6894     1  180.0000771  10.4600000  2
   2239   2228   2227   2252     1  0.0000000  0.6508444  3
   2239   2228   2230   2243     1  0.0000000  0.6508444  3
   2239   2228   2230   2244     1  0.0000000  0.6508444  3
   2240   2228   2227   2252     1  0.0000000  0.6508444  3
   2240   2228   2230   2243     1  0.0000000  0.6508444  3
   2240   2228   2230   2244     1  0.0000000  0.6508444  3
   2241   2229   2227   2252     1  0.0000000  0.6508444  3
   2241   2229   2232   2245     1  0.0000000  0.6508444  3
   2241   2229   2232   2246     1  0.0000000  0.6508444  3
   2242   2229   2227   2252     1  0.0000000  0.6508444  3
   2242   2229   2232   2245     1  0.0000000  0.6508444  3
   2242   2229   2232   2246     1  0.0000000  0.6508444  3
   2243   2230   2231   6819     1  180.0000771  0.0000000  2
   2244   2230   2231   6819     1  180.0000771  0.0000000  2
   2245   2232   2233   6893     1  180.0000771  0.0000000  2
   2246   2232   2233   6893     1  180.0000771  0.0000000  2
   2247   2234   2227   2252     1  0.0000000  0.6508444  3
   2247   2234   2235   2249     1  0.0000000  0.6508444  3
   2247   2234   2235   2250     1  0.0000000  0.6508444  3
   2248   2234   2227   2252     1  0.0000000  0.6508444  3
   2248   2234   2235   2249     1  0.0000000  0.6508444  3
   2248   2234   2235   2250     1  0.0000000  0.6508444  3
   2249   2235   2236   2251     1  0.0000000  0.0000000  2
   2250   2235   2236   2251     1  0.0000000  0.0000000  2
   2253   2254   2256   2269     1  0.0000000  0.6508444  3
   2253   2254   2256   2270     1  0.0000000  0.6508444  3
   2253   2255   2258   2271     1  0.0000000  0.6508444  3
   2253   2255   2258   2272     1  0.0000000  0.6508444  3
   2253   2260   2261   2275     1  0.0000000  0.6508444  3
   2253   2260   2261   2276     1  0.0000000  0.6508444  3
   2254   2253   2255   2267     1  0.0000000  0.6508444  3
   2254   2253   2255   2268     1  0.0000000  0.6508444  3
   2254   2253   2260   2273     1  0.0000000  0.6508444  3
   2254   2253   2260   2274     1  0.0000000  0.6508444  3
   2255   2253   2254   2265     1  0.0000000  0.6508444  3
   2255   2253   2254   2266     1  0.0000000  0.6508444  3
   2255   2253   2260   2273     1  0.0000000  0.6508444  3
   2255   2253   2260   2274     1  0.0000000  0.6508444  3
   2256   2254   2253   2278     1  0.0000000  0.6508444  3
   2256   2257   6967   6968     1  180.0000771  10.4600000  2
   2257   2256   2254   2265     1  0.0000000  0.6508444  3
   2257   2256   2254   2266     1  0.0000000  0.6508444  3
   2257   6967   6969   6970     1  0.0000000  0.0000000  2
   2257   6967   6969   6972     1  0.0000000  0.0000000  2
   2258   2255   2253   2278     1  0.0000000  0.6508444  3
   2258   2259   7041   7042     1  180.0000771  10.4600000  2
   2259   2258   2255   2267     1  0.0000000  0.6508444  3
   2259   2258   2255   2268     1  0.0000000  0.6508444  3
   2259   7041   7043   7044     1  0.0000000  0.0000000  2
   2259   7041   7043   7046     1  0.0000000  0.0000000  2
   2260   2253   2254   2265     1  0.0000000  0.6508444  3
   2260   2253   2254   2266     1  0.0000000  0.6508444  3
   2260   2253   2255   2267     1  0.0000000  0.6508444  3
   2260   2253   2255   2268     1  0.0000000  0.6508444  3
   2260   2261   2262   2277     1  0.0000000  0.0000000  2
   2261   2260   2253   2278     1  0.0000000  0.6508444  3
   2262   2261   2260   2273     1  0.0000000  0.6508444  3
   2262   2261   2260   2274     1  0.0000000  0.6508444  3
   2263   2257   2256   2269     1  0.0000000  3.3472000  1
   2263   2257   2256   2269     1  0.0000000  0.0000000  2
   2263   2257   2256   2269     1  180.0000771  0.3347200  3
   2263   2257   2256   2270     1  0.0000000  3.3472000  1
   2263   2257   2256   2270     1  0.0000000  0.0000000  2
   2263   2257   2256   2270     1  180.0000771  0.3347200  3
   2263   2257   6967   6968     1  0.0000000  8.3680000  1
   2263   2257   6967   6968     1  180.0000771  10.4600000  2
   2264   2259   2258   2271     1  0.0000000  3.3472000  1
   2264   2259   2258   2271     1  0.0000000  0.0000000  2
   2264   2259   2258   2271     1  180.0000771  0.3347200  3
   2264   2259   2258   2272     1  0.0000000  3.3472000  1
   2264   2259   2258   2272     1  0.0000000  0.0000000  2
   2264   2259   2258   2272     1  180.0000771  0.3347200  3
   2264   2259   7041   7042     1  0.0000000  8.3680000  1
   2264   2259   7041   7042     1  180.0000771  10.4600000  2
   2265   2254   2253   2278     1  0.0000000  0.6508444  3
   2265   2254   2256   2269     1  0.0000000  0.6508444  3
   2265   2254   2256   2270     1  0.0000000  0.6508444  3
   2266   2254   2253   2278     1  0.0000000  0.6508444  3
   2266   2254   2256   2269     1  0.0000000  0.6508444  3
   2266   2254   2256   2270     1  0.0000000  0.6508444  3
   2267   2255   2253   2278     1  0.0000000  0.6508444  3
   2267   2255   2258   2271     1  0.0000000  0.6508444  3
   2267   2255   2258   2272     1  0.0000000  0.6508444  3
   2268   2255   2253   2278     1  0.0000000  0.6508444  3
   2268   2255   2258   2271     1  0.0000000  0.6508444  3
   2268   2255   2258   2272     1  0.0000000  0.6508444  3
   2269   2256   2257   6967     1  180.0000771  0.0000000  2
   2270   2256   2257   6967     1  180.0000771  0.0000000  2
   2271   2258   2259   7041     1  180.0000771  0.0000000  2
   2272   2258   2259   7041     1  180.0000771  0.0000000  2
   2273   2260   2253   2278     1  0.0000000  0.6508444  3
   2273   2260   2261   2275     1  0.0000000  0.6508444  3
   2273   2260   2261   2276     1  0.0000000  0.6508444  3
   2274   2260   2253   2278     1  0.0000000  0.6508444  3
   2274   2260   2261   2275     1  0.0000000  0.6508444  3
   2274   2260   2261   2276     1  0.0000000  0.6508444  3
   2275   2261   2262   2277     1  0.0000000  0.0000000  2
   2276   2261   2262   2277     1  0.0000000  0.0000000  2
   2279   2280   2282   2295     1  0.0000000  0.6508444  3
   2279   2280   2282   2296     1  0.0000000  0.6508444  3
   2279   2281   2284   2297     1  0.0000000  0.6508444  3
   2279   2281   2284   2298     1  0.0000000  0.6508444  3
   2279   2286   2287   2301     1  0.0000000  0.6508444  3
   2279   2286   2287   2302     1  0.0000000  0.6508444  3
   2280   2279   2281   2293     1  0.0000000  0.6508444  3
   2280   2279   2281   2294     1  0.0000000  0.6508444  3
   2280   2279   2286   2299     1  0.0000000  0.6508444  3
   2280   2279   2286   2300     1  0.0000000  0.6508444  3
   2281   2279   2280   2291     1  0.0000000  0.6508444  3
   2281   2279   2280   2292     1  0.0000000  0.6508444  3
   2281   2279   2286   2299     1  0.0000000  0.6508444  3
   2281   2279   2286   2300     1  0.0000000  0.6508444  3
   2282   2280   2279   2304     1  0.0000000  0.6508444  3
   2282   2283   7115   7116     1  180.0000771  10.4600000  2
   2283   2282   2280   2291     1  0.0000000  0.6508444  3
   2283   2282   2280   2292     1  0.0000000  0.6508444  3
   2283   7115   7117   7118     1  0.0000000  0.0000000  2
   2283   7115   7117   7120     1  0.0000000  0.0000000  2
   2284   2281   2279   2304     1  0.0000000  0.6508444  3
   2284   2285   7189   7190     1  180.0000771  10.4600000  2
   2285   2284   2281   2293     1  0.0000000  0.6508444  3
   2285   2284   2281   2294     1  0.0000000  0.6508444  3
   2285   7189   7191   7192     1  0.0000000  0.0000000  2
   2285   7189   7191   7194     1  0.0000000  0.0000000  2
   2286   2279   2280   2291     1  0.0000000  0.6508444  3
   2286   2279   2280   2292     1  0.0000000  0.6508444  3
   2286   2279   2281   2293     1  0.0000000  0.6508444  3
   2286   2279   2281   2294     1  0.0000000  0.6508444  3
   2286   2287   2288   2303     1  0.0000000  0.0000000  2
   2287   2286   2279   2304     1  0.0000000  0.6508444  3
   2288   2287   2286   2299     1  0.0000000  0.6508444  3
   2288   2287   2286   2300     1  0.0000000  0.6508444  3
   2289   2283   2282   2295     1  0.0000000  3.3472000  1
   2289   2283   2282   2295     1  0.0000000  0.0000000  2
   2289   2283   2282   2295     1  180.0000771  0.3347200  3
   2289   2283   2282   2296     1  0.0000000  3.3472000  1
   2289   2283   2282   2296     1  0.0000000  0.0000000  2
   2289   2283   2282   2296     1  180.0000771  0.3347200  3
   2289   2283   7115   7116     1  0.0000000  8.3680000  1
   2289   2283   7115   7116     1  180.0000771  10.4600000  2
   2290   2285   2284   2297     1  0.0000000  3.3472000  1
   2290   2285   2284   2297     1  0.0000000  0.0000000  2
   2290   2285   2284   2297     1  180.0000771  0.3347200  3
   2290   2285   2284   2298     1  0.0000000  3.3472000  1
   2290   2285   2284   2298     1  0.0000000  0.0000000  2
   2290   2285   2284   2298     1  180.0000771  0.3347200  3
   2290   2285   7189   7190     1  0.0000000  8.3680000  1
   2290   2285   7189   7190     1  180.0000771  10.4600000  2
   2291   2280   2279   2304     1  0.0000000  0.6508444  3
   2291   2280   2282   2295     1  0.0000000  0.6508444  3
   2291   2280   2282   2296     1  0.0000000  0.6508444  3
   2292   2280   2279   2304     1  0.0000000  0.6508444  3
   2292   2280   2282   2295     1  0.0000000  0.6508444  3
   2292   2280   2282   2296     1  0.0000000  0.6508444  3
   2293   2281   2279   2304     1  0.0000000  0.6508444  3
   2293   2281   2284   2297     1  0.0000000  0.6508444  3
   2293   2281   2284   2298     1  0.0000000  0.6508444  3
   2294   2281   2279   2304     1  0.0000000  0.6508444  3
   2294   2281   2284   2297     1  0.0000000  0.6508444  3
   2294   2281   2284   2298     1  0.0000000  0.6508444  3
   2295   2282   2283   7115     1  180.0000771  0.0000000  2
   2296   2282   2283   7115     1  180.0000771  0.0000000  2
   2297   2284   2285   7189     1  180.0000771  0.0000000  2
   2298   2284   2285   7189     1  180.0000771  0.0000000  2
   2299   2286   2279   2304     1  0.0000000  0.6508444  3
   2299   2286   2287   2301     1  0.0000000  0.6508444  3
   2299   2286   2287   2302     1  0.0000000  0.6508444  3
   2300   2286   2279   2304     1  0.0000000  0.6508444  3
   2300   2286   2287   2301     1  0.0000000  0.6508444  3
   2300   2286   2287   2302     1  0.0000000  0.6508444  3
   2301   2287   2288   2303     1  0.0000000  0.0000000  2
   2302   2287   2288   2303     1  0.0000000  0.0000000  2
   2305   2306   2308   2321     1  0.0000000  0.6508444  3
   2305   2306   2308   2322     1  0.0000000  0.6508444  3
   2305   2307   2310   2323     1  0.0000000  0.6508444  3
   2305   2307   2310   2324     1  0.0000000  0.6508444  3
   2305   2312   2313   2327     1  0.0000000  0.6508444  3
   2305   2312   2313   2328     1  0.0000000  0.6508444  3
   2306   2305   2307   2319     1  0.0000000  0.6508444  3
   2306   2305   2307   2320     1  0.0000000  0.6508444  3
   2306   2305   2312   2325     1  0.0000000  0.6508444  3
   2306   2305   2312   2326     1  0.0000000  0.6508444  3
   2307   2305   2306   2317     1  0.0000000  0.6508444  3
   2307   2305   2306   2318     1  0.0000000  0.6508444  3
   2307   2305   2312   2325     1  0.0000000  0.6508444  3
   2307   2305   2312   2326     1  0.0000000  0.6508444  3
   2308   2306   2305   2330     1  0.0000000  0.6508444  3
   2308   2309   7263   7264     1  180.0000771  10.4600000  2
   2309   2308   2306   2317     1  0.0000000  0.6508444  3
   2309   2308   2306   2318     1  0.0000000  0.6508444  3
   2309   7263   7265   7266     1  0.0000000  0.0000000  2
   2309   7263   7265   7268     1  0.0000000  0.0000000  2
   2310   2307   2305   2330     1  0.0000000  0.6508444  3
   2310   2311   7337   7338     1  180.0000771  10.4600000  2
   2311   2310   2307   2319     1  0.0000000  0.6508444  3
   2311   2310   2307   2320     1  0.0000000  0.6508444  3
   2311   7337   7339   7340     1  0.0000000  0.0000000  2
   2311   7337   7339   7342     1  0.0000000  0.0000000  2
   2312   2305   2306   2317     1  0.0000000  0.6508444  3
   2312   2305   2306   2318     1  0.0000000  0.6508444  3
   2312   2305   2307   2319     1  0.0000000  0.6508444  3
   2312   2305   2307   2320     1  0.0000000  0.6508444  3
   2312   2313   2314   2329     1  0.0000000  0.0000000  2
   2313   2312   2305   2330     1  0.0000000  0.6508444  3
   2314   2313   2312   2325     1  0.0000000  0.6508444  3
   2314   2313   2312   2326     1  0.0000000  0.6508444  3
   2315   2309   2308   2321     1  0.0000000  3.3472000  1
   2315   2309   2308   2321     1  0.0000000  0.0000000  2
   2315   2309   2308   2321     1  180.0000771  0.3347200  3
   2315   2309   2308   2322     1  0.0000000  3.3472000  1
   2315   2309   2308   2322     1  0.0000000  0.0000000  2
   2315   2309   2308   2322     1  180.0000771  0.3347200  3
   2315   2309   7263   7264     1  0.0000000  8.3680000  1
   2315   2309   7263   7264     1  180.0000771  10.4600000  2
   2316   2311   2310   2323     1  0.0000000  3.3472000  1
   2316   2311   2310   2323     1  0.0000000  0.0000000  2
   2316   2311   2310   2323     1  180.0000771  0.3347200  3
   2316   2311   2310   2324     1  0.0000000  3.3472000  1
   2316   2311   2310   2324     1  0.0000000  0.0000000  2
   2316   2311   2310   2324     1  180.0000771  0.3347200  3
   2316   2311   7337   7338     1  0.0000000  8.3680000  1
   2316   2311   7337   7338     1  180.0000771  10.4600000  2
   2317   2306   2305   2330     1  0.0000000  0.6508444  3
   2317   2306   2308   2321     1  0.0000000  0.6508444  3
   2317   2306   2308   2322     1  0.0000000  0.6508444  3
   2318   2306   2305   2330     1  0.0000000  0.6508444  3
   2318   2306   2308   2321     1  0.0000000  0.6508444  3
   2318   2306   2308   2322     1  0.0000000  0.6508444  3
   2319   2307   2305   2330     1  0.0000000  0.6508444  3
   2319   2307   2310   2323     1  0.0000000  0.6508444  3
   2319   2307   2310   2324     1  0.0000000  0.6508444  3
   2320   2307   2305   2330     1  0.0000000  0.6508444  3
   2320   2307   2310   2323     1  0.0000000  0.6508444  3
   2320   2307   2310   2324     1  0.0000000  0.6508444  3
   2321   2308   2309   7263     1  180.0000771  0.0000000  2
   2322   2308   2309   7263     1  180.0000771  0.0000000  2
   2323   2310   2311   7337     1  180.0000771  0.0000000  2
   2324   2310   2311   7337     1  180.0000771  0.0000000  2
   2325   2312   2305   2330     1  0.0000000  0.6508444  3
   2325   2312   2313   2327     1  0.0000000  0.6508444  3
   2325   2312   2313   2328     1  0.0000000  0.6508444  3
   2326   2312   2305   2330     1  0.0000000  0.6508444  3
   2326   2312   2313   2327     1  0.0000000  0.6508444  3
   2326   2312   2313   2328     1  0.0000000  0.6508444  3
   2327   2313   2314   2329     1  0.0000000  0.0000000  2
   2328   2313   2314   2329     1  0.0000000  0.0000000  2
   2331   2332   2334   2347     1  0.0000000  0.6508444  3
   2331   2332   2334   2348     1  0.0000000  0.6508444  3
   2331   2333   2336   2349     1  0.0000000  0.6508444  3
   2331   2333   2336   2350     1  0.0000000  0.6508444  3
   2331   2338   2339   2353     1  0.0000000  0.6508444  3
   2331   2338   2339   2354     1  0.0000000  0.6508444  3
   2332   2331   2333   2345     1  0.0000000  0.6508444  3
   2332   2331   2333   2346     1  0.0000000  0.6508444  3
   2332   2331   2338   2351     1  0.0000000  0.6508444  3
   2332   2331   2338   2352     1  0.0000000  0.6508444  3
   2333   2331   2332   2343     1  0.0000000  0.6508444  3
   2333   2331   2332   2344     1  0.0000000  0.6508444  3
   2333   2331   2338   2351     1  0.0000000  0.6508444  3
   2333   2331   2338   2352     1  0.0000000  0.6508444  3
   2334   2332   2331   2356     1  0.0000000  0.6508444  3
   2334   2335   7411   7412     1  180.0000771  10.4600000  2
   2335   2334   2332   2343     1  0.0000000  0.6508444  3
   2335   2334   2332   2344     1  0.0000000  0.6508444  3
   2335   7411   7413   7414     1  0.0000000  0.0000000  2
   2335   7411   7413   7416     1  0.0000000  0.0000000  2
   2336   2333   2331   2356     1  0.0000000  0.6508444  3
   2336   2337   7485   7486     1  180.0000771  10.4600000  2
   2337   2336   2333   2345     1  0.0000000  0.6508444  3
   2337   2336   2333   2346     1  0.0000000  0.6508444  3
   2337   7485   7487   7488     1  0.0000000  0.0000000  2
   2337   7485   7487   7490     1  0.0000000  0.0000000  2
   2338   2331   2332   2343     1  0.0000000  0.6508444  3
   2338   2331   2332   2344     1  0.0000000  0.6508444  3
   2338   2331   2333   2345     1  0.0000000  0.6508444  3
   2338   2331   2333   2346     1  0.0000000  0.6508444  3
   2338   2339   2340   2355     1  0.0000000  0.0000000  2
   2339   2338   2331   2356     1  0.0000000  0.6508444  3
   2340   2339   2338   2351     1  0.0000000  0.6508444  3
   2340   2339   2338   2352     1  0.0000000  0.6508444  3
   2341   2335   2334   2347     1  0.0000000  3.3472000  1
   2341   2335   2334   2347     1  0.0000000  0.0000000  2
   2341   2335   2334   2347     1  180.0000771  0.3347200  3
   2341   2335   2334   2348     1  0.0000000  3.3472000  1
   2341   2335   2334   2348     1  0.0000000  0.0000000  2
   2341   2335   2334   2348     1  180.0000771  0.3347200  3
   2341   2335   7411   7412     1  0.0000000  8.3680000  1
   2341   2335   7411   7412     1  180.0000771  10.4600000  2
   2342   2337   2336   2349     1  0.0000000  3.3472000  1
   2342   2337   2336   2349     1  0.0000000  0.0000000  2
   2342   2337   2336   2349     1  180.0000771  0.3347200  3
   2342   2337   2336   2350     1  0.0000000  3.3472000  1
   2342   2337   2336   2350     1  0.0000000  0.0000000  2
   2342   2337   2336   2350     1  180.0000771  0.3347200  3
   2342   2337   7485   7486     1  0.0000000  8.3680000  1
   2342   2337   7485   7486     1  180.0000771  10.4600000  2
   2343   2332   2331   2356     1  0.0000000  0.6508444  3
   2343   2332   2334   2347     1  0.0000000  0.6508444  3
   2343   2332   2334   2348     1  0.0000000  0.6508444  3
   2344   2332   2331   2356     1  0.0000000  0.6508444  3
   2344   2332   2334   2347     1  0.0000000  0.6508444  3
   2344   2332   2334   2348     1  0.0000000  0.6508444  3
   2345   2333   2331   2356     1  0.0000000  0.6508444  3
   2345   2333   2336   2349     1  0.0000000  0.6508444  3
   2345   2333   2336   2350     1  0.0000000  0.6508444  3
   2346   2333   2331   2356     1  0.0000000  0.6508444  3
   2346   2333   2336   2349     1  0.0000000  0.6508444  3
   2346   2333   2336   2350     1  0.0000000  0.6508444  3
   2347   2334   2335   7411     1  180.0000771  0.0000000  2
   2348   2334   2335   7411     1  180.0000771  0.0000000  2
   2349   2336   2337   7485     1  180.0000771  0.0000000  2
   2350   2336   2337   7485     1  180.0000771  0.0000000  2
   2351   2338   2331   2356     1  0.0000000  0.6508444  3
   2351   2338   2339   2353     1  0.0000000  0.6508444  3
   2351   2338   2339   2354     1  0.0000000  0.6508444  3
   2352   2338   2331   2356     1  0.0000000  0.6508444  3
   2352   2338   2339   2353     1  0.0000000  0.6508444  3
   2352   2338   2339   2354     1  0.0000000  0.6508444  3
   2353   2339   2340   2355     1  0.0000000  0.0000000  2
   2354   2339   2340   2355     1  0.0000000  0.0000000  2
   2357   2358   2360   2373     1  0.0000000  0.6508444  3
   2357   2358   2360   2374     1  0.0000000  0.6508444  3
   2357   2359   2362   2375     1  0.0000000  0.6508444  3
   2357   2359   2362   2376     1  0.0000000  0.6508444  3
   2357   2364   2365   2379     1  0.0000000  0.6508444  3
   2357   2364   2365   2380     1  0.0000000  0.6508444  3
   2358   2357   2359   2371     1  0.0000000  0.6508444  3
   2358   2357   2359   2372     1  0.0000000  0.6508444  3
   2358   2357   2364   2377     1  0.0000000  0.6508444  3
   2358   2357   2364   2378     1  0.0000000  0.6508444  3
   2359   2357   2358   2369     1  0.0000000  0.6508444  3
   2359   2357   2358   2370     1  0.0000000  0.6508444  3
   2359   2357   2364   2377     1  0.0000000  0.6508444  3
   2359   2357   2364   2378     1  0.0000000  0.6508444  3
   2360   2358   2357   2382     1  0.0000000  0.6508444  3
   2360   2361   7559   7560     1  180.0000771  10.4600000  2
   2361   2360   2358   2369     1  0.0000000  0.6508444  3
   2361   2360   2358   2370     1  0.0000000  0.6508444  3
   2361   7559   7561   7562     1  0.0000000  0.0000000  2
   2361   7559   7561   7564     1  0.0000000  0.0000000  2
   2362   2359   2357   2382     1  0.0000000  0.6508444  3
   2362   2363   7633   7634     1  180.0000771  10.4600000  2
   2363   2362   2359   2371     1  0.0000000  0.6508444  3
   2363   2362   2359   2372     1  0.0000000  0.6508444  3
   2363   7633   7635   7636     1  0.0000000  0.0000000  2
   2363   7633   7635   7638     1  0.0000000  0.0000000  2
   2364   2357   2358   2369     1  0.0000000  0.6508444  3
   2364   2357   2358   2370     1  0.0000000  0.6508444  3
   2364   2357   2359   2371     1  0.0000000  0.6508444  3
   2364   2357   2359   2372     1  0.0000000  0.6508444  3
   2364   2365   2366   2381     1  0.0000000  0.0000000  2
   2365   2364   2357   2382     1  0.0000000  0.6508444  3
   2366   2365   2364   2377     1  0.0000000  0.6508444  3
   2366   2365   2364   2378     1  0.0000000  0.6508444  3
   2367   2361   2360   2373     1  0.0000000  3.3472000  1
   2367   2361   2360   2373     1  0.0000000  0.0000000  2
   2367   2361   2360   2373     1  180.0000771  0.3347200  3
   2367   2361   2360   2374     1  0.0000000  3.3472000  1
   2367   2361   2360   2374     1  0.0000000  0.0000000  2
   2367   2361   2360   2374     1  180.0000771  0.3347200  3
   2367   2361   7559   7560     1  0.0000000  8.3680000  1
   2367   2361   7559   7560     1  180.0000771  10.4600000  2
   2368   2363   2362   2375     1  0.0000000  3.3472000  1
   2368   2363   2362   2375     1  0.0000000  0.0000000  2
   2368   2363   2362   2375     1  180.0000771  0.3347200  3
   2368   2363   2362   2376     1  0.0000000  3.3472000  1
   2368   2363   2362   2376     1  0.0000000  0.0000000  2
   2368   2363   2362   2376     1  180.0000771  0.3347200  3
   2368   2363   7633   7634     1  0.0000000  8.3680000  1
   2368   2363   7633   7634     1  180.0000771  10.4600000  2
   2369   2358   2357   2382     1  0.0000000  0.6508444  3
   2369   2358   2360   2373     1  0.0000000  0.6508444  3
   2369   2358   2360   2374     1  0.0000000  0.6508444  3
   2370   2358   2357   2382     1  0.0000000  0.6508444  3
   2370   2358   2360   2373     1  0.0000000  0.6508444  3
   2370   2358   2360   2374     1  0.0000000  0.6508444  3
   2371   2359   2357   2382     1  0.0000000  0.6508444  3
   2371   2359   2362   2375     1  0.0000000  0.6508444  3
   2371   2359   2362   2376     1  0.0000000  0.6508444  3
   2372   2359   2357   2382     1  0.0000000  0.6508444  3
   2372   2359   2362   2375     1  0.0000000  0.6508444  3
   2372   2359   2362   2376     1  0.0000000  0.6508444  3
   2373   2360   2361   7559     1  180.0000771  0.0000000  2
   2374   2360   2361   7559     1  180.0000771  0.0000000  2
   2375   2362   2363   7633     1  180.0000771  0.0000000  2
   2376   2362   2363   7633     1  180.0000771  0.0000000  2
   2377   2364   2357   2382     1  0.0000000  0.6508444  3
   2377   2364   2365   2379     1  0.0000000  0.6508444  3
   2377   2364   2365   2380     1  0.0000000  0.6508444  3
   2378   2364   2357   2382     1  0.0000000  0.6508444  3
   2378   2364   2365   2379     1  0.0000000  0.6508444  3
   2378   2364   2365   2380     1  0.0000000  0.6508444  3
   2379   2365   2366   2381     1  0.0000000  0.0000000  2
   2380   2365   2366   2381     1  0.0000000  0.0000000  2
   2383   2384   2386   2399     1  0.0000000  0.6508444  3
   2383   2384   2386   2400     1  0.0000000  0.6508444  3
   2383   2385   2388   2401     1  0.0000000  0.6508444  3
   2383   2385   2388   2402     1  0.0000000  0.6508444  3
   2383   2390   2391   2405     1  0.0000000  0.6508444  3
   2383   2390   2391   2406     1  0.0000000  0.6508444  3
   2384   2383   2385   2397     1  0.0000000  0.6508444  3
   2384   2383   2385   2398     1  0.0000000  0.6508444  3
   2384   2383   2390   2403     1  0.0000000  0.6508444  3
   2384   2383   2390   2404     1  0.0000000  0.6508444  3
   2385   2383   2384   2395     1  0.0000000  0.6508444  3
   2385   2383   2384   2396     1  0.0000000  0.6508444  3
   2385   2383   2390   2403     1  0.0000000  0.6508444  3
   2385   2383   2390   2404     1  0.0000000  0.6508444  3
   2386   2384   2383   2408     1  0.0000000  0.6508444  3
   2386   2387   7707   7708     1  180.0000771  10.4600000  2
   2387   2386   2384   2395     1  0.0000000  0.6508444  3
   2387   2386   2384   2396     1  0.0000000  0.6508444  3
   2387   7707   7709   7710     1  0.0000000  0.0000000  2
   2387   7707   7709   7712     1  0.0000000  0.0000000  2
   2388   2385   2383   2408     1  0.0000000  0.6508444  3
   2388   2389   7781   7782     1  180.0000771  10.4600000  2
   2389   2388   2385   2397     1  0.0000000  0.6508444  3
   2389   2388   2385   2398     1  0.0000000  0.6508444  3
   2389   7781   7783   7784     1  0.0000000  0.0000000  2
   2389   7781   7783   7786     1  0.0000000  0.0000000  2
   2390   2383   2384   2395     1  0.0000000  0.6508444  3
   2390   2383   2384   2396     1  0.0000000  0.6508444  3
   2390   2383   2385   2397     1  0.0000000  0.6508444  3
   2390   2383   2385   2398     1  0.0000000  0.6508444  3
   2390   2391   2392   2407     1  0.0000000  0.0000000  2
   2391   2390   2383   2408     1  0.0000000  0.6508444  3
   2392   2391   2390   2403     1  0.0000000  0.6508444  3
   2392   2391   2390   2404     1  0.0000000  0.6508444  3
   2393   2387   2386   2399     1  0.0000000  3.3472000  1
   2393   2387   2386   2399     1  0.0000000  0.0000000  2
   2393   2387   2386   2399     1  180.0000771  0.3347200  3
   2393   2387   2386   2400     1  0.0000000  3.3472000  1
   2393   2387   2386   2400     1  0.0000000  0.0000000  2
   2393   2387   2386   2400     1  180.0000771  0.3347200  3
   2393   2387   7707   7708     1  0.0000000  8.3680000  1
   2393   2387   7707   7708     1  180.0000771  10.4600000  2
   2394   2389   2388   2401     1  0.0000000  3.3472000  1
   2394   2389   2388   2401     1  0.0000000  0.0000000  2
   2394   2389   2388   2401     1  180.0000771  0.3347200  3
   2394   2389   2388   2402     1  0.0000000  3.3472000  1
   2394   2389   2388   2402     1  0.0000000  0.0000000  2
   2394   2389   2388   2402     1  180.0000771  0.3347200  3
   2394   2389   7781   7782     1  0.0000000  8.3680000  1
   2394   2389   7781   7782     1  180.0000771  10.4600000  2
   2395   2384   2383   2408     1  0.0000000  0.6508444  3
   2395   2384   2386   2399     1  0.0000000  0.6508444  3
   2395   2384   2386   2400     1  0.0000000  0.6508444  3
   2396   2384   2383   2408     1  0.0000000  0.6508444  3
   2396   2384   2386   2399     1  0.0000000  0.6508444  3
   2396   2384   2386   2400     1  0.0000000  0.6508444  3
   2397   2385   2383   2408     1  0.0000000  0.6508444  3
   2397   2385   2388   2401     1  0.0000000  0.6508444  3
   2397   2385   2388   2402     1  0.0000000  0.6508444  3
   2398   2385   2383   2408     1  0.0000000  0.6508444  3
   2398   2385   2388   2401     1  0.0000000  0.6508444  3
   2398   2385   2388   2402     1  0.0000000  0.6508444  3
   2399   2386   2387   7707     1  180.0000771  0.0000000  2
   2400   2386   2387   7707     1  180.0000771  0.0000000  2
   2401   2388   2389   7781     1  180.0000771  0.0000000  2
   2402   2388   2389   7781     1  180.0000771  0.0000000  2
   2403   2390   2383   2408     1  0.0000000  0.6508444  3
   2403   2390   2391   2405     1  0.0000000  0.6508444  3
   2403   2390   2391   2406     1  0.0000000  0.6508444  3
   2404   2390   2383   2408     1  0.0000000  0.6508444  3
   2404   2390   2391   2405     1  0.0000000  0.6508444  3
   2404   2390   2391   2406     1  0.0000000  0.6508444  3
   2405   2391   2392   2407     1  0.0000000  0.0000000  2
   2406   2391   2392   2407     1  0.0000000  0.0000000  2
   2409   2410   2412   2425     1  0.0000000  0.6508444  3
   2409   2410   2412   2426     1  0.0000000  0.6508444  3
   2409   2411   2414   2427     1  0.0000000  0.6508444  3
   2409   2411   2414   2428     1  0.0000000  0.6508444  3
   2409   2416   2417   2431     1  0.0000000  0.6508444  3
   2409   2416   2417   2432     1  0.0000000  0.6508444  3
   2410   2409   2411   2423     1  0.0000000  0.6508444  3
   2410   2409   2411   2424     1  0.0000000  0.6508444  3
   2410   2409   2416   2429     1  0.0000000  0.6508444  3
   2410   2409   2416   2430     1  0.0000000  0.6508444  3
   2411   2409   2410   2421     1  0.0000000  0.6508444  3
   2411   2409   2410   2422     1  0.0000000  0.6508444  3
   2411   2409   2416   2429     1  0.0000000  0.6508444  3
   2411   2409   2416   2430     1  0.0000000  0.6508444  3
   2412   2410   2409   2434     1  0.0000000  0.6508444  3
   2412   2413   7855   7856     1  180.0000771  10.4600000  2
   2413   2412   2410   2421     1  0.0000000  0.6508444  3
   2413   2412   2410   2422     1  0.0000000  0.6508444  3
   2413   7855   7857   7858     1  0.0000000  0.0000000  2
   2413   7855   7857   7860     1  0.0000000  0.0000000  2
   2414   2411   2409   2434     1  0.0000000  0.6508444  3
   2414   2415   7929   7930     1  180.0000771  10.4600000  2
   2415   2414   2411   2423     1  0.0000000  0.6508444  3
   2415   2414   2411   2424     1  0.0000000  0.6508444  3
   2415   7929   7931   7932     1  0.0000000  0.0000000  2
   2415   7929   7931   7934     1  0.0000000  0.0000000  2
   2416   2409   2410   2421     1  0.0000000  0.6508444  3
   2416   2409   2410   2422     1  0.0000000  0.6508444  3
   2416   2409   2411   2423     1  0.0000000  0.6508444  3
   2416   2409   2411   2424     1  0.0000000  0.6508444  3
   2416   2417   2418   2433     1  0.0000000  0.0000000  2
   2417   2416   2409   2434     1  0.0000000  0.6508444  3
   2418   2417   2416   2429     1  0.0000000  0.6508444  3
   2418   2417   2416   2430     1  0.0000000  0.6508444  3
   2419   2413   2412   2425     1  0.0000000  3.3472000  1
   2419   2413   2412   2425     1  0.0000000  0.0000000  2
   2419   2413   2412   2425     1  180.0000771  0.3347200  3
   2419   2413   2412   2426     1  0.0000000  3.3472000  1
   2419   2413   2412   2426     1  0.0000000  0.0000000  2
   2419   2413   2412   2426     1  180.0000771  0.3347200  3
   2419   2413   7855   7856     1  0.0000000  8.3680000  1
   2419   2413   7855   7856     1  180.0000771  10.4600000  2
   2420   2415   2414   2427     1  0.0000000  3.3472000  1
   2420   2415   2414   2427     1  0.0000000  0.0000000  2
   2420   2415   2414   2427     1  180.0000771  0.3347200  3
   2420   2415   2414   2428     1  0.0000000  3.3472000  1
   2420   2415   2414   2428     1  0.0000000  0.0000000  2
   2420   2415   2414   2428     1  180.0000771  0.3347200  3
   2420   2415   7929   7930     1  0.0000000  8.3680000  1
   2420   2415   7929   7930     1  180.0000771  10.4600000  2
   2421   2410   2409   2434     1  0.0000000  0.6508444  3
   2421   2410   2412   2425     1  0.0000000  0.6508444  3
   2421   2410   2412   2426     1  0.0000000  0.6508444  3
   2422   2410   2409   2434     1  0.0000000  0.6508444  3
   2422   2410   2412   2425     1  0.0000000  0.6508444  3
   2422   2410   2412   2426     1  0.0000000  0.6508444  3
   2423   2411   2409   2434     1  0.0000000  0.6508444  3
   2423   2411   2414   2427     1  0.0000000  0.6508444  3
   2423   2411   2414   2428     1  0.0000000  0.6508444  3
   2424   2411   2409   2434     1  0.0000000  0.6508444  3
   2424   2411   2414   2427     1  0.0000000  0.6508444  3
   2424   2411   2414   2428     1  0.0000000  0.6508444  3
   2425   2412   2413   7855     1  180.0000771  0.0000000  2
   2426   2412   2413   7855     1  180.0000771  0.0000000  2
   2427   2414   2415   7929     1  180.0000771  0.0000000  2
   2428   2414   2415   7929     1  180.0000771  0.0000000  2
   2429   2416   2409   2434     1  0.0000000  0.6508444  3
   2429   2416   2417   2431     1  0.0000000  0.6508444  3
   2429   2416   2417   2432     1  0.0000000  0.6508444  3
   2430   2416   2409   2434     1  0.0000000  0.6508444  3
   2430   2416   2417   2431     1  0.0000000  0.6508444  3
   2430   2416   2417   2432     1  0.0000000  0.6508444  3
   2431   2417   2418   2433     1  0.0000000  0.0000000  2
   2432   2417   2418   2433     1  0.0000000  0.0000000  2
   2435   2436   2438   2451     1  0.0000000  0.6508444  3
   2435   2436   2438   2452     1  0.0000000  0.6508444  3
   2435   2437   2440   2453     1  0.0000000  0.6508444  3
   2435   2437   2440   2454     1  0.0000000  0.6508444  3
   2435   2442   2443   2457     1  0.0000000  0.6508444  3
   2435   2442   2443   2458     1  0.0000000  0.6508444  3
   2436   2435   2437   2449     1  0.0000000  0.6508444  3
   2436   2435   2437   2450     1  0.0000000  0.6508444  3
   2436   2435   2442   2455     1  0.0000000  0.6508444  3
   2436   2435   2442   2456     1  0.0000000  0.6508444  3
   2437   2435   2436   2447     1  0.0000000  0.6508444  3
   2437   2435   2436   2448     1  0.0000000  0.6508444  3
   2437   2435   2442   2455     1  0.0000000  0.6508444  3
   2437   2435   2442   2456     1  0.0000000  0.6508444  3
   2438   2436   2435   2460     1  0.0000000  0.6508444  3
   2438   2439   8003   8004     1  180.0000771  10.4600000  2
   2439   2438   2436   2447     1  0.0000000  0.6508444  3
   2439   2438   2436   2448     1  0.0000000  0.6508444  3
   2439   8003   8005   8006     1  0.0000000  0.0000000  2
   2439   8003   8005   8008     1  0.0000000  0.0000000  2
   2440   2437   2435   2460     1  0.0000000  0.6508444  3
   2440   2441   8077   8078     1  180.0000771  10.4600000  2
   2441   2440   2437   2449     1  0.0000000  0.6508444  3
   2441   2440   2437   2450     1  0.0000000  0.6508444  3
   2441   8077   8079   8080     1  0.0000000  0.0000000  2
   2441   8077   8079   8082     1  0.0000000  0.0000000  2
   2442   2435   2436   2447     1  0.0000000  0.6508444  3
   2442   2435   2436   2448     1  0.0000000  0.6508444  3
   2442   2435   2437   2449     1  0.0000000  0.6508444  3
   2442   2435   2437   2450     1  0.0000000  0.6508444  3
   2442   2443   2444   2459     1  0.0000000  0.0000000  2
   2443   2442   2435   2460     1  0.0000000  0.6508444  3
   2444   2443   2442   2455     1  0.0000000  0.6508444  3
   2444   2443   2442   2456     1  0.0000000  0.6508444  3
   2445   2439   2438   2451     1  0.0000000  3.3472000  1
   2445   2439   2438   2451     1  0.0000000  0.0000000  2
   2445   2439   2438   2451     1  180.0000771  0.3347200  3
   2445   2439   2438   2452     1  0.0000000  3.3472000  1
   2445   2439   2438   2452     1  0.0000000  0.0000000  2
   2445   2439   2438   2452     1  180.0000771  0.3347200  3
   2445   2439   8003   8004     1  0.0000000  8.3680000  1
   2445   2439   8003   8004     1  180.0000771  10.4600000  2
   2446   2441   2440   2453     1  0.0000000  3.3472000  1
   2446   2441   2440   2453     1  0.0000000  0.0000000  2
   2446   2441   2440   2453     1  180.0000771  0.3347200  3
   2446   2441   2440   2454     1  0.0000000  3.3472000  1
   2446   2441   2440   2454     1  0.0000000  0.0000000  2
   2446   2441   2440   2454     1  180.0000771  0.3347200  3
   2446   2441   8077   8078     1  0.0000000  8.3680000  1
   2446   2441   8077   8078     1  180.0000771  10.4600000  2
   2447   2436   2435   2460     1  0.0000000  0.6508444  3
   2447   2436   2438   2451     1  0.0000000  0.6508444  3
   2447   2436   2438   2452     1  0.0000000  0.6508444  3
   2448   2436   2435   2460     1  0.0000000  0.6508444  3
   2448   2436   2438   2451     1  0.0000000  0.6508444  3
   2448   2436   2438   2452     1  0.0000000  0.6508444  3
   2449   2437   2435   2460     1  0.0000000  0.6508444  3
   2449   2437   2440   2453     1  0.0000000  0.6508444  3
   2449   2437   2440   2454     1  0.0000000  0.6508444  3
   2450   2437   2435   2460     1  0.0000000  0.6508444  3
   2450   2437   2440   2453     1  0.0000000  0.6508444  3
   2450   2437   2440   2454     1  0.0000000  0.6508444  3
   2451   2438   2439   8003     1  180.0000771  0.0000000  2
   2452   2438   2439   8003     1  180.0000771  0.0000000  2
   2453   2440   2441   8077     1  180.0000771  0.0000000  2
   2454   2440   2441   8077     1  180.0000771  0.0000000  2
   2455   2442   2435   2460     1  0.0000000  0.6508444  3
   2455   2442   2443   2457     1  0.0000000  0.6508444  3
   2455   2442   2443   2458     1  0.0000000  0.6508444  3
   2456   2442   2435   2460     1  0.0000000  0.6508444  3
   2456   2442   2443   2457     1  0.0000000  0.6508444  3
   2456   2442   2443   2458     1  0.0000000  0.6508444  3
   2457   2443   2444   2459     1  0.0000000  0.0000000  2
   2458   2443   2444   2459     1  0.0000000  0.0000000  2
   2461   2462   2464   2477     1  0.0000000  0.6508444  3
   2461   2462   2464   2478     1  0.0000000  0.6508444  3
   2461   2463   2466   2479     1  0.0000000  0.6508444  3
   2461   2463   2466   2480     1  0.0000000  0.6508444  3
   2461   2468   2469   2483     1  0.0000000  0.6508444  3
   2461   2468   2469   2484     1  0.0000000  0.6508444  3
   2462   2461   2463   2475     1  0.0000000  0.6508444  3
   2462   2461   2463   2476     1  0.0000000  0.6508444  3
   2462   2461   2468   2481     1  0.0000000  0.6508444  3
   2462   2461   2468   2482     1  0.0000000  0.6508444  3
   2463   2461   2462   2473     1  0.0000000  0.6508444  3
   2463   2461   2462   2474     1  0.0000000  0.6508444  3
   2463   2461   2468   2481     1  0.0000000  0.6508444  3
   2463   2461   2468   2482     1  0.0000000  0.6508444  3
   2464   2462   2461   2486     1  0.0000000  0.6508444  3
   2464   2465   8151   8152     1  180.0000771  10.4600000  2
   2465   2464   2462   2473     1  0.0000000  0.6508444  3
   2465   2464   2462   2474     1  0.0000000  0.6508444  3
   2465   8151   8153   8154     1  0.0000000  0.0000000  2
   2465   8151   8153   8156     1  0.0000000  0.0000000  2
   2466   2463   2461   2486     1  0.0000000  0.6508444  3
   2466   2467   8225   8226     1  180.0000771  10.4600000  2
   2467   2466   2463   2475     1  0.0000000  0.6508444  3
   2467   2466   2463   2476     1  0.0000000  0.6508444  3
   2467   8225   8227   8228     1  0.0000000  0.0000000  2
   2467   8225   8227   8230     1  0.0000000  0.0000000  2
   2468   2461   2462   2473     1  0.0000000  0.6508444  3
   2468   2461   2462   2474     1  0.0000000  0.6508444  3
   2468   2461   2463   2475     1  0.0000000  0.6508444  3
   2468   2461   2463   2476     1  0.0000000  0.6508444  3
   2468   2469   2470   2485     1  0.0000000  0.0000000  2
   2469   2468   2461   2486     1  0.0000000  0.6508444  3
   2470   2469   2468   2481     1  0.0000000  0.6508444  3
   2470   2469   2468   2482     1  0.0000000  0.6508444  3
   2471   2465   2464   2477     1  0.0000000  3.3472000  1
   2471   2465   2464   2477     1  0.0000000  0.0000000  2
   2471   2465   2464   2477     1  180.0000771  0.3347200  3
   2471   2465   2464   2478     1  0.0000000  3.3472000  1
   2471   2465   2464   2478     1  0.0000000  0.0000000  2
   2471   2465   2464   2478     1  180.0000771  0.3347200  3
   2471   2465   8151   8152     1  0.0000000  8.3680000  1
   2471   2465   8151   8152     1  180.0000771  10.4600000  2
   2472   2467   2466   2479     1  0.0000000  3.3472000  1
   2472   2467   2466   2479     1  0.0000000  0.0000000  2
   2472   2467   2466   2479     1  180.0000771  0.3347200  3
   2472   2467   2466   2480     1  0.0000000  3.3472000  1
   2472   2467   2466   2480     1  0.0000000  0.0000000  2
   2472   2467   2466   2480     1  180.0000771  0.3347200  3
   2472   2467   8225   8226     1  0.0000000  8.3680000  1
   2472   2467   8225   8226     1  180.0000771  10.4600000  2
   2473   2462   2461   2486     1  0.0000000  0.6508444  3
   2473   2462   2464   2477     1  0.0000000  0.6508444  3
   2473   2462   2464   2478     1  0.0000000  0.6508444  3
   2474   2462   2461   2486     1  0.0000000  0.6508444  3
   2474   2462   2464   2477     1  0.0000000  0.6508444  3
   2474   2462   2464   2478     1  0.0000000  0.6508444  3
   2475   2463   2461   2486     1  0.0000000  0.6508444  3
   2475   2463   2466   2479     1  0.0000000  0.6508444  3
   2475   2463   2466   2480     1  0.0000000  0.6508444  3
   2476   2463   2461   2486     1  0.0000000  0.6508444  3
   2476   2463   2466   2479     1  0.0000000  0.6508444  3
   2476   2463   2466   2480     1  0.0000000  0.6508444  3
   2477   2464   2465   8151     1  180.0000771  0.0000000  2
   2478   2464   2465   8151     1  180.0000771  0.0000000  2
   2479   2466   2467   8225     1  180.0000771  0.0000000  2
   2480   2466   2467   8225     1  180.0000771  0.0000000  2
   2481   2468   2461   2486     1  0.0000000  0.6508444  3
   2481   2468   2469   2483     1  0.0000000  0.6508444  3
   2481   2468   2469   2484     1  0.0000000  0.6508444  3
   2482   2468   2461   2486     1  0.0000000  0.6508444  3
   2482   2468   2469   2483     1  0.0000000  0.6508444  3
   2482   2468   2469   2484     1  0.0000000  0.6508444  3
   2483   2469   2470   2485     1  0.0000000  0.0000000  2
   2484   2469   2470   2485     1  0.0000000  0.0000000  2
   2487   2488   2490   2503     1  0.0000000  0.6508444  3
   2487   2488   2490   2504     1  0.0000000  0.6508444  3
   2487   2489   2492   2505     1  0.0000000  0.6508444  3
   2487   2489   2492   2506     1  0.0000000  0.6508444  3
   2487   2494   2495   2509     1  0.0000000  0.6508444  3
   2487   2494   2495   2510     1  0.0000000  0.6508444  3
   2488   2487   2489   2501     1  0.0000000  0.6508444  3
   2488   2487   2489   2502     1  0.0000000  0.6508444  3
   2488   2487   2494   2507     1  0.0000000  0.6508444  3
   2488   2487   2494   2508     1  0.0000000  0.6508444  3
   2489   2487   2488   2499     1  0.0000000  0.6508444  3
   2489   2487   2488   2500     1  0.0000000  0.6508444  3
   2489   2487   2494   2507     1  0.0000000  0.6508444  3
   2489   2487   2494   2508     1  0.0000000  0.6508444  3
   2490   2488   2487   2512     1  0.0000000  0.6508444  3
   2490   2491   8299   8300     1  180.0000771  10.4600000  2
   2491   2490   2488   2499     1  0.0000000  0.6508444  3
   2491   2490   2488   2500     1  0.0000000  0.6508444  3
   2491   8299   8301   8302     1  0.0000000  0.0000000  2
   2491   8299   8301   8304     1  0.0000000  0.0000000  2
   2492   2489   2487   2512     1  0.0000000  0.6508444  3
   2492   2493   8373   8374     1  180.0000771  10.4600000  2
   2493   2492   2489   2501     1  0.0000000  0.6508444  3
   2493   2492   2489   2502     1  0.0000000  0.6508444  3
   2493   8373   8375   8376     1  0.0000000  0.0000000  2
   2493   8373   8375   8378     1  0.0000000  0.0000000  2
   2494   2487   2488   2499     1  0.0000000  0.6508444  3
   2494   2487   2488   2500     1  0.0000000  0.6508444  3
   2494   2487   2489   2501     1  0.0000000  0.6508444  3
   2494   2487   2489   2502     1  0.0000000  0.6508444  3
   2494   2495   2496   2511     1  0.0000000  0.0000000  2
   2495   2494   2487   2512     1  0.0000000  0.6508444  3
   2496   2495   2494   2507     1  0.0000000  0.6508444  3
   2496   2495   2494   2508     1  0.0000000  0.6508444  3
   2497   2491   2490   2503     1  0.0000000  3.3472000  1
   2497   2491   2490   2503     1  0.0000000  0.0000000  2
   2497   2491   2490   2503     1  180.0000771  0.3347200  3
   2497   2491   2490   2504     1  0.0000000  3.3472000  1
   2497   2491   2490   2504     1  0.0000000  0.0000000  2
   2497   2491   2490   2504     1  180.0000771  0.3347200  3
   2497   2491   8299   8300     1  0.0000000  8.3680000  1
   2497   2491   8299   8300     1  180.0000771  10.4600000  2
   2498   2493   2492   2505     1  0.0000000  3.3472000  1
   2498   2493   2492   2505     1  0.0000000  0.0000000  2
   2498   2493   2492   2505     1  180.0000771  0.3347200  3
   2498   2493   2492   2506     1  0.0000000  3.3472000  1
   2498   2493   2492   2506     1  0.0000000  0.0000000  2
   2498   2493   2492   2506     1  180.0000771  0.3347200  3
   2498   2493   8373   8374     1  0.0000000  8.3680000  1
   2498   2493   8373   8374     1  180.0000771  10.4600000  2
   2499   2488   2487   2512     1  0.0000000  0.6508444  3
   2499   2488   2490   2503     1  0.0000000  0.6508444  3
   2499   2488   2490   2504     1  0.0000000  0.6508444  3
   2500   2488   2487   2512     1  0.0000000  0.6508444  3
   2500   2488   2490   2503     1  0.0000000  0.6508444  3
   2500   2488   2490   2504     1  0.0000000  0.6508444  3
   2501   2489   2487   2512     1  0.0000000  0.6508444  3
   2501   2489   2492   2505     1  0.0000000  0.6508444  3
   2501   2489   2492   2506     1  0.0000000  0.6508444  3
   2502   2489   2487   2512     1  0.0000000  0.6508444  3
   2502   2489   2492   2505     1  0.0000000  0.6508444  3
   2502   2489   2492   2506     1  0.0000000  0.6508444  3
   2503   2490   2491   8299     1  180.0000771  0.0000000  2
   2504   2490   2491   8299     1  180.0000771  0.0000000  2
   2505   2492   2493   8373     1  180.0000771  0.0000000  2
   2506   2492   2493   8373     1  180.0000771  0.0000000  2
   2507   2494   2487   2512     1  0.0000000  0.6508444  3
   2507   2494   2495   2509     1  0.0000000  0.6508444  3
   2507   2494   2495   2510     1  0.0000000  0.6508444  3
   2508   2494   2487   2512     1  0.0000000  0.6508444  3
   2508   2494   2495   2509     1  0.0000000  0.6508444  3
   2508   2494   2495   2510     1  0.0000000  0.6508444  3
   2509   2495   2496   2511     1  0.0000000  0.0000000  2
   2510   2495   2496   2511     1  0.0000000  0.0000000  2
   2513   2514   2516   2529     1  0.0000000  0.6508444  3
   2513   2514   2516   2530     1  0.0000000  0.6508444  3
   2513   2515   2518   2531     1  0.0000000  0.6508444  3
   2513   2515   2518   2532     1  0.0000000  0.6508444  3
   2513   2520   2521   2535     1  0.0000000  0.6508444  3
   2513   2520   2521   2536     1  0.0000000  0.6508444  3
   2514   2513   2515   2527     1  0.0000000  0.6508444  3
   2514   2513   2515   2528     1  0.0000000  0.6508444  3
   2514   2513   2520   2533     1  0.0000000  0.6508444  3
   2514   2513   2520   2534     1  0.0000000  0.6508444  3
   2515   2513   2514   2525     1  0.0000000  0.6508444  3
   2515   2513   2514   2526     1  0.0000000  0.6508444  3
   2515   2513   2520   2533     1  0.0000000  0.6508444  3
   2515   2513   2520   2534     1  0.0000000  0.6508444  3
   2516   2514   2513   2538     1  0.0000000  0.6508444  3
   2516   2517   8447   8448     1  180.0000771  10.4600000  2
   2517   2516   2514   2525     1  0.0000000  0.6508444  3
   2517   2516   2514   2526     1  0.0000000  0.6508444  3
   2517   8447   8449   8450     1  0.0000000  0.0000000  2
   2517   8447   8449   8452     1  0.0000000  0.0000000  2
   2518   2515   2513   2538     1  0.0000000  0.6508444  3
   2518   2519   8521   8522     1  180.0000771  10.4600000  2
   2519   2518   2515   2527     1  0.0000000  0.6508444  3
   2519   2518   2515   2528     1  0.0000000  0.6508444  3
   2519   8521   8523   8524     1  0.0000000  0.0000000  2
   2519   8521   8523   8526     1  0.0000000  0.0000000  2
   2520   2513   2514   2525     1  0.0000000  0.6508444  3
   2520   2513   2514   2526     1  0.0000000  0.6508444  3
   2520   2513   2515   2527     1  0.0000000  0.6508444  3
   2520   2513   2515   2528     1  0.0000000  0.6508444  3
   2520   2521   2522   2537     1  0.0000000  0.0000000  2
   2521   2520   2513   2538     1  0.0000000  0.6508444  3
   2522   2521   2520   2533     1  0.0000000  0.6508444  3
   2522   2521   2520   2534     1  0.0000000  0.6508444  3
   2523   2517   2516   2529     1  0.0000000  3.3472000  1
   2523   2517   2516   2529     1  0.0000000  0.0000000  2
   2523   2517   2516   2529     1  180.0000771  0.3347200  3
   2523   2517   2516   2530     1  0.0000000  3.3472000  1
   2523   2517   2516   2530     1  0.0000000  0.0000000  2
   2523   2517   2516   2530     1  180.0000771  0.3347200  3
   2523   2517   8447   8448     1  0.0000000  8.3680000  1
   2523   2517   8447   8448     1  180.0000771  10.4600000  2
   2524   2519   2518   2531     1  0.0000000  3.3472000  1
   2524   2519   2518   2531     1  0.0000000  0.0000000  2
   2524   2519   2518   2531     1  180.0000771  0.3347200  3
   2524   2519   2518   2532     1  0.0000000  3.3472000  1
   2524   2519   2518   2532     1  0.0000000  0.0000000  2
   2524   2519   2518   2532     1  180.0000771  0.3347200  3
   2524   2519   8521   8522     1  0.0000000  8.3680000  1
   2524   2519   8521   8522     1  180.0000771  10.4600000  2
   2525   2514   2513   2538     1  0.0000000  0.6508444  3
   2525   2514   2516   2529     1  0.0000000  0.6508444  3
   2525   2514   2516   2530     1  0.0000000  0.6508444  3
   2526   2514   2513   2538     1  0.0000000  0.6508444  3
   2526   2514   2516   2529     1  0.0000000  0.6508444  3
   2526   2514   2516   2530     1  0.0000000  0.6508444  3
   2527   2515   2513   2538     1  0.0000000  0.6508444  3
   2527   2515   2518   2531     1  0.0000000  0.6508444  3
   2527   2515   2518   2532     1  0.0000000  0.6508444  3
   2528   2515   2513   2538     1  0.0000000  0.6508444  3
   2528   2515   2518   2531     1  0.0000000  0.6508444  3
   2528   2515   2518   2532     1  0.0000000  0.6508444  3
   2529   2516   2517   8447     1  180.0000771  0.0000000  2
   2530   2516   2517   8447     1  180.0000771  0.0000000  2
   2531   2518   2519   8521     1  180.0000771  0.0000000  2
   2532   2518   2519   8521     1  180.0000771  0.0000000  2
   2533   2520   2513   2538     1  0.0000000  0.6508444  3
   2533   2520   2521   2535     1  0.0000000  0.6508444  3
   2533   2520   2521   2536     1  0.0000000  0.6508444  3
   2534   2520   2513   2538     1  0.0000000  0.6508444  3
   2534   2520   2521   2535     1  0.0000000  0.6508444  3
   2534   2520   2521   2536     1  0.0000000  0.6508444  3
   2535   2521   2522   2537     1  0.0000000  0.0000000  2
   2536   2521   2522   2537     1  0.0000000  0.0000000  2
   2539   2540   2542   2555     1  0.0000000  0.6508444  3
   2539   2540   2542   2556     1  0.0000000  0.6508444  3
   2539   2541   2544   2557     1  0.0000000  0.6508444  3
   2539   2541   2544   2558     1  0.0000000  0.6508444  3
   2539   2546   2547   2561     1  0.0000000  0.6508444  3
   2539   2546   2547   2562     1  0.0000000  0.6508444  3
   2540   2539   2541   2553     1  0.0000000  0.6508444  3
   2540   2539   2541   2554     1  0.0000000  0.6508444  3
   2540   2539   2546   2559     1  0.0000000  0.6508444  3
   2540   2539   2546   2560     1  0.0000000  0.6508444  3
   2541   2539   2540   2551     1  0.0000000  0.6508444  3
   2541   2539   2540   2552     1  0.0000000  0.6508444  3
   2541   2539   2546   2559     1  0.0000000  0.6508444  3
   2541   2539   2546   2560     1  0.0000000  0.6508444  3
   2542   2540   2539   2564     1  0.0000000  0.6508444  3
   2542   2543   8595   8596     1  180.0000771  10.4600000  2
   2543   2542   2540   2551     1  0.0000000  0.6508444  3
   2543   2542   2540   2552     1  0.0000000  0.6508444  3
   2543   8595   8597   8598     1  0.0000000  0.0000000  2
   2543   8595   8597   8600     1  0.0000000  0.0000000  2
   2544   2541   2539   2564     1  0.0000000  0.6508444  3
   2544   2545   8669   8670     1  180.0000771  10.4600000  2
   2545   2544   2541   2553     1  0.0000000  0.6508444  3
   2545   2544   2541   2554     1  0.0000000  0.6508444  3
   2545   8669   8671   8672     1  0.0000000  0.0000000  2
   2545   8669   8671   8674     1  0.0000000  0.0000000  2
   2546   2539   2540   2551     1  0.0000000  0.6508444  3
   2546   2539   2540   2552     1  0.0000000  0.6508444  3
   2546   2539   2541   2553     1  0.0000000  0.6508444  3
   2546   2539   2541   2554     1  0.0000000  0.6508444  3
   2546   2547   2548   2563     1  0.0000000  0.0000000  2
   2547   2546   2539   2564     1  0.0000000  0.6508444  3
   2548   2547   2546   2559     1  0.0000000  0.6508444  3
   2548   2547   2546   2560     1  0.0000000  0.6508444  3
   2549   2543   2542   2555     1  0.0000000  3.3472000  1
   2549   2543   2542   2555     1  0.0000000  0.0000000  2
   2549   2543   2542   2555     1  180.0000771  0.3347200  3
   2549   2543   2542   2556     1  0.0000000  3.3472000  1
   2549   2543   2542   2556     1  0.0000000  0.0000000  2
   2549   2543   2542   2556     1  180.0000771  0.3347200  3
   2549   2543   8595   8596     1  0.0000000  8.3680000  1
   2549   2543   8595   8596     1  180.0000771  10.4600000  2
   2550   2545   2544   2557     1  0.0000000  3.3472000  1
   2550   2545   2544   2557     1  0.0000000  0.0000000  2
   2550   2545   2544   2557     1  180.0000771  0.3347200  3
   2550   2545   2544   2558     1  0.0000000  3.3472000  1
   2550   2545   2544   2558     1  0.0000000  0.0000000  2
   2550   2545   2544   2558     1  180.0000771  0.3347200  3
   2550   2545   8669   8670     1  0.0000000  8.3680000  1
   2550   2545   8669   8670     1  180.0000771  10.4600000  2
   2551   2540   2539   2564     1  0.0000000  0.6508444  3
   2551   2540   2542   2555     1  0.0000000  0.6508444  3
   2551   2540   2542   2556     1  0.0000000  0.6508444  3
   2552   2540   2539   2564     1  0.0000000  0.6508444  3
   2552   2540   2542   2555     1  0.0000000  0.6508444  3
   2552   2540   2542   2556     1  0.0000000  0.6508444  3
   2553   2541   2539   2564     1  0.0000000  0.6508444  3
   2553   2541   2544   2557     1  0.0000000  0.6508444  3
   2553   2541   2544   2558     1  0.0000000  0.6508444  3
   2554   2541   2539   2564     1  0.0000000  0.6508444  3
   2554   2541   2544   2557     1  0.0000000  0.6508444  3
   2554   2541   2544   2558     1  0.0000000  0.6508444  3
   2555   2542   2543   8595     1  180.0000771  0.0000000  2
   2556   2542   2543   8595     1  180.0000771  0.0000000  2
   2557   2544   2545   8669     1  180.0000771  0.0000000  2
   2558   2544   2545   8669     1  180.0000771  0.0000000  2
   2559   2546   2539   2564     1  0.0000000  0.6508444  3
   2559   2546   2547   2561     1  0.0000000  0.6508444  3
   2559   2546   2547   2562     1  0.0000000  0.6508444  3
   2560   2546   2539   2564     1  0.0000000  0.6508444  3
   2560   2546   2547   2561     1  0.0000000  0.6508444  3
   2560   2546   2547   2562     1  0.0000000  0.6508444  3
   2561   2547   2548   2563     1  0.0000000  0.0000000  2
   2562   2547   2548   2563     1  0.0000000  0.0000000  2
   2565   2566   2568   2581     1  0.0000000  0.6508444  3
   2565   2566   2568   2582     1  0.0000000  0.6508444  3
   2565   2567   2570   2583     1  0.0000000  0.6508444  3
   2565   2567   2570   2584     1  0.0000000  0.6508444  3
   2565   2572   2573   2587     1  0.0000000  0.6508444  3
   2565   2572   2573   2588     1  0.0000000  0.6508444  3
   2566   2565   2567   2579     1  0.0000000  0.6508444  3
   2566   2565   2567   2580     1  0.0000000  0.6508444  3
   2566   2565   2572   2585     1  0.0000000  0.6508444  3
   2566   2565   2572   2586     1  0.0000000  0.6508444  3
   2567   2565   2566   2577     1  0.0000000  0.6508444  3
   2567   2565   2566   2578     1  0.0000000  0.6508444  3
   2567   2565   2572   2585     1  0.0000000  0.6508444  3
   2567   2565   2572   2586     1  0.0000000  0.6508444  3
   2568   2566   2565   2590     1  0.0000000  0.6508444  3
   2568   2569   8743   8744     1  180.0000771  10.4600000  2
   2569   2568   2566   2577     1  0.0000000  0.6508444  3
   2569   2568   2566   2578     1  0.0000000  0.6508444  3
   2569   8743   8745   8746     1  0.0000000  0.0000000  2
   2569   8743   8745   8748     1  0.0000000  0.0000000  2
   2570   2567   2565   2590     1  0.0000000  0.6508444  3
   2570   2571   8817   8818     1  180.0000771  10.4600000  2
   2571   2570   2567   2579     1  0.0000000  0.6508444  3
   2571   2570   2567   2580     1  0.0000000  0.6508444  3
   2571   8817   8819   8820     1  0.0000000  0.0000000  2
   2571   8817   8819   8822     1  0.0000000  0.0000000  2
   2572   2565   2566   2577     1  0.0000000  0.6508444  3
   2572   2565   2566   2578     1  0.0000000  0.6508444  3
   2572   2565   2567   2579     1  0.0000000  0.6508444  3
   2572   2565   2567   2580     1  0.0000000  0.6508444  3
   2572   2573   2574   2589     1  0.0000000  0.0000000  2
   2573   2572   2565   2590     1  0.0000000  0.6508444  3
   2574   2573   2572   2585     1  0.0000000  0.6508444  3
   2574   2573   2572   2586     1  0.0000000  0.6508444  3
   2575   2569   2568   2581     1  0.0000000  3.3472000  1
   2575   2569   2568   2581     1  0.0000000  0.0000000  2
   2575   2569   2568   2581     1  180.0000771  0.3347200  3
   2575   2569   2568   2582     1  0.0000000  3.3472000  1
   2575   2569   2568   2582     1  0.0000000  0.0000000  2
   2575   2569   2568   2582     1  180.0000771  0.3347200  3
   2575   2569   8743   8744     1  0.0000000  8.3680000  1
   2575   2569   8743   8744     1  180.0000771  10.4600000  2
   2576   2571   2570   2583     1  0.0000000  3.3472000  1
   2576   2571   2570   2583     1  0.0000000  0.0000000  2
   2576   2571   2570   2583     1  180.0000771  0.3347200  3
   2576   2571   2570   2584     1  0.0000000  3.3472000  1
   2576   2571   2570   2584     1  0.0000000  0.0000000  2
   2576   2571   2570   2584     1  180.0000771  0.3347200  3
   2576   2571   8817   8818     1  0.0000000  8.3680000  1
   2576   2571   8817   8818     1  180.0000771  10.4600000  2
   2577   2566   2565   2590     1  0.0000000  0.6508444  3
   2577   2566   2568   2581     1  0.0000000  0.6508444  3
   2577   2566   2568   2582     1  0.0000000  0.6508444  3
   2578   2566   2565   2590     1  0.0000000  0.6508444  3
   2578   2566   2568   2581     1  0.0000000  0.6508444  3
   2578   2566   2568   2582     1  0.0000000  0.6508444  3
   2579   2567   2565   2590     1  0.0000000  0.6508444  3
   2579   2567   2570   2583     1  0.0000000  0.6508444  3
   2579   2567   2570   2584     1  0.0000000  0.6508444  3
   2580   2567   2565   2590     1  0.0000000  0.6508444  3
   2580   2567   2570   2583     1  0.0000000  0.6508444  3
   2580   2567   2570   2584     1  0.0000000  0.6508444  3
   2581   2568   2569   8743     1  180.0000771  0.0000000  2
   2582   2568   2569   8743     1  180.0000771  0.0000000  2
   2583   2570   2571   8817     1  180.0000771  0.0000000  2
   2584   2570   2571   8817     1  180.0000771  0.0000000  2
   2585   2572   2565   2590     1  0.0000000  0.6508444  3
   2585   2572   2573   2587     1  0.0000000  0.6508444  3
   2585   2572   2573   2588     1  0.0000000  0.6508444  3
   2586   2572   2565   2590     1  0.0000000  0.6508444  3
   2586   2572   2573   2587     1  0.0000000  0.6508444  3
   2586   2572   2573   2588     1  0.0000000  0.6508444  3
   2587   2573   2574   2589     1  0.0000000  0.0000000  2
   2588   2573   2574   2589     1  0.0000000  0.0000000  2
   2591   2592   2594   2607     1  0.0000000  0.6508444  3
   2591   2592   2594   2608     1  0.0000000  0.6508444  3
   2591   2593   2596   2609     1  0.0000000  0.6508444  3
   2591   2593   2596   2610     1  0.0000000  0.6508444  3
   2591   2598   2599   2613     1  0.0000000  0.6508444  3
   2591   2598   2599   2614     1  0.0000000  0.6508444  3
   2592   2591   2593   2605     1  0.0000000  0.6508444  3
   2592   2591   2593   2606     1  0.0000000  0.6508444  3
   2592   2591   2598   2611     1  0.0000000  0.6508444  3
   2592   2591   2598   2612     1  0.0000000  0.6508444  3
   2593   2591   2592   2603     1  0.0000000  0.6508444  3
   2593   2591   2592   2604     1  0.0000000  0.6508444  3
   2593   2591   2598   2611     1  0.0000000  0.6508444  3
   2593   2591   2598   2612     1  0.0000000  0.6508444  3
   2594   2592   2591   2616     1  0.0000000  0.6508444  3
   2594   2595   8891   8892     1  180.0000771  10.4600000  2
   2595   2594   2592   2603     1  0.0000000  0.6508444  3
   2595   2594   2592   2604     1  0.0000000  0.6508444  3
   2595   8891   8893   8894     1  0.0000000  0.0000000  2
   2595   8891   8893   8896     1  0.0000000  0.0000000  2
   2596   2593   2591   2616     1  0.0000000  0.6508444  3
   2596   2597   8965   8966     1  180.0000771  10.4600000  2
   2597   2596   2593   2605     1  0.0000000  0.6508444  3
   2597   2596   2593   2606     1  0.0000000  0.6508444  3
   2597   8965   8967   8968     1  0.0000000  0.0000000  2
   2597   8965   8967   8970     1  0.0000000  0.0000000  2
   2598   2591   2592   2603     1  0.0000000  0.6508444  3
   2598   2591   2592   2604     1  0.0000000  0.6508444  3
   2598   2591   2593   2605     1  0.0000000  0.6508444  3
   2598   2591   2593   2606     1  0.0000000  0.6508444  3
   2598   2599   2600   2615     1  0.0000000  0.0000000  2
   2599   2598   2591   2616     1  0.0000000  0.6508444  3
   2600   2599   2598   2611     1  0.0000000  0.6508444  3
   2600   2599   2598   2612     1  0.0000000  0.6508444  3
   2601   2595   2594   2607     1  0.0000000  3.3472000  1
   2601   2595   2594   2607     1  0.0000000  0.0000000  2
   2601   2595   2594   2607     1  180.0000771  0.3347200  3
   2601   2595   2594   2608     1  0.0000000  3.3472000  1
   2601   2595   2594   2608     1  0.0000000  0.0000000  2
   2601   2595   2594   2608     1  180.0000771  0.3347200  3
   2601   2595   8891   8892     1  0.0000000  8.3680000  1
   2601   2595   8891   8892     1  180.0000771  10.4600000  2
   2602   2597   2596   2609     1  0.0000000  3.3472000  1
   2602   2597   2596   2609     1  0.0000000  0.0000000  2
   2602   2597   2596   2609     1  180.0000771  0.3347200  3
   2602   2597   2596   2610     1  0.0000000  3.3472000  1
   2602   2597   2596   2610     1  0.0000000  0.0000000  2
   2602   2597   2596   2610     1  180.0000771  0.3347200  3
   2602   2597   8965   8966     1  0.0000000  8.3680000  1
   2602   2597   8965   8966     1  180.0000771  10.4600000  2
   2603   2592   2591   2616     1  0.0000000  0.6508444  3
   2603   2592   2594   2607     1  0.0000000  0.6508444  3
   2603   2592   2594   2608     1  0.0000000  0.6508444  3
   2604   2592   2591   2616     1  0.0000000  0.6508444  3
   2604   2592   2594   2607     1  0.0000000  0.6508444  3
   2604   2592   2594   2608     1  0.0000000  0.6508444  3
   2605   2593   2591   2616     1  0.0000000  0.6508444  3
   2605   2593   2596   2609     1  0.0000000  0.6508444  3
   2605   2593   2596   2610     1  0.0000000  0.6508444  3
   2606   2593   2591   2616     1  0.0000000  0.6508444  3
   2606   2593   2596   2609     1  0.0000000  0.6508444  3
   2606   2593   2596   2610     1  0.0000000  0.6508444  3
   2607   2594   2595   8891     1  180.0000771  0.0000000  2
   2608   2594   2595   8891     1  180.0000771  0.0000000  2
   2609   2596   2597   8965     1  180.0000771  0.0000000  2
   2610   2596   2597   8965     1  180.0000771  0.0000000  2
   2611   2598   2591   2616     1  0.0000000  0.6508444  3
   2611   2598   2599   2613     1  0.0000000  0.6508444  3
   2611   2598   2599   2614     1  0.0000000  0.6508444  3
   2612   2598   2591   2616     1  0.0000000  0.6508444  3
   2612   2598   2599   2613     1  0.0000000  0.6508444  3
   2612   2598   2599   2614     1  0.0000000  0.6508444  3
   2613   2599   2600   2615     1  0.0000000  0.0000000  2
   2614   2599   2600   2615     1  0.0000000  0.0000000  2
   2617   2618   2620   2633     1  0.0000000  0.6508444  3
   2617   2618   2620   2634     1  0.0000000  0.6508444  3
   2617   2619   2622   2635     1  0.0000000  0.6508444  3
   2617   2619   2622   2636     1  0.0000000  0.6508444  3
   2617   2624   2625   2639     1  0.0000000  0.6508444  3
   2617   2624   2625   2640     1  0.0000000  0.6508444  3
   2618   2617   2619   2631     1  0.0000000  0.6508444  3
   2618   2617   2619   2632     1  0.0000000  0.6508444  3
   2618   2617   2624   2637     1  0.0000000  0.6508444  3
   2618   2617   2624   2638     1  0.0000000  0.6508444  3
   2619   2617   2618   2629     1  0.0000000  0.6508444  3
   2619   2617   2618   2630     1  0.0000000  0.6508444  3
   2619   2617   2624   2637     1  0.0000000  0.6508444  3
   2619   2617   2624   2638     1  0.0000000  0.6508444  3
   2620   2618   2617   2642     1  0.0000000  0.6508444  3
   2620   2621   9039   9040     1  180.0000771  10.4600000  2
   2621   2620   2618   2629     1  0.0000000  0.6508444  3
   2621   2620   2618   2630     1  0.0000000  0.6508444  3
   2621   9039   9041   9042     1  0.0000000  0.0000000  2
   2621   9039   9041   9044     1  0.0000000  0.0000000  2
   2622   2619   2617   2642     1  0.0000000  0.6508444  3
   2622   2623   9113   9114     1  180.0000771  10.4600000  2
   2623   2622   2619   2631     1  0.0000000  0.6508444  3
   2623   2622   2619   2632     1  0.0000000  0.6508444  3
   2623   9113   9115   9116     1  0.0000000  0.0000000  2
   2623   9113   9115   9118     1  0.0000000  0.0000000  2
   2624   2617   2618   2629     1  0.0000000  0.6508444  3
   2624   2617   2618   2630     1  0.0000000  0.6508444  3
   2624   2617   2619   2631     1  0.0000000  0.6508444  3
   2624   2617   2619   2632     1  0.0000000  0.6508444  3
   2624   2625   2626   2641     1  0.0000000  0.0000000  2
   2625   2624   2617   2642     1  0.0000000  0.6508444  3
   2626   2625   2624   2637     1  0.0000000  0.6508444  3
   2626   2625   2624   2638     1  0.0000000  0.6508444  3
   2627   2621   2620   2633     1  0.0000000  3.3472000  1
   2627   2621   2620   2633     1  0.0000000  0.0000000  2
   2627   2621   2620   2633     1  180.0000771  0.3347200  3
   2627   2621   2620   2634     1  0.0000000  3.3472000  1
   2627   2621   2620   2634     1  0.0000000  0.0000000  2
   2627   2621   2620   2634     1  180.0000771  0.3347200  3
   2627   2621   9039   9040     1  0.0000000  8.3680000  1
   2627   2621   9039   9040     1  180.0000771  10.4600000  2
   2628   2623   2622   2635     1  0.0000000  3.3472000  1
   2628   2623   2622   2635     1  0.0000000  0.0000000  2
   2628   2623   2622   2635     1  180.0000771  0.3347200  3
   2628   2623   2622   2636     1  0.0000000  3.3472000  1
   2628   2623   2622   2636     1  0.0000000  0.0000000  2
   2628   2623   2622   2636     1  180.0000771  0.3347200  3
   2628   2623   9113   9114     1  0.0000000  8.3680000  1
   2628   2623   9113   9114     1  180.0000771  10.4600000  2
   2629   2618   2617   2642     1  0.0000000  0.6508444  3
   2629   2618   2620   2633     1  0.0000000  0.6508444  3
   2629   2618   2620   2634     1  0.0000000  0.6508444  3
   2630   2618   2617   2642     1  0.0000000  0.6508444  3
   2630   2618   2620   2633     1  0.0000000  0.6508444  3
   2630   2618   2620   2634     1  0.0000000  0.6508444  3
   2631   2619   2617   2642     1  0.0000000  0.6508444  3
   2631   2619   2622   2635     1  0.0000000  0.6508444  3
   2631   2619   2622   2636     1  0.0000000  0.6508444  3
   2632   2619   2617   2642     1  0.0000000  0.6508444  3
   2632   2619   2622   2635     1  0.0000000  0.6508444  3
   2632   2619   2622   2636     1  0.0000000  0.6508444  3
   2633   2620   2621   9039     1  180.0000771  0.0000000  2
   2634   2620   2621   9039     1  180.0000771  0.0000000  2
   2635   2622   2623   9113     1  180.0000771  0.0000000  2
   2636   2622   2623   9113     1  180.0000771  0.0000000  2
   2637   2624   2617   2642     1  0.0000000  0.6508444  3
   2637   2624   2625   2639     1  0.0000000  0.6508444  3
   2637   2624   2625   2640     1  0.0000000  0.6508444  3
   2638   2624   2617   2642     1  0.0000000  0.6508444  3
   2638   2624   2625   2639     1  0.0000000  0.6508444  3
   2638   2624   2625   2640     1  0.0000000  0.6508444  3
   2639   2625   2626   2641     1  0.0000000  0.0000000  2
   2640   2625   2626   2641     1  0.0000000  0.0000000  2
   2643   2644   2646   2659     1  0.0000000  0.6508444  3
   2643   2644   2646   2660     1  0.0000000  0.6508444  3
   2643   2645   2648   2661     1  0.0000000  0.6508444  3
   2643   2645   2648   2662     1  0.0000000  0.6508444  3
   2643   2650   2651   2665     1  0.0000000  0.6508444  3
   2643   2650   2651   2666     1  0.0000000  0.6508444  3
   2644   2643   2645   2657     1  0.0000000  0.6508444  3
   2644   2643   2645   2658     1  0.0000000  0.6508444  3
   2644   2643   2650   2663     1  0.0000000  0.6508444  3
   2644   2643   2650   2664     1  0.0000000  0.6508444  3
   2645   2643   2644   2655     1  0.0000000  0.6508444  3
   2645   2643   2644   2656     1  0.0000000  0.6508444  3
   2645   2643   2650   2663     1  0.0000000  0.6508444  3
   2645   2643   2650   2664     1  0.0000000  0.6508444  3
   2646   2644   2643   2668     1  0.0000000  0.6508444  3
   2646   2647   9187   9188     1  180.0000771  10.4600000  2
   2647   2646   2644   2655     1  0.0000000  0.6508444  3
   2647   2646   2644   2656     1  0.0000000  0.6508444  3
   2647   9187   9189   9190     1  0.0000000  0.0000000  2
   2647   9187   9189   9192     1  0.0000000  0.0000000  2
   2648   2645   2643   2668     1  0.0000000  0.6508444  3
   2648   2649   9261   9262     1  180.0000771  10.4600000  2
   2649   2648   2645   2657     1  0.0000000  0.6508444  3
   2649   2648   2645   2658     1  0.0000000  0.6508444  3
   2649   9261   9263   9264     1  0.0000000  0.0000000  2
   2649   9261   9263   9266     1  0.0000000  0.0000000  2
   2650   2643   2644   2655     1  0.0000000  0.6508444  3
   2650   2643   2644   2656     1  0.0000000  0.6508444  3
   2650   2643   2645   2657     1  0.0000000  0.6508444  3
   2650   2643   2645   2658     1  0.0000000  0.6508444  3
   2650   2651   2652   2667     1  0.0000000  0.0000000  2
   2651   2650   2643   2668     1  0.0000000  0.6508444  3
   2652   2651   2650   2663     1  0.0000000  0.6508444  3
   2652   2651   2650   2664     1  0.0000000  0.6508444  3
   2653   2647   2646   2659     1  0.0000000  3.3472000  1
   2653   2647   2646   2659     1  0.0000000  0.0000000  2
   2653   2647   2646   2659     1  180.0000771  0.3347200  3
   2653   2647   2646   2660     1  0.0000000  3.3472000  1
   2653   2647   2646   2660     1  0.0000000  0.0000000  2
   2653   2647   2646   2660     1  180.0000771  0.3347200  3
   2653   2647   9187   9188     1  0.0000000  8.3680000  1
   2653   2647   9187   9188     1  180.0000771  10.4600000  2
   2654   2649   2648   2661     1  0.0000000  3.3472000  1
   2654   2649   2648   2661     1  0.0000000  0.0000000  2
   2654   2649   2648   2661     1  180.0000771  0.3347200  3
   2654   2649   2648   2662     1  0.0000000  3.3472000  1
   2654   2649   2648   2662     1  0.0000000  0.0000000  2
   2654   2649   2648   2662     1  180.0000771  0.3347200  3
   2654   2649   9261   9262     1  0.0000000  8.3680000  1
   2654   2649   9261   9262     1  180.0000771  10.4600000  2
   2655   2644   2643   2668     1  0.0000000  0.6508444  3
   2655   2644   2646   2659     1  0.0000000  0.6508444  3
   2655   2644   2646   2660     1  0.0000000  0.6508444  3
   2656   2644   2643   2668     1  0.0000000  0.6508444  3
   2656   2644   2646   2659     1  0.0000000  0.6508444  3
   2656   2644   2646   2660     1  0.0000000  0.6508444  3
   2657   2645   2643   2668     1  0.0000000  0.6508444  3
   2657   2645   2648   2661     1  0.0000000  0.6508444  3
   2657   2645   2648   2662     1  0.0000000  0.6508444  3
   2658   2645   2643   2668     1  0.0000000  0.6508444  3
   2658   2645   2648   2661     1  0.0000000  0.6508444  3
   2658   2645   2648   2662     1  0.0000000  0.6508444  3
   2659   2646   2647   9187     1  180.0000771  0.0000000  2
   2660   2646   2647   9187     1  180.0000771  0.0000000  2
   2661   2648   2649   9261     1  180.0000771  0.0000000  2
   2662   2648   2649   9261     1  180.0000771  0.0000000  2
   2663   2650   2643   2668     1  0.0000000  0.6508444  3
   2663   2650   2651   2665     1  0.0000000  0.6508444  3
   2663   2650   2651   2666     1  0.0000000  0.6508444  3
   2664   2650   2643   2668     1  0.0000000  0.6508444  3
   2664   2650   2651   2665     1  0.0000000  0.6508444  3
   2664   2650   2651   2666     1  0.0000000  0.6508444  3
   2665   2651   2652   2667     1  0.0000000  0.0000000  2
   2666   2651   2652   2667     1  0.0000000  0.0000000  2
   2669   2670   2672   2685     1  0.0000000  0.6508444  3
   2669   2670   2672   2686     1  0.0000000  0.6508444  3
   2669   2671   2674   2687     1  0.0000000  0.6508444  3
   2669   2671   2674   2688     1  0.0000000  0.6508444  3
   2669   2676   2677   2691     1  0.0000000  0.6508444  3
   2669   2676   2677   2692     1  0.0000000  0.6508444  3
   2670   2669   2671   2683     1  0.0000000  0.6508444  3
   2670   2669   2671   2684     1  0.0000000  0.6508444  3
   2670   2669   2676   2689     1  0.0000000  0.6508444  3
   2670   2669   2676   2690     1  0.0000000  0.6508444  3
   2671   2669   2670   2681     1  0.0000000  0.6508444  3
   2671   2669   2670   2682     1  0.0000000  0.6508444  3
   2671   2669   2676   2689     1  0.0000000  0.6508444  3
   2671   2669   2676   2690     1  0.0000000  0.6508444  3
   2672   2670   2669   2694     1  0.0000000  0.6508444  3
   2672   2673   9335   9336     1  180.0000771  10.4600000  2
   2673   2672   2670   2681     1  0.0000000  0.6508444  3
   2673   2672   2670   2682     1  0.0000000  0.6508444  3
   2673   9335   9337   9338     1  0.0000000  0.0000000  2
   2673   9335   9337   9340     1  0.0000000  0.0000000  2
   2674   2671   2669   2694     1  0.0000000  0.6508444  3
   2674   2675   9409   9410     1  180.0000771  10.4600000  2
   2675   2674   2671   2683     1  0.0000000  0.6508444  3
   2675   2674   2671   2684     1  0.0000000  0.6508444  3
   2675   9409   9411   9412     1  0.0000000  0.0000000  2
   2675   9409   9411   9414     1  0.0000000  0.0000000  2
   2676   2669   2670   2681     1  0.0000000  0.6508444  3
   2676   2669   2670   2682     1  0.0000000  0.6508444  3
   2676   2669   2671   2683     1  0.0000000  0.6508444  3
   2676   2669   2671   2684     1  0.0000000  0.6508444  3
   2676   2677   2678   2693     1  0.0000000  0.0000000  2
   2677   2676   2669   2694     1  0.0000000  0.6508444  3
   2678   2677   2676   2689     1  0.0000000  0.6508444  3
   2678   2677   2676   2690     1  0.0000000  0.6508444  3
   2679   2673   2672   2685     1  0.0000000  3.3472000  1
   2679   2673   2672   2685     1  0.0000000  0.0000000  2
   2679   2673   2672   2685     1  180.0000771  0.3347200  3
   2679   2673   2672   2686     1  0.0000000  3.3472000  1
   2679   2673   2672   2686     1  0.0000000  0.0000000  2
   2679   2673   2672   2686     1  180.0000771  0.3347200  3
   2679   2673   9335   9336     1  0.0000000  8.3680000  1
   2679   2673   9335   9336     1  180.0000771  10.4600000  2
   2680   2675   2674   2687     1  0.0000000  3.3472000  1
   2680   2675   2674   2687     1  0.0000000  0.0000000  2
   2680   2675   2674   2687     1  180.0000771  0.3347200  3
   2680   2675   2674   2688     1  0.0000000  3.3472000  1
   2680   2675   2674   2688     1  0.0000000  0.0000000  2
   2680   2675   2674   2688     1  180.0000771  0.3347200  3
   2680   2675   9409   9410     1  0.0000000  8.3680000  1
   2680   2675   9409   9410     1  180.0000771  10.4600000  2
   2681   2670   2669   2694     1  0.0000000  0.6508444  3
   2681   2670   2672   2685     1  0.0000000  0.6508444  3
   2681   2670   2672   2686     1  0.0000000  0.6508444  3
   2682   2670   2669   2694     1  0.0000000  0.6508444  3
   2682   2670   2672   2685     1  0.0000000  0.6508444  3
   2682   2670   2672   2686     1  0.0000000  0.6508444  3
   2683   2671   2669   2694     1  0.0000000  0.6508444  3
   2683   2671   2674   2687     1  0.0000000  0.6508444  3
   2683   2671   2674   2688     1  0.0000000  0.6508444  3
   2684   2671   2669   2694     1  0.0000000  0.6508444  3
   2684   2671   2674   2687     1  0.0000000  0.6508444  3
   2684   2671   2674   2688     1  0.0000000  0.6508444  3
   2685   2672   2673   9335     1  180.0000771  0.0000000  2
   2686   2672   2673   9335     1  180.0000771  0.0000000  2
   2687   2674   2675   9409     1  180.0000771  0.0000000  2
   2688   2674   2675   9409     1  180.0000771  0.0000000  2
   2689   2676   2669   2694     1  0.0000000  0.6508444  3
   2689   2676   2677   2691     1  0.0000000  0.6508444  3
   2689   2676   2677   2692     1  0.0000000  0.6508444  3
   2690   2676   2669   2694     1  0.0000000  0.6508444  3
   2690   2676   2677   2691     1  0.0000000  0.6508444  3
   2690   2676   2677   2692     1  0.0000000  0.6508444  3
   2691   2677   2678   2693     1  0.0000000  0.0000000  2
   2692   2677   2678   2693     1  0.0000000  0.0000000  2
   2695   2696   2698   2711     1  0.0000000  0.6508444  3
   2695   2696   2698   2712     1  0.0000000  0.6508444  3
   2695   2697   2700   2713     1  0.0000000  0.6508444  3
   2695   2697   2700   2714     1  0.0000000  0.6508444  3
   2695   2702   2703   2717     1  0.0000000  0.6508444  3
   2695   2702   2703   2718     1  0.0000000  0.6508444  3
   2696   2695   2697   2709     1  0.0000000  0.6508444  3
   2696   2695   2697   2710     1  0.0000000  0.6508444  3
   2696   2695   2702   2715     1  0.0000000  0.6508444  3
   2696   2695   2702   2716     1  0.0000000  0.6508444  3
   2697   2695   2696   2707     1  0.0000000  0.6508444  3
   2697   2695   2696   2708     1  0.0000000  0.6508444  3
   2697   2695   2702   2715     1  0.0000000  0.6508444  3
   2697   2695   2702   2716     1  0.0000000  0.6508444  3
   2698   2696   2695   2720     1  0.0000000  0.6508444  3
   2698   2699   9483   9484     1  180.0000771  10.4600000  2
   2699   2698   2696   2707     1  0.0000000  0.6508444  3
   2699   2698   2696   2708     1  0.0000000  0.6508444  3
   2699   9483   9485   9486     1  0.0000000  0.0000000  2
   2699   9483   9485   9488     1  0.0000000  0.0000000  2
   2700   2697   2695   2720     1  0.0000000  0.6508444  3
   2700   2701   9557   9558     1  180.0000771  10.4600000  2
   2701   2700   2697   2709     1  0.0000000  0.6508444  3
   2701   2700   2697   2710     1  0.0000000  0.6508444  3
   2701   9557   9559   9560     1  0.0000000  0.0000000  2
   2701   9557   9559   9562     1  0.0000000  0.0000000  2
   2702   2695   2696   2707     1  0.0000000  0.6508444  3
   2702   2695   2696   2708     1  0.0000000  0.6508444  3
   2702   2695   2697   2709     1  0.0000000  0.6508444  3
   2702   2695   2697   2710     1  0.0000000  0.6508444  3
   2702   2703   2704   2719     1  0.0000000  0.0000000  2
   2703   2702   2695   2720     1  0.0000000  0.6508444  3
   2704   2703   2702   2715     1  0.0000000  0.6508444  3
   2704   2703   2702   2716     1  0.0000000  0.6508444  3
   2705   2699   2698   2711     1  0.0000000  3.3472000  1
   2705   2699   2698   2711     1  0.0000000  0.0000000  2
   2705   2699   2698   2711     1  180.0000771  0.3347200  3
   2705   2699   2698   2712     1  0.0000000  3.3472000  1
   2705   2699   2698   2712     1  0.0000000  0.0000000  2
   2705   2699   2698   2712     1  180.0000771  0.3347200  3
   2705   2699   9483   9484     1  0.0000000  8.3680000  1
   2705   2699   9483   9484     1  180.0000771  10.4600000  2
   2706   2701   2700   2713     1  0.0000000  3.3472000  1
   2706   2701   2700   2713     1  0.0000000  0.0000000  2
   2706   2701   2700   2713     1  180.0000771  0.3347200  3
   2706   2701   2700   2714     1  0.0000000  3.3472000  1
   2706   2701   2700   2714     1  0.0000000  0.0000000  2
   2706   2701   2700   2714     1  180.0000771  0.3347200  3
   2706   2701   9557   9558     1  0.0000000  8.3680000  1
   2706   2701   9557   9558     1  180.0000771  10.4600000  2
   2707   2696   2695   2720     1  0.0000000  0.6508444  3
   2707   2696   2698   2711     1  0.0000000  0.6508444  3
   2707   2696   2698   2712     1  0.0000000  0.6508444  3
   2708   2696   2695   2720     1  0.0000000  0.6508444  3
   2708   2696   2698   2711     1  0.0000000  0.6508444  3
   2708   2696   2698   2712     1  0.0000000  0.6508444  3
   2709   2697   2695   2720     1  0.0000000  0.6508444  3
   2709   2697   2700   2713     1  0.0000000  0.6508444  3
   2709   2697   2700   2714     1  0.0000000  0.6508444  3
   2710   2697   2695   2720     1  0.0000000  0.6508444  3
   2710   2697   2700   2713     1  0.0000000  0.6508444  3
   2710   2697   2700   2714     1  0.0000000  0.6508444  3
   2711   2698   2699   9483     1  180.0000771  0.0000000  2
   2712   2698   2699   9483     1  180.0000771  0.0000000  2
   2713   2700   2701   9557     1  180.0000771  0.0000000  2
   2714   2700   2701   9557     1  180.0000771  0.0000000  2
   2715   2702   2695   2720     1  0.0000000  0.6508444  3
   2715   2702   2703   2717     1  0.0000000  0.6508444  3
   2715   2702   2703   2718     1  0.0000000  0.6508444  3
   2716   2702   2695   2720     1  0.0000000  0.6508444  3
   2716   2702   2703   2717     1  0.0000000  0.6508444  3
   2716   2702   2703   2718     1  0.0000000  0.6508444  3
   2717   2703   2704   2719     1  0.0000000  0.0000000  2
   2718   2703   2704   2719     1  0.0000000  0.0000000  2
   2721   2722   2724   2737     1  0.0000000  0.6508444  3
   2721   2722   2724   2738     1  0.0000000  0.6508444  3
   2721   2723   2726   2739     1  0.0000000  0.6508444  3
   2721   2723   2726   2740     1  0.0000000  0.6508444  3
   2721   2728   2729   2743     1  0.0000000  0.6508444  3
   2721   2728   2729   2744     1  0.0000000  0.6508444  3
   2722   2721   2723   2735     1  0.0000000  0.6508444  3
   2722   2721   2723   2736     1  0.0000000  0.6508444  3
   2722   2721   2728   2741     1  0.0000000  0.6508444  3
   2722   2721   2728   2742     1  0.0000000  0.6508444  3
   2723   2721   2722   2733     1  0.0000000  0.6508444  3
   2723   2721   2722   2734     1  0.0000000  0.6508444  3
   2723   2721   2728   2741     1  0.0000000  0.6508444  3
   2723   2721   2728   2742     1  0.0000000  0.6508444  3
   2724   2722   2721   2746     1  0.0000000  0.6508444  3
   2724   2725   9631   9632     1  180.0000771  10.4600000  2
   2725   2724   2722   2733     1  0.0000000  0.6508444  3
   2725   2724   2722   2734     1  0.0000000  0.6508444  3
   2725   9631   9633   9634     1  0.0000000  0.0000000  2
   2725   9631   9633   9636     1  0.0000000  0.0000000  2
   2726   2723   2721   2746     1  0.0000000  0.6508444  3
   2726   2727   9705   9706     1  180.0000771  10.4600000  2
   2727   2726   2723   2735     1  0.0000000  0.6508444  3
   2727   2726   2723   2736     1  0.0000000  0.6508444  3
   2727   9705   9707   9708     1  0.0000000  0.0000000  2
   2727   9705   9707   9710     1  0.0000000  0.0000000  2
   2728   2721   2722   2733     1  0.0000000  0.6508444  3
   2728   2721   2722   2734     1  0.0000000  0.6508444  3
   2728   2721   2723   2735     1  0.0000000  0.6508444  3
   2728   2721   2723   2736     1  0.0000000  0.6508444  3
   2728   2729   2730   2745     1  0.0000000  0.0000000  2
   2729   2728   2721   2746     1  0.0000000  0.6508444  3
   2730   2729   2728   2741     1  0.0000000  0.6508444  3
   2730   2729   2728   2742     1  0.0000000  0.6508444  3
   2731   2725   2724   2737     1  0.0000000  3.3472000  1
   2731   2725   2724   2737     1  0.0000000  0.0000000  2
   2731   2725   2724   2737     1  180.0000771  0.3347200  3
   2731   2725   2724   2738     1  0.0000000  3.3472000  1
   2731   2725   2724   2738     1  0.0000000  0.0000000  2
   2731   2725   2724   2738     1  180.0000771  0.3347200  3
   2731   2725   9631   9632     1  0.0000000  8.3680000  1
   2731   2725   9631   9632     1  180.0000771  10.4600000  2
   2732   2727   2726   2739     1  0.0000000  3.3472000  1
   2732   2727   2726   2739     1  0.0000000  0.0000000  2
   2732   2727   2726   2739     1  180.0000771  0.3347200  3
   2732   2727   2726   2740     1  0.0000000  3.3472000  1
   2732   2727   2726   2740     1  0.0000000  0.0000000  2
   2732   2727   2726   2740     1  180.0000771  0.3347200  3
   2732   2727   9705   9706     1  0.0000000  8.3680000  1
   2732   2727   9705   9706     1  180.0000771  10.4600000  2
   2733   2722   2721   2746     1  0.0000000  0.6508444  3
   2733   2722   2724   2737     1  0.0000000  0.6508444  3
   2733   2722   2724   2738     1  0.0000000  0.6508444  3
   2734   2722   2721   2746     1  0.0000000  0.6508444  3
   2734   2722   2724   2737     1  0.0000000  0.6508444  3
   2734   2722   2724   2738     1  0.0000000  0.6508444  3
   2735   2723   2721   2746     1  0.0000000  0.6508444  3
   2735   2723   2726   2739     1  0.0000000  0.6508444  3
   2735   2723   2726   2740     1  0.0000000  0.6508444  3
   2736   2723   2721   2746     1  0.0000000  0.6508444  3
   2736   2723   2726   2739     1  0.0000000  0.6508444  3
   2736   2723   2726   2740     1  0.0000000  0.6508444  3
   2737   2724   2725   9631     1  180.0000771  0.0000000  2
   2738   2724   2725   9631     1  180.0000771  0.0000000  2
   2739   2726   2727   9705     1  180.0000771  0.0000000  2
   2740   2726   2727   9705     1  180.0000771  0.0000000  2
   2741   2728   2721   2746     1  0.0000000  0.6508444  3
   2741   2728   2729   2743     1  0.0000000  0.6508444  3
   2741   2728   2729   2744     1  0.0000000  0.6508444  3
   2742   2728   2721   2746     1  0.0000000  0.6508444  3
   2742   2728   2729   2743     1  0.0000000  0.6508444  3
   2742   2728   2729   2744     1  0.0000000  0.6508444  3
   2743   2729   2730   2745     1  0.0000000  0.0000000  2
   2744   2729   2730   2745     1  0.0000000  0.0000000  2
   2747   2748   2750   2763     1  0.0000000  0.6508444  3
   2747   2748   2750   2764     1  0.0000000  0.6508444  3
   2747   2749   2752   2765     1  0.0000000  0.6508444  3
   2747   2749   2752   2766     1  0.0000000  0.6508444  3
   2747   2754   2755   2769     1  0.0000000  0.6508444  3
   2747   2754   2755   2770     1  0.0000000  0.6508444  3
   2748   2747   2749   2761     1  0.0000000  0.6508444  3
   2748   2747   2749   2762     1  0.0000000  0.6508444  3
   2748   2747   2754   2767     1  0.0000000  0.6508444  3
   2748   2747   2754   2768     1  0.0000000  0.6508444  3
   2749   2747   2748   2759     1  0.0000000  0.6508444  3
   2749   2747   2748   2760     1  0.0000000  0.6508444  3
   2749   2747   2754   2767     1  0.0000000  0.6508444  3
   2749   2747   2754   2768     1  0.0000000  0.6508444  3
   2750   2748   2747   2772     1  0.0000000  0.6508444  3
   2750   2751   9779   9780     1  180.0000771  10.4600000  2
   2751   2750   2748   2759     1  0.0000000  0.6508444  3
   2751   2750   2748   2760     1  0.0000000  0.6508444  3
   2751   9779   9781   9782     1  0.0000000  0.0000000  2
   2751   9779   9781   9784     1  0.0000000  0.0000000  2
   2752   2749   2747   2772     1  0.0000000  0.6508444  3
   2752   2753   9853   9854     1  180.0000771  10.4600000  2
   2753   2752   2749   2761     1  0.0000000  0.6508444  3
   2753   2752   2749   2762     1  0.0000000  0.6508444  3
   2753   9853   9855   9856     1  0.0000000  0.0000000  2
   2753   9853   9855   9858     1  0.0000000  0.0000000  2
   2754   2747   2748   2759     1  0.0000000  0.6508444  3
   2754   2747   2748   2760     1  0.0000000  0.6508444  3
   2754   2747   2749   2761     1  0.0000000  0.6508444  3
   2754   2747   2749   2762     1  0.0000000  0.6508444  3
   2754   2755   2756   2771     1  0.0000000  0.0000000  2
   2755   2754   2747   2772     1  0.0000000  0.6508444  3
   2756   2755   2754   2767     1  0.0000000  0.6508444  3
   2756   2755   2754   2768     1  0.0000000  0.6508444  3
   2757   2751   2750   2763     1  0.0000000  3.3472000  1
   2757   2751   2750   2763     1  0.0000000  0.0000000  2
   2757   2751   2750   2763     1  180.0000771  0.3347200  3
   2757   2751   2750   2764     1  0.0000000  3.3472000  1
   2757   2751   2750   2764     1  0.0000000  0.0000000  2
   2757   2751   2750   2764     1  180.0000771  0.3347200  3
   2757   2751   9779   9780     1  0.0000000  8.3680000  1
   2757   2751   9779   9780     1  180.0000771  10.4600000  2
   2758   2753   2752   2765     1  0.0000000  3.3472000  1
   2758   2753   2752   2765     1  0.0000000  0.0000000  2
   2758   2753   2752   2765     1  180.0000771  0.3347200  3
   2758   2753   2752   2766     1  0.0000000  3.3472000  1
   2758   2753   2752   2766     1  0.0000000  0.0000000  2
   2758   2753   2752   2766     1  180.0000771  0.3347200  3
   2758   2753   9853   9854     1  0.0000000  8.3680000  1
   2758   2753   9853   9854     1  180.0000771  10.4600000  2
   2759   2748   2747   2772     1  0.0000000  0.6508444  3
   2759   2748   2750   2763     1  0.0000000  0.6508444  3
   2759   2748   2750   2764     1  0.0000000  0.6508444  3
   2760   2748   2747   2772     1  0.0000000  0.6508444  3
   2760   2748   2750   2763     1  0.0000000  0.6508444  3
   2760   2748   2750   2764     1  0.0000000  0.6508444  3
   2761   2749   2747   2772     1  0.0000000  0.6508444  3
   2761   2749   2752   2765     1  0.0000000  0.6508444  3
   2761   2749   2752   2766     1  0.0000000  0.6508444  3
   2762   2749   2747   2772     1  0.0000000  0.6508444  3
   2762   2749   2752   2765     1  0.0000000  0.6508444  3
   2762   2749   2752   2766     1  0.0000000  0.6508444  3
   2763   2750   2751   9779     1  180.0000771  0.0000000  2
   2764   2750   2751   9779     1  180.0000771  0.0000000  2
   2765   2752   2753   9853     1  180.0000771  0.0000000  2
   2766   2752   2753   9853     1  180.0000771  0.0000000  2
   2767   2754   2747   2772     1  0.0000000  0.6508444  3
   2767   2754   2755   2769     1  0.0000000  0.6508444  3
   2767   2754   2755   2770     1  0.0000000  0.6508444  3
   2768   2754   2747   2772     1  0.0000000  0.6508444  3
   2768   2754   2755   2769     1  0.0000000  0.6508444  3
   2768   2754   2755   2770     1  0.0000000  0.6508444  3
   2769   2755   2756   2771     1  0.0000000  0.0000000  2
   2770   2755   2756   2771     1  0.0000000  0.0000000  2
   2773   2774   2776   2789     1  0.0000000  0.6508444  3
   2773   2774   2776   2790     1  0.0000000  0.6508444  3
   2773   2775   2778   2791     1  0.0000000  0.6508444  3
   2773   2775   2778   2792     1  0.0000000  0.6508444  3
   2773   2780   2781   2795     1  0.0000000  0.6508444  3
   2773   2780   2781   2796     1  0.0000000  0.6508444  3
   2774   2773   2775   2787     1  0.0000000  0.6508444  3
   2774   2773   2775   2788     1  0.0000000  0.6508444  3
   2774   2773   2780   2793     1  0.0000000  0.6508444  3
   2774   2773   2780   2794     1  0.0000000  0.6508444  3
   2775   2773   2774   2785     1  0.0000000  0.6508444  3
   2775   2773   2774   2786     1  0.0000000  0.6508444  3
   2775   2773   2780   2793     1  0.0000000  0.6508444  3
   2775   2773   2780   2794     1  0.0000000  0.6508444  3
   2776   2774   2773   2798     1  0.0000000  0.6508444  3
   2776   2777   9927   9928     1  180.0000771  10.4600000  2
   2777   2776   2774   2785     1  0.0000000  0.6508444  3
   2777   2776   2774   2786     1  0.0000000  0.6508444  3
   2777   9927   9929   9930     1  0.0000000  0.0000000  2
   2777   9927   9929   9932     1  0.0000000  0.0000000  2
   2778   2775   2773   2798     1  0.0000000  0.6508444  3
   2778   2779  10001  10002     1  180.0000771  10.4600000  2
   2779   2778   2775   2787     1  0.0000000  0.6508444  3
   2779   2778   2775   2788     1  0.0000000  0.6508444  3
   2779  10001  10003  10004     1  0.0000000  0.0000000  2
   2779  10001  10003  10006     1  0.0000000  0.0000000  2
   2780   2773   2774   2785     1  0.0000000  0.6508444  3
   2780   2773   2774   2786     1  0.0000000  0.6508444  3
   2780   2773   2775   2787     1  0.0000000  0.6508444  3
   2780   2773   2775   2788     1  0.0000000  0.6508444  3
   2780   2781   2782   2797     1  0.0000000  0.0000000  2
   2781   2780   2773   2798     1  0.0000000  0.6508444  3
   2782   2781   2780   2793     1  0.0000000  0.6508444  3
   2782   2781   2780   2794     1  0.0000000  0.6508444  3
   2783   2777   2776   2789     1  0.0000000  3.3472000  1
   2783   2777   2776   2789     1  0.0000000  0.0000000  2
   2783   2777   2776   2789     1  180.0000771  0.3347200  3
   2783   2777   2776   2790     1  0.0000000  3.3472000  1
   2783   2777   2776   2790     1  0.0000000  0.0000000  2
   2783   2777   2776   2790     1  180.0000771  0.3347200  3
   2783   2777   9927   9928     1  0.0000000  8.3680000  1
   2783   2777   9927   9928     1  180.0000771  10.4600000  2
   2784   2779   2778   2791     1  0.0000000  3.3472000  1
   2784   2779   2778   2791     1  0.0000000  0.0000000  2
   2784   2779   2778   2791     1  180.0000771  0.3347200  3
   2784   2779   2778   2792     1  0.0000000  3.3472000  1
   2784   2779   2778   2792     1  0.0000000  0.0000000  2
   2784   2779   2778   2792     1  180.0000771  0.3347200  3
   2784   2779  10001  10002     1  0.0000000  8.3680000  1
   2784   2779  10001  10002     1  180.0000771  10.4600000  2
   2785   2774   2773   2798     1  0.0000000  0.6508444  3
   2785   2774   2776   2789     1  0.0000000  0.6508444  3
   2785   2774   2776   2790     1  0.0000000  0.6508444  3
   2786   2774   2773   2798     1  0.0000000  0.6508444  3
   2786   2774   2776   2789     1  0.0000000  0.6508444  3
   2786   2774   2776   2790     1  0.0000000  0.6508444  3
   2787   2775   2773   2798     1  0.0000000  0.6508444  3
   2787   2775   2778   2791     1  0.0000000  0.6508444  3
   2787   2775   2778   2792     1  0.0000000  0.6508444  3
   2788   2775   2773   2798     1  0.0000000  0.6508444  3
   2788   2775   2778   2791     1  0.0000000  0.6508444  3
   2788   2775   2778   2792     1  0.0000000  0.6508444  3
   2789   2776   2777   9927     1  180.0000771  0.0000000  2
   2790   2776   2777   9927     1  180.0000771  0.0000000  2
   2791   2778   2779  10001     1  180.0000771  0.0000000  2
   2792   2778   2779  10001     1  180.0000771  0.0000000  2
   2793   2780   2773   2798     1  0.0000000  0.6508444  3
   2793   2780   2781   2795     1  0.0000000  0.6508444  3
   2793   2780   2781   2796     1  0.0000000  0.6508444  3
   2794   2780   2773   2798     1  0.0000000  0.6508444  3
   2794   2780   2781   2795     1  0.0000000  0.6508444  3
   2794   2780   2781   2796     1  0.0000000  0.6508444  3
   2795   2781   2782   2797     1  0.0000000  0.0000000  2
   2796   2781   2782   2797     1  0.0000000  0.0000000  2
   2799   2800   2802   2815     1  0.0000000  0.6508444  3
   2799   2800   2802   2816     1  0.0000000  0.6508444  3
   2799   2801   2804   2817     1  0.0000000  0.6508444  3
   2799   2801   2804   2818     1  0.0000000  0.6508444  3
   2799   2806   2807   2821     1  0.0000000  0.6508444  3
   2799   2806   2807   2822     1  0.0000000  0.6508444  3
   2800   2799   2801   2813     1  0.0000000  0.6508444  3
   2800   2799   2801   2814     1  0.0000000  0.6508444  3
   2800   2799   2806   2819     1  0.0000000  0.6508444  3
   2800   2799   2806   2820     1  0.0000000  0.6508444  3
   2801   2799   2800   2811     1  0.0000000  0.6508444  3
   2801   2799   2800   2812     1  0.0000000  0.6508444  3
   2801   2799   2806   2819     1  0.0000000  0.6508444  3
   2801   2799   2806   2820     1  0.0000000  0.6508444  3
   2802   2800   2799   2824     1  0.0000000  0.6508444  3
   2802   2803  10075  10076     1  180.0000771  10.4600000  2
   2803   2802   2800   2811     1  0.0000000  0.6508444  3
   2803   2802   2800   2812     1  0.0000000  0.6508444  3
   2803  10075  10077  10078     1  0.0000000  0.0000000  2
   2803  10075  10077  10080     1  0.0000000  0.0000000  2
   2804   2801   2799   2824     1  0.0000000  0.6508444  3
   2804   2805  10149  10150     1  180.0000771  10.4600000  2
   2805   2804   2801   2813     1  0.0000000  0.6508444  3
   2805   2804   2801   2814     1  0.0000000  0.6508444  3
   2805  10149  10151  10152     1  0.0000000  0.0000000  2
   2805  10149  10151  10154     1  0.0000000  0.0000000  2
   2806   2799   2800   2811     1  0.0000000  0.6508444  3
   2806   2799   2800   2812     1  0.0000000  0.6508444  3
   2806   2799   2801   2813     1  0.0000000  0.6508444  3
   2806   2799   2801   2814     1  0.0000000  0.6508444  3
   2806   2807   2808   2823     1  0.0000000  0.0000000  2
   2807   2806   2799   2824     1  0.0000000  0.6508444  3
   2808   2807   2806   2819     1  0.0000000  0.6508444  3
   2808   2807   2806   2820     1  0.0000000  0.6508444  3
   2809   2803   2802   2815     1  0.0000000  3.3472000  1
   2809   2803   2802   2815     1  0.0000000  0.0000000  2
   2809   2803   2802   2815     1  180.0000771  0.3347200  3
   2809   2803   2802   2816     1  0.0000000  3.3472000  1
   2809   2803   2802   2816     1  0.0000000  0.0000000  2
   2809   2803   2802   2816     1  180.0000771  0.3347200  3
   2809   2803  10075  10076     1  0.0000000  8.3680000  1
   2809   2803  10075  10076     1  180.0000771  10.4600000  2
   2810   2805   2804   2817     1  0.0000000  3.3472000  1
   2810   2805   2804   2817     1  0.0000000  0.0000000  2
   2810   2805   2804   2817     1  180.0000771  0.3347200  3
   2810   2805   2804   2818     1  0.0000000  3.3472000  1
   2810   2805   2804   2818     1  0.0000000  0.0000000  2
   2810   2805   2804   2818     1  180.0000771  0.3347200  3
   2810   2805  10149  10150     1  0.0000000  8.3680000  1
   2810   2805  10149  10150     1  180.0000771  10.4600000  2
   2811   2800   2799   2824     1  0.0000000  0.6508444  3
   2811   2800   2802   2815     1  0.0000000  0.6508444  3
   2811   2800   2802   2816     1  0.0000000  0.6508444  3
   2812   2800   2799   2824     1  0.0000000  0.6508444  3
   2812   2800   2802   2815     1  0.0000000  0.6508444  3
   2812   2800   2802   2816     1  0.0000000  0.6508444  3
   2813   2801   2799   2824     1  0.0000000  0.6508444  3
   2813   2801   2804   2817     1  0.0000000  0.6508444  3
   2813   2801   2804   2818     1  0.0000000  0.6508444  3
   2814   2801   2799   2824     1  0.0000000  0.6508444  3
   2814   2801   2804   2817     1  0.0000000  0.6508444  3
   2814   2801   2804   2818     1  0.0000000  0.6508444  3
   2815   2802   2803  10075     1  180.0000771  0.0000000  2
   2816   2802   2803  10075     1  180.0000771  0.0000000  2
   2817   2804   2805  10149     1  180.0000771  0.0000000  2
   2818   2804   2805  10149     1  180.0000771  0.0000000  2
   2819   2806   2799   2824     1  0.0000000  0.6508444  3
   2819   2806   2807   2821     1  0.0000000  0.6508444  3
   2819   2806   2807   2822     1  0.0000000  0.6508444  3
   2820   2806   2799   2824     1  0.0000000  0.6508444  3
   2820   2806   2807   2821     1  0.0000000  0.6508444  3
   2820   2806   2807   2822     1  0.0000000  0.6508444  3
   2821   2807   2808   2823     1  0.0000000  0.0000000  2
   2822   2807   2808   2823     1  0.0000000  0.0000000  2
   2825   2826   2828   2841     1  0.0000000  0.6508444  3
   2825   2826   2828   2842     1  0.0000000  0.6508444  3
   2825   2827   2830   2843     1  0.0000000  0.6508444  3
   2825   2827   2830   2844     1  0.0000000  0.6508444  3
   2825   2832   2833   2847     1  0.0000000  0.6508444  3
   2825   2832   2833   2848     1  0.0000000  0.6508444  3
   2826   2825   2827   2839     1  0.0000000  0.6508444  3
   2826   2825   2827   2840     1  0.0000000  0.6508444  3
   2826   2825   2832   2845     1  0.0000000  0.6508444  3
   2826   2825   2832   2846     1  0.0000000  0.6508444  3
   2827   2825   2826   2837     1  0.0000000  0.6508444  3
   2827   2825   2826   2838     1  0.0000000  0.6508444  3
   2827   2825   2832   2845     1  0.0000000  0.6508444  3
   2827   2825   2832   2846     1  0.0000000  0.6508444  3
   2828   2826   2825   2850     1  0.0000000  0.6508444  3
   2828   2829  10223  10224     1  180.0000771  10.4600000  2
   2829   2828   2826   2837     1  0.0000000  0.6508444  3
   2829   2828   2826   2838     1  0.0000000  0.6508444  3
   2829  10223  10225  10226     1  0.0000000  0.0000000  2
   2829  10223  10225  10228     1  0.0000000  0.0000000  2
   2830   2827   2825   2850     1  0.0000000  0.6508444  3
   2830   2831  10297  10298     1  180.0000771  10.4600000  2
   2831   2830   2827   2839     1  0.0000000  0.6508444  3
   2831   2830   2827   2840     1  0.0000000  0.6508444  3
   2831  10297  10299  10300     1  0.0000000  0.0000000  2
   2831  10297  10299  10302     1  0.0000000  0.0000000  2
   2832   2825   2826   2837     1  0.0000000  0.6508444  3
   2832   2825   2826   2838     1  0.0000000  0.6508444  3
   2832   2825   2827   2839     1  0.0000000  0.6508444  3
   2832   2825   2827   2840     1  0.0000000  0.6508444  3
   2832   2833   2834   2849     1  0.0000000  0.0000000  2
   2833   2832   2825   2850     1  0.0000000  0.6508444  3
   2834   2833   2832   2845     1  0.0000000  0.6508444  3
   2834   2833   2832   2846     1  0.0000000  0.6508444  3
   2835   2829   2828   2841     1  0.0000000  3.3472000  1
   2835   2829   2828   2841     1  0.0000000  0.0000000  2
   2835   2829   2828   2841     1  180.0000771  0.3347200  3
   2835   2829   2828   2842     1  0.0000000  3.3472000  1
   2835   2829   2828   2842     1  0.0000000  0.0000000  2
   2835   2829   2828   2842     1  180.0000771  0.3347200  3
   2835   2829  10223  10224     1  0.0000000  8.3680000  1
   2835   2829  10223  10224     1  180.0000771  10.4600000  2
   2836   2831   2830   2843     1  0.0000000  3.3472000  1
   2836   2831   2830   2843     1  0.0000000  0.0000000  2
   2836   2831   2830   2843     1  180.0000771  0.3347200  3
   2836   2831   2830   2844     1  0.0000000  3.3472000  1
   2836   2831   2830   2844     1  0.0000000  0.0000000  2
   2836   2831   2830   2844     1  180.0000771  0.3347200  3
   2836   2831  10297  10298     1  0.0000000  8.3680000  1
   2836   2831  10297  10298     1  180.0000771  10.4600000  2
   2837   2826   2825   2850     1  0.0000000  0.6508444  3
   2837   2826   2828   2841     1  0.0000000  0.6508444  3
   2837   2826   2828   2842     1  0.0000000  0.6508444  3
   2838   2826   2825   2850     1  0.0000000  0.6508444  3
   2838   2826   2828   2841     1  0.0000000  0.6508444  3
   2838   2826   2828   2842     1  0.0000000  0.6508444  3
   2839   2827   2825   2850     1  0.0000000  0.6508444  3
   2839   2827   2830   2843     1  0.0000000  0.6508444  3
   2839   2827   2830   2844     1  0.0000000  0.6508444  3
   2840   2827   2825   2850     1  0.0000000  0.6508444  3
   2840   2827   2830   2843     1  0.0000000  0.6508444  3
   2840   2827   2830   2844     1  0.0000000  0.6508444  3
   2841   2828   2829  10223     1  180.0000771  0.0000000  2
   2842   2828   2829  10223     1  180.0000771  0.0000000  2
   2843   2830   2831  10297     1  180.0000771  0.0000000  2
   2844   2830   2831  10297     1  180.0000771  0.0000000  2
   2845   2832   2825   2850     1  0.0000000  0.6508444  3
   2845   2832   2833   2847     1  0.0000000  0.6508444  3
   2845   2832   2833   2848     1  0.0000000  0.6508444  3
   2846   2832   2825   2850     1  0.0000000  0.6508444  3
   2846   2832   2833   2847     1  0.0000000  0.6508444  3
   2846   2832   2833   2848     1  0.0000000  0.6508444  3
   2847   2833   2834   2849     1  0.0000000  0.0000000  2
   2848   2833   2834   2849     1  0.0000000  0.0000000  2
   2851   2852   2854   2867     1  0.0000000  0.6508444  3
   2851   2852   2854   2868     1  0.0000000  0.6508444  3
   2851   2853   2856   2869     1  0.0000000  0.6508444  3
   2851   2853   2856   2870     1  0.0000000  0.6508444  3
   2851   2858   2859   2873     1  0.0000000  0.6508444  3
   2851   2858   2859   2874     1  0.0000000  0.6508444  3
   2852   2851   2853   2865     1  0.0000000  0.6508444  3
   2852   2851   2853   2866     1  0.0000000  0.6508444  3
   2852   2851   2858   2871     1  0.0000000  0.6508444  3
   2852   2851   2858   2872     1  0.0000000  0.6508444  3
   2853   2851   2852   2863     1  0.0000000  0.6508444  3
   2853   2851   2852   2864     1  0.0000000  0.6508444  3
   2853   2851   2858   2871     1  0.0000000  0.6508444  3
   2853   2851   2858   2872     1  0.0000000  0.6508444  3
   2854   2852   2851   2876     1  0.0000000  0.6508444  3
   2854   2855  10371  10372     1  180.0000771  10.4600000  2
   2855   2854   2852   2863     1  0.0000000  0.6508444  3
   2855   2854   2852   2864     1  0.0000000  0.6508444  3
   2855  10371  10373  10374     1  0.0000000  0.0000000  2
   2855  10371  10373  10376     1  0.0000000  0.0000000  2
   2856   2853   2851   2876     1  0.0000000  0.6508444  3
   2856   2857  10445  10446     1  180.0000771  10.4600000  2
   2857   2856   2853   2865     1  0.0000000  0.6508444  3
   2857   2856   2853   2866     1  0.0000000  0.6508444  3
   2857  10445  10447  10448     1  0.0000000  0.0000000  2
   2857  10445  10447  10450     1  0.0000000  0.0000000  2
   2858   2851   2852   2863     1  0.0000000  0.6508444  3
   2858   2851   2852   2864     1  0.0000000  0.6508444  3
   2858   2851   2853   2865     1  0.0000000  0.6508444  3
   2858   2851   2853   2866     1  0.0000000  0.6508444  3
   2858   2859   2860   2875     1  0.0000000  0.0000000  2
   2859   2858   2851   2876     1  0.0000000  0.6508444  3
   2860   2859   2858   2871     1  0.0000000  0.6508444  3
   2860   2859   2858   2872     1  0.0000000  0.6508444  3
   2861   2855   2854   2867     1  0.0000000  3.3472000  1
   2861   2855   2854   2867     1  0.0000000  0.0000000  2
   2861   2855   2854   2867     1  180.0000771  0.3347200  3
   2861   2855   2854   2868     1  0.0000000  3.3472000  1
   2861   2855   2854   2868     1  0.0000000  0.0000000  2
   2861   2855   2854   2868     1  180.0000771  0.3347200  3
   2861   2855  10371  10372     1  0.0000000  8.3680000  1
   2861   2855  10371  10372     1  180.0000771  10.4600000  2
   2862   2857   2856   2869     1  0.0000000  3.3472000  1
   2862   2857   2856   2869     1  0.0000000  0.0000000  2
   2862   2857   2856   2869     1  180.0000771  0.3347200  3
   2862   2857   2856   2870     1  0.0000000  3.3472000  1
   2862   2857   2856   2870     1  0.0000000  0.0000000  2
   2862   2857   2856   2870     1  180.0000771  0.3347200  3
   2862   2857  10445  10446     1  0.0000000  8.3680000  1
   2862   2857  10445  10446     1  180.0000771  10.4600000  2
   2863   2852   2851   2876     1  0.0000000  0.6508444  3
   2863   2852   2854   2867     1  0.0000000  0.6508444  3
   2863   2852   2854   2868     1  0.0000000  0.6508444  3
   2864   2852   2851   2876     1  0.0000000  0.6508444  3
   2864   2852   2854   2867     1  0.0000000  0.6508444  3
   2864   2852   2854   2868     1  0.0000000  0.6508444  3
   2865   2853   2851   2876     1  0.0000000  0.6508444  3
   2865   2853   2856   2869     1  0.0000000  0.6508444  3
   2865   2853   2856   2870     1  0.0000000  0.6508444  3
   2866   2853   2851   2876     1  0.0000000  0.6508444  3
   2866   2853   2856   2869     1  0.0000000  0.6508444  3
   2866   2853   2856   2870     1  0.0000000  0.6508444  3
   2867   2854   2855  10371     1  180.0000771  0.0000000  2
   2868   2854   2855  10371     1  180.0000771  0.0000000  2
   2869   2856   2857  10445     1  180.0000771  0.0000000  2
   2870   2856   2857  10445     1  180.0000771  0.0000000  2
   2871   2858   2851   2876     1  0.0000000  0.6508444  3
   2871   2858   2859   2873     1  0.0000000  0.6508444  3
   2871   2858   2859   2874     1  0.0000000  0.6508444  3
   2872   2858   2851   2876     1  0.0000000  0.6508444  3
   2872   2858   2859   2873     1  0.0000000  0.6508444  3
   2872   2858   2859   2874     1  0.0000000  0.6508444  3
   2873   2859   2860   2875     1  0.0000000  0.0000000  2
   2874   2859   2860   2875     1  0.0000000  0.0000000  2
   2877   2878   2880   2893     1  0.0000000  0.6508444  3
   2877   2878   2880   2894     1  0.0000000  0.6508444  3
   2877   2879   2882   2895     1  0.0000000  0.6508444  3
   2877   2879   2882   2896     1  0.0000000  0.6508444  3
   2877   2884   2885   2899     1  0.0000000  0.6508444  3
   2877   2884   2885   2900     1  0.0000000  0.6508444  3
   2878   2877   2879   2891     1  0.0000000  0.6508444  3
   2878   2877   2879   2892     1  0.0000000  0.6508444  3
   2878   2877   2884   2897     1  0.0000000  0.6508444  3
   2878   2877   2884   2898     1  0.0000000  0.6508444  3
   2879   2877   2878   2889     1  0.0000000  0.6508444  3
   2879   2877   2878   2890     1  0.0000000  0.6508444  3
   2879   2877   2884   2897     1  0.0000000  0.6508444  3
   2879   2877   2884   2898     1  0.0000000  0.6508444  3
   2880   2878   2877   2902     1  0.0000000  0.6508444  3
   2880   2881  10519  10520     1  180.0000771  10.4600000  2
   2881   2880   2878   2889     1  0.0000000  0.6508444  3
   2881   2880   2878   2890     1  0.0000000  0.6508444  3
   2881  10519  10521  10522     1  0.0000000  0.0000000  2
   2881  10519  10521  10524     1  0.0000000  0.0000000  2
   2882   2879   2877   2902     1  0.0000000  0.6508444  3
   2882   2883  10593  10594     1  180.0000771  10.4600000  2
   2883   2882   2879   2891     1  0.0000000  0.6508444  3
   2883   2882   2879   2892     1  0.0000000  0.6508444  3
   2883  10593  10595  10596     1  0.0000000  0.0000000  2
   2883  10593  10595  10598     1  0.0000000  0.0000000  2
   2884   2877   2878   2889     1  0.0000000  0.6508444  3
   2884   2877   2878   2890     1  0.0000000  0.6508444  3
   2884   2877   2879   2891     1  0.0000000  0.6508444  3
   2884   2877   2879   2892     1  0.0000000  0.6508444  3
   2884   2885   2886   2901     1  0.0000000  0.0000000  2
   2885   2884   2877   2902     1  0.0000000  0.6508444  3
   2886   2885   2884   2897     1  0.0000000  0.6508444  3
   2886   2885   2884   2898     1  0.0000000  0.6508444  3
   2887   2881   2880   2893     1  0.0000000  3.3472000  1
   2887   2881   2880   2893     1  0.0000000  0.0000000  2
   2887   2881   2880   2893     1  180.0000771  0.3347200  3
   2887   2881   2880   2894     1  0.0000000  3.3472000  1
   2887   2881   2880   2894     1  0.0000000  0.0000000  2
   2887   2881   2880   2894     1  180.0000771  0.3347200  3
   2887   2881  10519  10520     1  0.0000000  8.3680000  1
   2887   2881  10519  10520     1  180.0000771  10.4600000  2
   2888   2883   2882   2895     1  0.0000000  3.3472000  1
   2888   2883   2882   2895     1  0.0000000  0.0000000  2
   2888   2883   2882   2895     1  180.0000771  0.3347200  3
   2888   2883   2882   2896     1  0.0000000  3.3472000  1
   2888   2883   2882   2896     1  0.0000000  0.0000000  2
   2888   2883   2882   2896     1  180.0000771  0.3347200  3
   2888   2883  10593  10594     1  0.0000000  8.3680000  1
   2888   2883  10593  10594     1  180.0000771  10.4600000  2
   2889   2878   2877   2902     1  0.0000000  0.6508444  3
   2889   2878   2880   2893     1  0.0000000  0.6508444  3
   2889   2878   2880   2894     1  0.0000000  0.6508444  3
   2890   2878   2877   2902     1  0.0000000  0.6508444  3
   2890   2878   2880   2893     1  0.0000000  0.6508444  3
   2890   2878   2880   2894     1  0.0000000  0.6508444  3
   2891   2879   2877   2902     1  0.0000000  0.6508444  3
   2891   2879   2882   2895     1  0.0000000  0.6508444  3
   2891   2879   2882   2896     1  0.0000000  0.6508444  3
   2892   2879   2877   2902     1  0.0000000  0.6508444  3
   2892   2879   2882   2895     1  0.0000000  0.6508444  3
   2892   2879   2882   2896     1  0.0000000  0.6508444  3
   2893   2880   2881  10519     1  180.0000771  0.0000000  2
   2894   2880   2881  10519     1  180.0000771  0.0000000  2
   2895   2882   2883  10593     1  180.0000771  0.0000000  2
   2896   2882   2883  10593     1  180.0000771  0.0000000  2
   2897   2884   2877   2902     1  0.0000000  0.6508444  3
   2897   2884   2885   2899     1  0.0000000  0.6508444  3
   2897   2884   2885   2900     1  0.0000000  0.6508444  3
   2898   2884   2877   2902     1  0.0000000  0.6508444  3
   2898   2884   2885   2899     1  0.0000000  0.6508444  3
   2898   2884   2885   2900     1  0.0000000  0.6508444  3
   2899   2885   2886   2901     1  0.0000000  0.0000000  2
   2900   2885   2886   2901     1  0.0000000  0.0000000  2
   2903   2904   2906   2919     1  0.0000000  0.6508444  3
   2903   2904   2906   2920     1  0.0000000  0.6508444  3
   2903   2905   2908   2921     1  0.0000000  0.6508444  3
   2903   2905   2908   2922     1  0.0000000  0.6508444  3
   2903   2910   2911   2925     1  0.0000000  0.6508444  3
   2903   2910   2911   2926     1  0.0000000  0.6508444  3
   2904   2903   2905   2917     1  0.0000000  0.6508444  3
   2904   2903   2905   2918     1  0.0000000  0.6508444  3
   2904   2903   2910   2923     1  0.0000000  0.6508444  3
   2904   2903   2910   2924     1  0.0000000  0.6508444  3
   2905   2903   2904   2915     1  0.0000000  0.6508444  3
   2905   2903   2904   2916     1  0.0000000  0.6508444  3
   2905   2903   2910   2923     1  0.0000000  0.6508444  3
   2905   2903   2910   2924     1  0.0000000  0.6508444  3
   2906   2904   2903   2928     1  0.0000000  0.6508444  3
   2906   2907  10667  10668     1  180.0000771  10.4600000  2
   2907   2906   2904   2915     1  0.0000000  0.6508444  3
   2907   2906   2904   2916     1  0.0000000  0.6508444  3
   2907  10667  10669  10670     1  0.0000000  0.0000000  2
   2907  10667  10669  10672     1  0.0000000  0.0000000  2
   2908   2905   2903   2928     1  0.0000000  0.6508444  3
   2908   2909  10741  10742     1  180.0000771  10.4600000  2
   2909   2908   2905   2917     1  0.0000000  0.6508444  3
   2909   2908   2905   2918     1  0.0000000  0.6508444  3
   2909  10741  10743  10744     1  0.0000000  0.0000000  2
   2909  10741  10743  10746     1  0.0000000  0.0000000  2
   2910   2903   2904   2915     1  0.0000000  0.6508444  3
   2910   2903   2904   2916     1  0.0000000  0.6508444  3
   2910   2903   2905   2917     1  0.0000000  0.6508444  3
   2910   2903   2905   2918     1  0.0000000  0.6508444  3
   2910   2911   2912   2927     1  0.0000000  0.0000000  2
   2911   2910   2903   2928     1  0.0000000  0.6508444  3
   2912   2911   2910   2923     1  0.0000000  0.6508444  3
   2912   2911   2910   2924     1  0.0000000  0.6508444  3
   2913   2907   2906   2919     1  0.0000000  3.3472000  1
   2913   2907   2906   2919     1  0.0000000  0.0000000  2
   2913   2907   2906   2919     1  180.0000771  0.3347200  3
   2913   2907   2906   2920     1  0.0000000  3.3472000  1
   2913   2907   2906   2920     1  0.0000000  0.0000000  2
   2913   2907   2906   2920     1  180.0000771  0.3347200  3
   2913   2907  10667  10668     1  0.0000000  8.3680000  1
   2913   2907  10667  10668     1  180.0000771  10.4600000  2
   2914   2909   2908   2921     1  0.0000000  3.3472000  1
   2914   2909   2908   2921     1  0.0000000  0.0000000  2
   2914   2909   2908   2921     1  180.0000771  0.3347200  3
   2914   2909   2908   2922     1  0.0000000  3.3472000  1
   2914   2909   2908   2922     1  0.0000000  0.0000000  2
   2914   2909   2908   2922     1  180.0000771  0.3347200  3
   2914   2909  10741  10742     1  0.0000000  8.3680000  1
   2914   2909  10741  10742     1  180.0000771  10.4600000  2
   2915   2904   2903   2928     1  0.0000000  0.6508444  3
   2915   2904   2906   2919     1  0.0000000  0.6508444  3
   2915   2904   2906   2920     1  0.0000000  0.6508444  3
   2916   2904   2903   2928     1  0.0000000  0.6508444  3
   2916   2904   2906   2919     1  0.0000000  0.6508444  3
   2916   2904   2906   2920     1  0.0000000  0.6508444  3
   2917   2905   2903   2928     1  0.0000000  0.6508444  3
   2917   2905   2908   2921     1  0.0000000  0.6508444  3
   2917   2905   2908   2922     1  0.0000000  0.6508444  3
   2918   2905   2903   2928     1  0.0000000  0.6508444  3
   2918   2905   2908   2921     1  0.0000000  0.6508444  3
   2918   2905   2908   2922     1  0.0000000  0.6508444  3
   2919   2906   2907  10667     1  180.0000771  0.0000000  2
   2920   2906   2907  10667     1  180.0000771  0.0000000  2
   2921   2908   2909  10741     1  180.0000771  0.0000000  2
   2922   2908   2909  10741     1  180.0000771  0.0000000  2
   2923   2910   2903   2928     1  0.0000000  0.6508444  3
   2923   2910   2911   2925     1  0.0000000  0.6508444  3
   2923   2910   2911   2926     1  0.0000000  0.6508444  3
   2924   2910   2903   2928     1  0.0000000  0.6508444  3
   2924   2910   2911   2925     1  0.0000000  0.6508444  3
   2924   2910   2911   2926     1  0.0000000  0.6508444  3
   2925   2911   2912   2927     1  0.0000000  0.0000000  2
   2926   2911   2912   2927     1  0.0000000  0.0000000  2
   2929   2930   2932   2945     1  0.0000000  0.6508444  3
   2929   2930   2932   2946     1  0.0000000  0.6508444  3
   2929   2931   2934   2947     1  0.0000000  0.6508444  3
   2929   2931   2934   2948     1  0.0000000  0.6508444  3
   2929   2936   2937   2951     1  0.0000000  0.6508444  3
   2929   2936   2937   2952     1  0.0000000  0.6508444  3
   2930   2929   2931   2943     1  0.0000000  0.6508444  3
   2930   2929   2931   2944     1  0.0000000  0.6508444  3
   2930   2929   2936   2949     1  0.0000000  0.6508444  3
   2930   2929   2936   2950     1  0.0000000  0.6508444  3
   2931   2929   2930   2941     1  0.0000000  0.6508444  3
   2931   2929   2930   2942     1  0.0000000  0.6508444  3
   2931   2929   2936   2949     1  0.0000000  0.6508444  3
   2931   2929   2936   2950     1  0.0000000  0.6508444  3
   2932   2930   2929   2954     1  0.0000000  0.6508444  3
   2932   2933  10815  10816     1  180.0000771  10.4600000  2
   2933   2932   2930   2941     1  0.0000000  0.6508444  3
   2933   2932   2930   2942     1  0.0000000  0.6508444  3
   2933  10815  10817  10818     1  0.0000000  0.0000000  2
   2933  10815  10817  10820     1  0.0000000  0.0000000  2
   2934   2931   2929   2954     1  0.0000000  0.6508444  3
   2934   2935  10889  10890     1  180.0000771  10.4600000  2
   2935   2934   2931   2943     1  0.0000000  0.6508444  3
   2935   2934   2931   2944     1  0.0000000  0.6508444  3
   2935  10889  10891  10892     1  0.0000000  0.0000000  2
   2935  10889  10891  10894     1  0.0000000  0.0000000  2
   2936   2929   2930   2941     1  0.0000000  0.6508444  3
   2936   2929   2930   2942     1  0.0000000  0.6508444  3
   2936   2929   2931   2943     1  0.0000000  0.6508444  3
   2936   2929   2931   2944     1  0.0000000  0.6508444  3
   2936   2937   2938   2953     1  0.0000000  0.0000000  2
   2937   2936   2929   2954     1  0.0000000  0.6508444  3
   2938   2937   2936   2949     1  0.0000000  0.6508444  3
   2938   2937   2936   2950     1  0.0000000  0.6508444  3
   2939   2933   2932   2945     1  0.0000000  3.3472000  1
   2939   2933   2932   2945     1  0.0000000  0.0000000  2
   2939   2933   2932   2945     1  180.0000771  0.3347200  3
   2939   2933   2932   2946     1  0.0000000  3.3472000  1
   2939   2933   2932   2946     1  0.0000000  0.0000000  2
   2939   2933   2932   2946     1  180.0000771  0.3347200  3
   2939   2933  10815  10816     1  0.0000000  8.3680000  1
   2939   2933  10815  10816     1  180.0000771  10.4600000  2
   2940   2935   2934   2947     1  0.0000000  3.3472000  1
   2940   2935   2934   2947     1  0.0000000  0.0000000  2
   2940   2935   2934   2947     1  180.0000771  0.3347200  3
   2940   2935   2934   2948     1  0.0000000  3.3472000  1
   2940   2935   2934   2948     1  0.0000000  0.0000000  2
   2940   2935   2934   2948     1  180.0000771  0.3347200  3
   2940   2935  10889  10890     1  0.0000000  8.3680000  1
   2940   2935  10889  10890     1  180.0000771  10.4600000  2
   2941   2930   2929   2954     1  0.0000000  0.6508444  3
   2941   2930   2932   2945     1  0.0000000  0.6508444  3
   2941   2930   2932   2946     1  0.0000000  0.6508444  3
   2942   2930   2929   2954     1  0.0000000  0.6508444  3
   2942   2930   2932   2945     1  0.0000000  0.6508444  3
   2942   2930   2932   2946     1  0.0000000  0.6508444  3
   2943   2931   2929   2954     1  0.0000000  0.6508444  3
   2943   2931   2934   2947     1  0.0000000  0.6508444  3
   2943   2931   2934   2948     1  0.0000000  0.6508444  3
   2944   2931   2929   2954     1  0.0000000  0.6508444  3
   2944   2931   2934   2947     1  0.0000000  0.6508444  3
   2944   2931   2934   2948     1  0.0000000  0.6508444  3
   2945   2932   2933  10815     1  180.0000771  0.0000000  2
   2946   2932   2933  10815     1  180.0000771  0.0000000  2
   2947   2934   2935  10889     1  180.0000771  0.0000000  2
   2948   2934   2935  10889     1  180.0000771  0.0000000  2
   2949   2936   2929   2954     1  0.0000000  0.6508444  3
   2949   2936   2937   2951     1  0.0000000  0.6508444  3
   2949   2936   2937   2952     1  0.0000000  0.6508444  3
   2950   2936   2929   2954     1  0.0000000  0.6508444  3
   2950   2936   2937   2951     1  0.0000000  0.6508444  3
   2950   2936   2937   2952     1  0.0000000  0.6508444  3
   2951   2937   2938   2953     1  0.0000000  0.0000000  2
   2952   2937   2938   2953     1  0.0000000  0.0000000  2
   2955   2956   2958   2971     1  0.0000000  0.6508444  3
   2955   2956   2958   2972     1  0.0000000  0.6508444  3
   2955   2957   2960   2973     1  0.0000000  0.6508444  3
   2955   2957   2960   2974     1  0.0000000  0.6508444  3
   2955   2962   2963   2977     1  0.0000000  0.6508444  3
   2955   2962   2963   2978     1  0.0000000  0.6508444  3
   2956   2955   2957   2969     1  0.0000000  0.6508444  3
   2956   2955   2957   2970     1  0.0000000  0.6508444  3
   2956   2955   2962   2975     1  0.0000000  0.6508444  3
   2956   2955   2962   2976     1  0.0000000  0.6508444  3
   2957   2955   2956   2967     1  0.0000000  0.6508444  3
   2957   2955   2956   2968     1  0.0000000  0.6508444  3
   2957   2955   2962   2975     1  0.0000000  0.6508444  3
   2957   2955   2962   2976     1  0.0000000  0.6508444  3
   2958   2956   2955   2980     1  0.0000000  0.6508444  3
   2958   2959  10963  10964     1  180.0000771  10.4600000  2
   2959   2958   2956   2967     1  0.0000000  0.6508444  3
   2959   2958   2956   2968     1  0.0000000  0.6508444  3
   2959  10963  10965  10966     1  0.0000000  0.0000000  2
   2959  10963  10965  10968     1  0.0000000  0.0000000  2
   2960   2957   2955   2980     1  0.0000000  0.6508444  3
   2960   2961  11037  11038     1  180.0000771  10.4600000  2
   2961   2960   2957   2969     1  0.0000000  0.6508444  3
   2961   2960   2957   2970     1  0.0000000  0.6508444  3
   2961  11037  11039  11040     1  0.0000000  0.0000000  2
   2961  11037  11039  11042     1  0.0000000  0.0000000  2
   2962   2955   2956   2967     1  0.0000000  0.6508444  3
   2962   2955   2956   2968     1  0.0000000  0.6508444  3
   2962   2955   2957   2969     1  0.0000000  0.6508444  3
   2962   2955   2957   2970     1  0.0000000  0.6508444  3
   2962   2963   2964   2979     1  0.0000000  0.0000000  2
   2963   2962   2955   2980     1  0.0000000  0.6508444  3
   2964   2963   2962   2975     1  0.0000000  0.6508444  3
   2964   2963   2962   2976     1  0.0000000  0.6508444  3
   2965   2959   2958   2971     1  0.0000000  3.3472000  1
   2965   2959   2958   2971     1  0.0000000  0.0000000  2
   2965   2959   2958   2971     1  180.0000771  0.3347200  3
   2965   2959   2958   2972     1  0.0000000  3.3472000  1
   2965   2959   2958   2972     1  0.0000000  0.0000000  2
   2965   2959   2958   2972     1  180.0000771  0.3347200  3
   2965   2959  10963  10964     1  0.0000000  8.3680000  1
   2965   2959  10963  10964     1  180.0000771  10.4600000  2
   2966   2961   2960   2973     1  0.0000000  3.3472000  1
   2966   2961   2960   2973     1  0.0000000  0.0000000  2
   2966   2961   2960   2973     1  180.0000771  0.3347200  3
   2966   2961   2960   2974     1  0.0000000  3.3472000  1
   2966   2961   2960   2974     1  0.0000000  0.0000000  2
   2966   2961   2960   2974     1  180.0000771  0.3347200  3
   2966   2961  11037  11038     1  0.0000000  8.3680000  1
   2966   2961  11037  11038     1  180.0000771  10.4600000  2
   2967   2956   2955   2980     1  0.0000000  0.6508444  3
   2967   2956   2958   2971     1  0.0000000  0.6508444  3
   2967   2956   2958   2972     1  0.0000000  0.6508444  3
   2968   2956   2955   2980     1  0.0000000  0.6508444  3
   2968   2956   2958   2971     1  0.0000000  0.6508444  3
   2968   2956   2958   2972     1  0.0000000  0.6508444  3
   2969   2957   2955   2980     1  0.0000000  0.6508444  3
   2969   2957   2960   2973     1  0.0000000  0.6508444  3
   2969   2957   2960   2974     1  0.0000000  0.6508444  3
   2970   2957   2955   2980     1  0.0000000  0.6508444  3
   2970   2957   2960   2973     1  0.0000000  0.6508444  3
   2970   2957   2960   2974     1  0.0000000  0.6508444  3
   2971   2958   2959  10963     1  180.0000771  0.0000000  2
   2972   2958   2959  10963     1  180.0000771  0.0000000  2
   2973   2960   2961  11037     1  180.0000771  0.0000000  2
   2974   2960   2961  11037     1  180.0000771  0.0000000  2
   2975   2962   2955   2980     1  0.0000000  0.6508444  3
   2975   2962   2963   2977     1  0.0000000  0.6508444  3
   2975   2962   2963   2978     1  0.0000000  0.6508444  3
   2976   2962   2955   2980     1  0.0000000  0.6508444  3
   2976   2962   2963   2977     1  0.0000000  0.6508444  3
   2976   2962   2963   2978     1  0.0000000  0.6508444  3
   2977   2963   2964   2979     1  0.0000000  0.0000000  2
   2978   2963   2964   2979     1  0.0000000  0.0000000  2
   2981   2982   2984   2997     1  0.0000000  0.6508444  3
   2981   2982   2984   2998     1  0.0000000  0.6508444  3
   2981   2983   2986   2999     1  0.0000000  0.6508444  3
   2981   2983   2986   3000     1  0.0000000  0.6508444  3
   2981   2988   2989   3003     1  0.0000000  0.6508444  3
   2981   2988   2989   3004     1  0.0000000  0.6508444  3
   2982   2981   2983   2995     1  0.0000000  0.6508444  3
   2982   2981   2983   2996     1  0.0000000  0.6508444  3
   2982   2981   2988   3001     1  0.0000000  0.6508444  3
   2982   2981   2988   3002     1  0.0000000  0.6508444  3
   2983   2981   2982   2993     1  0.0000000  0.6508444  3
   2983   2981   2982   2994     1  0.0000000  0.6508444  3
   2983   2981   2988   3001     1  0.0000000  0.6508444  3
   2983   2981   2988   3002     1  0.0000000  0.6508444  3
   2984   2982   2981   3006     1  0.0000000  0.6508444  3
   2984   2985  11111  11112     1  180.0000771  10.4600000  2
   2985   2984   2982   2993     1  0.0000000  0.6508444  3
   2985   2984   2982   2994     1  0.0000000  0.6508444  3
   2985  11111  11113  11114     1  0.0000000  0.0000000  2
   2985  11111  11113  11116     1  0.0000000  0.0000000  2
   2986   2983   2981   3006     1  0.0000000  0.6508444  3
   2986   2987  11185  11186     1  180.0000771  10.4600000  2
   2987   2986   2983   2995     1  0.0000000  0.6508444  3
   2987   2986   2983   2996     1  0.0000000  0.6508444  3
   2987  11185  11187  11188     1  0.0000000  0.0000000  2
   2987  11185  11187  11190     1  0.0000000  0.0000000  2
   2988   2981   2982   2993     1  0.0000000  0.6508444  3
   2988   2981   2982   2994     1  0.0000000  0.6508444  3
   2988   2981   2983   2995     1  0.0000000  0.6508444  3
   2988   2981   2983   2996     1  0.0000000  0.6508444  3
   2988   2989   2990   3005     1  0.0000000  0.0000000  2
   2989   2988   2981   3006     1  0.0000000  0.6508444  3
   2990   2989   2988   3001     1  0.0000000  0.6508444  3
   2990   2989   2988   3002     1  0.0000000  0.6508444  3
   2991   2985   2984   2997     1  0.0000000  3.3472000  1
   2991   2985   2984   2997     1  0.0000000  0.0000000  2
   2991   2985   2984   2997     1  180.0000771  0.3347200  3
   2991   2985   2984   2998     1  0.0000000  3.3472000  1
   2991   2985   2984   2998     1  0.0000000  0.0000000  2
   2991   2985   2984   2998     1  180.0000771  0.3347200  3
   2991   2985  11111  11112     1  0.0000000  8.3680000  1
   2991   2985  11111  11112     1  180.0000771  10.4600000  2
   2992   2987   2986   2999     1  0.0000000  3.3472000  1
   2992   2987   2986   2999     1  0.0000000  0.0000000  2
   2992   2987   2986   2999     1  180.0000771  0.3347200  3
   2992   2987   2986   3000     1  0.0000000  3.3472000  1
   2992   2987   2986   3000     1  0.0000000  0.0000000  2
   2992   2987   2986   3000     1  180.0000771  0.3347200  3
   2992   2987  11185  11186     1  0.0000000  8.3680000  1
   2992   2987  11185  11186     1  180.0000771  10.4600000  2
   2993   2982   2981   3006     1  0.0000000  0.6508444  3
   2993   2982   2984   2997     1  0.0000000  0.6508444  3
   2993   2982   2984   2998     1  0.0000000  0.6508444  3
   2994   2982   2981   3006     1  0.0000000  0.6508444  3
   2994   2982   2984   2997     1  0.0000000  0.6508444  3
   2994   2982   2984   2998     1  0.0000000  0.6508444  3
   2995   2983   2981   3006     1  0.0000000  0.6508444  3
   2995   2983   2986   2999     1  0.0000000  0.6508444  3
   2995   2983   2986   3000     1  0.0000000  0.6508444  3
   2996   2983   2981   3006     1  0.0000000  0.6508444  3
   2996   2983   2986   2999     1  0.0000000  0.6508444  3
   2996   2983   2986   3000     1  0.0000000  0.6508444  3
   2997   2984   2985  11111     1  180.0000771  0.0000000  2
   2998   2984   2985  11111     1  180.0000771  0.0000000  2
   2999   2986   2987  11185     1  180.0000771  0.0000000  2
   3000   2986   2987  11185     1  180.0000771  0.0000000  2
   3001   2988   2981   3006     1  0.0000000  0.6508444  3
   3001   2988   2989   3003     1  0.0000000  0.6508444  3
   3001   2988   2989   3004     1  0.0000000  0.6508444  3
   3002   2988   2981   3006     1  0.0000000  0.6508444  3
   3002   2988   2989   3003     1  0.0000000  0.6508444  3
   3002   2988   2989   3004     1  0.0000000  0.6508444  3
   3003   2989   2990   3005     1  0.0000000  0.0000000  2
   3004   2989   2990   3005     1  0.0000000  0.0000000  2
   3007   3008   3010   3023     1  0.0000000  0.6508444  3
   3007   3008   3010   3024     1  0.0000000  0.6508444  3
   3007   3009   3012   3025     1  0.0000000  0.6508444  3
   3007   3009   3012   3026     1  0.0000000  0.6508444  3
   3007   3014   3015   3029     1  0.0000000  0.6508444  3
   3007   3014   3015   3030     1  0.0000000  0.6508444  3
   3008   3007   3009   3021     1  0.0000000  0.6508444  3
   3008   3007   3009   3022     1  0.0000000  0.6508444  3
   3008   3007   3014   3027     1  0.0000000  0.6508444  3
   3008   3007   3014   3028     1  0.0000000  0.6508444  3
   3009   3007   3008   3019     1  0.0000000  0.6508444  3
   3009   3007   3008   3020     1  0.0000000  0.6508444  3
   3009   3007   3014   3027     1  0.0000000  0.6508444  3
   3009   3007   3014   3028     1  0.0000000  0.6508444  3
   3010   3008   3007   3032     1  0.0000000  0.6508444  3
   3010   3011  11259  11260     1  180.0000771  10.4600000  2
   3011   3010   3008   3019     1  0.0000000  0.6508444  3
   3011   3010   3008   3020     1  0.0000000  0.6508444  3
   3011  11259  11261  11262     1  0.0000000  0.0000000  2
   3011  11259  11261  11264     1  0.0000000  0.0000000  2
   3012   3009   3007   3032     1  0.0000000  0.6508444  3
   3012   3013  11333  11334     1  180.0000771  10.4600000  2
   3013   3012   3009   3021     1  0.0000000  0.6508444  3
   3013   3012   3009   3022     1  0.0000000  0.6508444  3
   3013  11333  11335  11336     1  0.0000000  0.0000000  2
   3013  11333  11335  11338     1  0.0000000  0.0000000  2
   3014   3007   3008   3019     1  0.0000000  0.6508444  3
   3014   3007   3008   3020     1  0.0000000  0.6508444  3
   3014   3007   3009   3021     1  0.0000000  0.6508444  3
   3014   3007   3009   3022     1  0.0000000  0.6508444  3
   3014   3015   3016   3031     1  0.0000000  0.0000000  2
   3015   3014   3007   3032     1  0.0000000  0.6508444  3
   3016   3015   3014   3027     1  0.0000000  0.6508444  3
   3016   3015   3014   3028     1  0.0000000  0.6508444  3
   3017   3011   3010   3023     1  0.0000000  3.3472000  1
   3017   3011   3010   3023     1  0.0000000  0.0000000  2
   3017   3011   3010   3023     1  180.0000771  0.3347200  3
   3017   3011   3010   3024     1  0.0000000  3.3472000  1
   3017   3011   3010   3024     1  0.0000000  0.0000000  2
   3017   3011   3010   3024     1  180.0000771  0.3347200  3
   3017   3011  11259  11260     1  0.0000000  8.3680000  1
   3017   3011  11259  11260     1  180.0000771  10.4600000  2
   3018   3013   3012   3025     1  0.0000000  3.3472000  1
   3018   3013   3012   3025     1  0.0000000  0.0000000  2
   3018   3013   3012   3025     1  180.0000771  0.3347200  3
   3018   3013   3012   3026     1  0.0000000  3.3472000  1
   3018   3013   3012   3026     1  0.0000000  0.0000000  2
   3018   3013   3012   3026     1  180.0000771  0.3347200  3
   3018   3013  11333  11334     1  0.0000000  8.3680000  1
   3018   3013  11333  11334     1  180.0000771  10.4600000  2
   3019   3008   3007   3032     1  0.0000000  0.6508444  3
   3019   3008   3010   3023     1  0.0000000  0.6508444  3
   3019   3008   3010   3024     1  0.0000000  0.6508444  3
   3020   3008   3007   3032     1  0.0000000  0.6508444  3
   3020   3008   3010   3023     1  0.0000000  0.6508444  3
   3020   3008   3010   3024     1  0.0000000  0.6508444  3
   3021   3009   3007   3032     1  0.0000000  0.6508444  3
   3021   3009   3012   3025     1  0.0000000  0.6508444  3
   3021   3009   3012   3026     1  0.0000000  0.6508444  3
   3022   3009   3007   3032     1  0.0000000  0.6508444  3
   3022   3009   3012   3025     1  0.0000000  0.6508444  3
   3022   3009   3012   3026     1  0.0000000  0.6508444  3
   3023   3010   3011  11259     1  180.0000771  0.0000000  2
   3024   3010   3011  11259     1  180.0000771  0.0000000  2
   3025   3012   3013  11333     1  180.0000771  0.0000000  2
   3026   3012   3013  11333     1  180.0000771  0.0000000  2
   3027   3014   3007   3032     1  0.0000000  0.6508444  3
   3027   3014   3015   3029     1  0.0000000  0.6508444  3
   3027   3014   3015   3030     1  0.0000000  0.6508444  3
   3028   3014   3007   3032     1  0.0000000  0.6508444  3
   3028   3014   3015   3029     1  0.0000000  0.6508444  3
   3028   3014   3015   3030     1  0.0000000  0.6508444  3
   3029   3015   3016   3031     1  0.0000000  0.0000000  2
   3030   3015   3016   3031     1  0.0000000  0.0000000  2
   3033   3034   3036   3049     1  0.0000000  0.6508444  3
   3033   3034   3036   3050     1  0.0000000  0.6508444  3
   3033   3035   3038   3051     1  0.0000000  0.6508444  3
   3033   3035   3038   3052     1  0.0000000  0.6508444  3
   3033   3040   3041   3055     1  0.0000000  0.6508444  3
   3033   3040   3041   3056     1  0.0000000  0.6508444  3
   3034   3033   3035   3047     1  0.0000000  0.6508444  3
   3034   3033   3035   3048     1  0.0000000  0.6508444  3
   3034   3033   3040   3053     1  0.0000000  0.6508444  3
   3034   3033   3040   3054     1  0.0000000  0.6508444  3
   3035   3033   3034   3045     1  0.0000000  0.6508444  3
   3035   3033   3034   3046     1  0.0000000  0.6508444  3
   3035   3033   3040   3053     1  0.0000000  0.6508444  3
   3035   3033   3040   3054     1  0.0000000  0.6508444  3
   3036   3034   3033   3058     1  0.0000000  0.6508444  3
   3036   3037  11407  11408     1  180.0000771  10.4600000  2
   3037   3036   3034   3045     1  0.0000000  0.6508444  3
   3037   3036   3034   3046     1  0.0000000  0.6508444  3
   3037  11407  11409  11410     1  0.0000000  0.0000000  2
   3037  11407  11409  11412     1  0.0000000  0.0000000  2
   3038   3035   3033   3058     1  0.0000000  0.6508444  3
   3038   3039  11481  11482     1  180.0000771  10.4600000  2
   3039   3038   3035   3047     1  0.0000000  0.6508444  3
   3039   3038   3035   3048     1  0.0000000  0.6508444  3
   3039  11481  11483  11484     1  0.0000000  0.0000000  2
   3039  11481  11483  11486     1  0.0000000  0.0000000  2
   3040   3033   3034   3045     1  0.0000000  0.6508444  3
   3040   3033   3034   3046     1  0.0000000  0.6508444  3
   3040   3033   3035   3047     1  0.0000000  0.6508444  3
   3040   3033   3035   3048     1  0.0000000  0.6508444  3
   3040   3041   3042   3057     1  0.0000000  0.0000000  2
   3041   3040   3033   3058     1  0.0000000  0.6508444  3
   3042   3041   3040   3053     1  0.0000000  0.6508444  3
   3042   3041   3040   3054     1  0.0000000  0.6508444  3
   3043   3037   3036   3049     1  0.0000000  3.3472000  1
   3043   3037   3036   3049     1  0.0000000  0.0000000  2
   3043   3037   3036   3049     1  180.0000771  0.3347200  3
   3043   3037   3036   3050     1  0.0000000  3.3472000  1
   3043   3037   3036   3050     1  0.0000000  0.0000000  2
   3043   3037   3036   3050     1  180.0000771  0.3347200  3
   3043   3037  11407  11408     1  0.0000000  8.3680000  1
   3043   3037  11407  11408     1  180.0000771  10.4600000  2
   3044   3039   3038   3051     1  0.0000000  3.3472000  1
   3044   3039   3038   3051     1  0.0000000  0.0000000  2
   3044   3039   3038   3051     1  180.0000771  0.3347200  3
   3044   3039   3038   3052     1  0.0000000  3.3472000  1
   3044   3039   3038   3052     1  0.0000000  0.0000000  2
   3044   3039   3038   3052     1  180.0000771  0.3347200  3
   3044   3039  11481  11482     1  0.0000000  8.3680000  1
   3044   3039  11481  11482     1  180.0000771  10.4600000  2
   3045   3034   3033   3058     1  0.0000000  0.6508444  3
   3045   3034   3036   3049     1  0.0000000  0.6508444  3
   3045   3034   3036   3050     1  0.0000000  0.6508444  3
   3046   3034   3033   3058     1  0.0000000  0.6508444  3
   3046   3034   3036   3049     1  0.0000000  0.6508444  3
   3046   3034   3036   3050     1  0.0000000  0.6508444  3
   3047   3035   3033   3058     1  0.0000000  0.6508444  3
   3047   3035   3038   3051     1  0.0000000  0.6508444  3
   3047   3035   3038   3052     1  0.0000000  0.6508444  3
   3048   3035   3033   3058     1  0.0000000  0.6508444  3
   3048   3035   3038   3051     1  0.0000000  0.6508444  3
   3048   3035   3038   3052     1  0.0000000  0.6508444  3
   3049   3036   3037  11407     1  180.0000771  0.0000000  2
   3050   3036   3037  11407     1  180.0000771  0.0000000  2
   3051   3038   3039  11481     1  180.0000771  0.0000000  2
   3052   3038   3039  11481     1  180.0000771  0.0000000  2
   3053   3040   3033   3058     1  0.0000000  0.6508444  3
   3053   3040   3041   3055     1  0.0000000  0.6508444  3
   3053   3040   3041   3056     1  0.0000000  0.6508444  3
   3054   3040   3033   3058     1  0.0000000  0.6508444  3
   3054   3040   3041   3055     1  0.0000000  0.6508444  3
   3054   3040   3041   3056     1  0.0000000  0.6508444  3
   3055   3041   3042   3057     1  0.0000000  0.0000000  2
   3056   3041   3042   3057     1  0.0000000  0.0000000  2
   3059   3060   3062   3075     1  0.0000000  0.6508444  3
   3059   3060   3062   3076     1  0.0000000  0.6508444  3
   3059   3061   3064   3077     1  0.0000000  0.6508444  3
   3059   3061   3064   3078     1  0.0000000  0.6508444  3
   3059   3066   3067   3081     1  0.0000000  0.6508444  3
   3059   3066   3067   3082     1  0.0000000  0.6508444  3
   3060   3059   3061   3073     1  0.0000000  0.6508444  3
   3060   3059   3061   3074     1  0.0000000  0.6508444  3
   3060   3059   3066   3079     1  0.0000000  0.6508444  3
   3060   3059   3066   3080     1  0.0000000  0.6508444  3
   3061   3059   3060   3071     1  0.0000000  0.6508444  3
   3061   3059   3060   3072     1  0.0000000  0.6508444  3
   3061   3059   3066   3079     1  0.0000000  0.6508444  3
   3061   3059   3066   3080     1  0.0000000  0.6508444  3
   3062   3060   3059   3084     1  0.0000000  0.6508444  3
   3062   3063  11555  11556     1  180.0000771  10.4600000  2
   3063   3062   3060   3071     1  0.0000000  0.6508444  3
   3063   3062   3060   3072     1  0.0000000  0.6508444  3
   3063  11555  11557  11558     1  0.0000000  0.0000000  2
   3063  11555  11557  11560     1  0.0000000  0.0000000  2
   3064   3061   3059   3084     1  0.0000000  0.6508444  3
   3064   3065  11629  11630     1  180.0000771  10.4600000  2
   3065   3064   3061   3073     1  0.0000000  0.6508444  3
   3065   3064   3061   3074     1  0.0000000  0.6508444  3
   3065  11629  11631  11632     1  0.0000000  0.0000000  2
   3065  11629  11631  11634     1  0.0000000  0.0000000  2
   3066   3059   3060   3071     1  0.0000000  0.6508444  3
   3066   3059   3060   3072     1  0.0000000  0.6508444  3
   3066   3059   3061   3073     1  0.0000000  0.6508444  3
   3066   3059   3061   3074     1  0.0000000  0.6508444  3
   3066   3067   3068   3083     1  0.0000000  0.0000000  2
   3067   3066   3059   3084     1  0.0000000  0.6508444  3
   3068   3067   3066   3079     1  0.0000000  0.6508444  3
   3068   3067   3066   3080     1  0.0000000  0.6508444  3
   3069   3063   3062   3075     1  0.0000000  3.3472000  1
   3069   3063   3062   3075     1  0.0000000  0.0000000  2
   3069   3063   3062   3075     1  180.0000771  0.3347200  3
   3069   3063   3062   3076     1  0.0000000  3.3472000  1
   3069   3063   3062   3076     1  0.0000000  0.0000000  2
   3069   3063   3062   3076     1  180.0000771  0.3347200  3
   3069   3063  11555  11556     1  0.0000000  8.3680000  1
   3069   3063  11555  11556     1  180.0000771  10.4600000  2
   3070   3065   3064   3077     1  0.0000000  3.3472000  1
   3070   3065   3064   3077     1  0.0000000  0.0000000  2
   3070   3065   3064   3077     1  180.0000771  0.3347200  3
   3070   3065   3064   3078     1  0.0000000  3.3472000  1
   3070   3065   3064   3078     1  0.0000000  0.0000000  2
   3070   3065   3064   3078     1  180.0000771  0.3347200  3
   3070   3065  11629  11630     1  0.0000000  8.3680000  1
   3070   3065  11629  11630     1  180.0000771  10.4600000  2
   3071   3060   3059   3084     1  0.0000000  0.6508444  3
   3071   3060   3062   3075     1  0.0000000  0.6508444  3
   3071   3060   3062   3076     1  0.0000000  0.6508444  3
   3072   3060   3059   3084     1  0.0000000  0.6508444  3
   3072   3060   3062   3075     1  0.0000000  0.6508444  3
   3072   3060   3062   3076     1  0.0000000  0.6508444  3
   3073   3061   3059   3084     1  0.0000000  0.6508444  3
   3073   3061   3064   3077     1  0.0000000  0.6508444  3
   3073   3061   3064   3078     1  0.0000000  0.6508444  3
   3074   3061   3059   3084     1  0.0000000  0.6508444  3
   3074   3061   3064   3077     1  0.0000000  0.6508444  3
   3074   3061   3064   3078     1  0.0000000  0.6508444  3
   3075   3062   3063  11555     1  180.0000771  0.0000000  2
   3076   3062   3063  11555     1  180.0000771  0.0000000  2
   3077   3064   3065  11629     1  180.0000771  0.0000000  2
   3078   3064   3065  11629     1  180.0000771  0.0000000  2
   3079   3066   3059   3084     1  0.0000000  0.6508444  3
   3079   3066   3067   3081     1  0.0000000  0.6508444  3
   3079   3066   3067   3082     1  0.0000000  0.6508444  3
   3080   3066   3059   3084     1  0.0000000  0.6508444  3
   3080   3066   3067   3081     1  0.0000000  0.6508444  3
   3080   3066   3067   3082     1  0.0000000  0.6508444  3
   3081   3067   3068   3083     1  0.0000000  0.0000000  2
   3082   3067   3068   3083     1  0.0000000  0.0000000  2
   3085   3086   3088   3101     1  0.0000000  0.6508444  3
   3085   3086   3088   3102     1  0.0000000  0.6508444  3
   3085   3087   3090   3103     1  0.0000000  0.6508444  3
   3085   3087   3090   3104     1  0.0000000  0.6508444  3
   3085   3092   3093   3107     1  0.0000000  0.6508444  3
   3085   3092   3093   3108     1  0.0000000  0.6508444  3
   3086   3085   3087   3099     1  0.0000000  0.6508444  3
   3086   3085   3087   3100     1  0.0000000  0.6508444  3
   3086   3085   3092   3105     1  0.0000000  0.6508444  3
   3086   3085   3092   3106     1  0.0000000  0.6508444  3
   3087   3085   3086   3097     1  0.0000000  0.6508444  3
   3087   3085   3086   3098     1  0.0000000  0.6508444  3
   3087   3085   3092   3105     1  0.0000000  0.6508444  3
   3087   3085   3092   3106     1  0.0000000  0.6508444  3
   3088   3086   3085   3110     1  0.0000000  0.6508444  3
   3088   3089  11703  11704     1  180.0000771  10.4600000  2
   3089   3088   3086   3097     1  0.0000000  0.6508444  3
   3089   3088   3086   3098     1  0.0000000  0.6508444  3
   3089  11703  11705  11706     1  0.0000000  0.0000000  2
   3089  11703  11705  11708     1  0.0000000  0.0000000  2
   3090   3087   3085   3110     1  0.0000000  0.6508444  3
   3090   3091  11777  11778     1  180.0000771  10.4600000  2
   3091   3090   3087   3099     1  0.0000000  0.6508444  3
   3091   3090   3087   3100     1  0.0000000  0.6508444  3
   3091  11777  11779  11780     1  0.0000000  0.0000000  2
   3091  11777  11779  11782     1  0.0000000  0.0000000  2
   3092   3085   3086   3097     1  0.0000000  0.6508444  3
   3092   3085   3086   3098     1  0.0000000  0.6508444  3
   3092   3085   3087   3099     1  0.0000000  0.6508444  3
   3092   3085   3087   3100     1  0.0000000  0.6508444  3
   3092   3093   3094   3109     1  0.0000000  0.0000000  2
   3093   3092   3085   3110     1  0.0000000  0.6508444  3
   3094   3093   3092   3105     1  0.0000000  0.6508444  3
   3094   3093   3092   3106     1  0.0000000  0.6508444  3
   3095   3089   3088   3101     1  0.0000000  3.3472000  1
   3095   3089   3088   3101     1  0.0000000  0.0000000  2
   3095   3089   3088   3101     1  180.0000771  0.3347200  3
   3095   3089   3088   3102     1  0.0000000  3.3472000  1
   3095   3089   3088   3102     1  0.0000000  0.0000000  2
   3095   3089   3088   3102     1  180.0000771  0.3347200  3
   3095   3089  11703  11704     1  0.0000000  8.3680000  1
   3095   3089  11703  11704     1  180.0000771  10.4600000  2
   3096   3091   3090   3103     1  0.0000000  3.3472000  1
   3096   3091   3090   3103     1  0.0000000  0.0000000  2
   3096   3091   3090   3103     1  180.0000771  0.3347200  3
   3096   3091   3090   3104     1  0.0000000  3.3472000  1
   3096   3091   3090   3104     1  0.0000000  0.0000000  2
   3096   3091   3090   3104     1  180.0000771  0.3347200  3
   3096   3091  11777  11778     1  0.0000000  8.3680000  1
   3096   3091  11777  11778     1  180.0000771  10.4600000  2
   3097   3086   3085   3110     1  0.0000000  0.6508444  3
   3097   3086   3088   3101     1  0.0000000  0.6508444  3
   3097   3086   3088   3102     1  0.0000000  0.6508444  3
   3098   3086   3085   3110     1  0.0000000  0.6508444  3
   3098   3086   3088   3101     1  0.0000000  0.6508444  3
   3098   3086   3088   3102     1  0.0000000  0.6508444  3
   3099   3087   3085   3110     1  0.0000000  0.6508444  3
   3099   3087   3090   3103     1  0.0000000  0.6508444  3
   3099   3087   3090   3104     1  0.0000000  0.6508444  3
   3100   3087   3085   3110     1  0.0000000  0.6508444  3
   3100   3087   3090   3103     1  0.0000000  0.6508444  3
   3100   3087   3090   3104     1  0.0000000  0.6508444  3
   3101   3088   3089  11703     1  180.0000771  0.0000000  2
   3102   3088   3089  11703     1  180.0000771  0.0000000  2
   3103   3090   3091  11777     1  180.0000771  0.0000000  2
   3104   3090   3091  11777     1  180.0000771  0.0000000  2
   3105   3092   3085   3110     1  0.0000000  0.6508444  3
   3105   3092   3093   3107     1  0.0000000  0.6508444  3
   3105   3092   3093   3108     1  0.0000000  0.6508444  3
   3106   3092   3085   3110     1  0.0000000  0.6508444  3
   3106   3092   3093   3107     1  0.0000000  0.6508444  3
   3106   3092   3093   3108     1  0.0000000  0.6508444  3
   3107   3093   3094   3109     1  0.0000000  0.0000000  2
   3108   3093   3094   3109     1  0.0000000  0.0000000  2
   3111   3112   3114   3127     1  0.0000000  0.6508444  3
   3111   3112   3114   3128     1  0.0000000  0.6508444  3
   3111   3113   3116   3129     1  0.0000000  0.6508444  3
   3111   3113   3116   3130     1  0.0000000  0.6508444  3
   3111   3118   3119   3133     1  0.0000000  0.6508444  3
   3111   3118   3119   3134     1  0.0000000  0.6508444  3
   3112   3111   3113   3125     1  0.0000000  0.6508444  3
   3112   3111   3113   3126     1  0.0000000  0.6508444  3
   3112   3111   3118   3131     1  0.0000000  0.6508444  3
   3112   3111   3118   3132     1  0.0000000  0.6508444  3
   3113   3111   3112   3123     1  0.0000000  0.6508444  3
   3113   3111   3112   3124     1  0.0000000  0.6508444  3
   3113   3111   3118   3131     1  0.0000000  0.6508444  3
   3113   3111   3118   3132     1  0.0000000  0.6508444  3
   3114   3112   3111   3136     1  0.0000000  0.6508444  3
   3114   3115  11851  11852     1  180.0000771  10.4600000  2
   3115   3114   3112   3123     1  0.0000000  0.6508444  3
   3115   3114   3112   3124     1  0.0000000  0.6508444  3
   3115  11851  11853  11854     1  0.0000000  0.0000000  2
   3115  11851  11853  11856     1  0.0000000  0.0000000  2
   3116   3113   3111   3136     1  0.0000000  0.6508444  3
   3116   3117  11925  11926     1  180.0000771  10.4600000  2
   3117   3116   3113   3125     1  0.0000000  0.6508444  3
   3117   3116   3113   3126     1  0.0000000  0.6508444  3
   3117  11925  11927  11928     1  0.0000000  0.0000000  2
   3117  11925  11927  11930     1  0.0000000  0.0000000  2
   3118   3111   3112   3123     1  0.0000000  0.6508444  3
   3118   3111   3112   3124     1  0.0000000  0.6508444  3
   3118   3111   3113   3125     1  0.0000000  0.6508444  3
   3118   3111   3113   3126     1  0.0000000  0.6508444  3
   3118   3119   3120   3135     1  0.0000000  0.0000000  2
   3119   3118   3111   3136     1  0.0000000  0.6508444  3
   3120   3119   3118   3131     1  0.0000000  0.6508444  3
   3120   3119   3118   3132     1  0.0000000  0.6508444  3
   3121   3115   3114   3127     1  0.0000000  3.3472000  1
   3121   3115   3114   3127     1  0.0000000  0.0000000  2
   3121   3115   3114   3127     1  180.0000771  0.3347200  3
   3121   3115   3114   3128     1  0.0000000  3.3472000  1
   3121   3115   3114   3128     1  0.0000000  0.0000000  2
   3121   3115   3114   3128     1  180.0000771  0.3347200  3
   3121   3115  11851  11852     1  0.0000000  8.3680000  1
   3121   3115  11851  11852     1  180.0000771  10.4600000  2
   3122   3117   3116   3129     1  0.0000000  3.3472000  1
   3122   3117   3116   3129     1  0.0000000  0.0000000  2
   3122   3117   3116   3129     1  180.0000771  0.3347200  3
   3122   3117   3116   3130     1  0.0000000  3.3472000  1
   3122   3117   3116   3130     1  0.0000000  0.0000000  2
   3122   3117   3116   3130     1  180.0000771  0.3347200  3
   3122   3117  11925  11926     1  0.0000000  8.3680000  1
   3122   3117  11925  11926     1  180.0000771  10.4600000  2
   3123   3112   3111   3136     1  0.0000000  0.6508444  3
   3123   3112   3114   3127     1  0.0000000  0.6508444  3
   3123   3112   3114   3128     1  0.0000000  0.6508444  3
   3124   3112   3111   3136     1  0.0000000  0.6508444  3
   3124   3112   3114   3127     1  0.0000000  0.6508444  3
   3124   3112   3114   3128     1  0.0000000  0.6508444  3
   3125   3113   3111   3136     1  0.0000000  0.6508444  3
   3125   3113   3116   3129     1  0.0000000  0.6508444  3
   3125   3113   3116   3130     1  0.0000000  0.6508444  3
   3126   3113   3111   3136     1  0.0000000  0.6508444  3
   3126   3113   3116   3129     1  0.0000000  0.6508444  3
   3126   3113   3116   3130     1  0.0000000  0.6508444  3
   3127   3114   3115  11851     1  180.0000771  0.0000000  2
   3128   3114   3115  11851     1  180.0000771  0.0000000  2
   3129   3116   3117  11925     1  180.0000771  0.0000000  2
   3130   3116   3117  11925     1  180.0000771  0.0000000  2
   3131   3118   3111   3136     1  0.0000000  0.6508444  3
   3131   3118   3119   3133     1  0.0000000  0.6508444  3
   3131   3118   3119   3134     1  0.0000000  0.6508444  3
   3132   3118   3111   3136     1  0.0000000  0.6508444  3
   3132   3118   3119   3133     1  0.0000000  0.6508444  3
   3132   3118   3119   3134     1  0.0000000  0.6508444  3
   3133   3119   3120   3135     1  0.0000000  0.0000000  2
   3134   3119   3120   3135     1  0.0000000  0.0000000  2
   3137   3138   3140   3153     1  0.0000000  0.6508444  3
   3137   3138   3140   3154     1  0.0000000  0.6508444  3
   3137   3139   3142   3155     1  0.0000000  0.6508444  3
   3137   3139   3142   3156     1  0.0000000  0.6508444  3
   3137   3144   3145   3159     1  0.0000000  0.6508444  3
   3137   3144   3145   3160     1  0.0000000  0.6508444  3
   3138   3137   3139   3151     1  0.0000000  0.6508444  3
   3138   3137   3139   3152     1  0.0000000  0.6508444  3
   3138   3137   3144   3157     1  0.0000000  0.6508444  3
   3138   3137   3144   3158     1  0.0000000  0.6508444  3
   3139   3137   3138   3149     1  0.0000000  0.6508444  3
   3139   3137   3138   3150     1  0.0000000  0.6508444  3
   3139   3137   3144   3157     1  0.0000000  0.6508444  3
   3139   3137   3144   3158     1  0.0000000  0.6508444  3
   3140   3138   3137   3162     1  0.0000000  0.6508444  3
   3140   3141  11999  12000     1  180.0000771  10.4600000  2
   3141   3140   3138   3149     1  0.0000000  0.6508444  3
   3141   3140   3138   3150     1  0.0000000  0.6508444  3
   3141  11999  12001  12002     1  0.0000000  0.0000000  2
   3141  11999  12001  12004     1  0.0000000  0.0000000  2
   3142   3139   3137   3162     1  0.0000000  0.6508444  3
   3142   3143  12073  12074     1  180.0000771  10.4600000  2
   3143   3142   3139   3151     1  0.0000000  0.6508444  3
   3143   3142   3139   3152     1  0.0000000  0.6508444  3
   3143  12073  12075  12076     1  0.0000000  0.0000000  2
   3143  12073  12075  12078     1  0.0000000  0.0000000  2
   3144   3137   3138   3149     1  0.0000000  0.6508444  3
   3144   3137   3138   3150     1  0.0000000  0.6508444  3
   3144   3137   3139   3151     1  0.0000000  0.6508444  3
   3144   3137   3139   3152     1  0.0000000  0.6508444  3
   3144   3145   3146   3161     1  0.0000000  0.0000000  2
   3145   3144   3137   3162     1  0.0000000  0.6508444  3
   3146   3145   3144   3157     1  0.0000000  0.6508444  3
   3146   3145   3144   3158     1  0.0000000  0.6508444  3
   3147   3141   3140   3153     1  0.0000000  3.3472000  1
   3147   3141   3140   3153     1  0.0000000  0.0000000  2
   3147   3141   3140   3153     1  180.0000771  0.3347200  3
   3147   3141   3140   3154     1  0.0000000  3.3472000  1
   3147   3141   3140   3154     1  0.0000000  0.0000000  2
   3147   3141   3140   3154     1  180.0000771  0.3347200  3
   3147   3141  11999  12000     1  0.0000000  8.3680000  1
   3147   3141  11999  12000     1  180.0000771  10.4600000  2
   3148   3143   3142   3155     1  0.0000000  3.3472000  1
   3148   3143   3142   3155     1  0.0000000  0.0000000  2
   3148   3143   3142   3155     1  180.0000771  0.3347200  3
   3148   3143   3142   3156     1  0.0000000  3.3472000  1
   3148   3143   3142   3156     1  0.0000000  0.0000000  2
   3148   3143   3142   3156     1  180.0000771  0.3347200  3
   3148   3143  12073  12074     1  0.0000000  8.3680000  1
   3148   3143  12073  12074     1  180.0000771  10.4600000  2
   3149   3138   3137   3162     1  0.0000000  0.6508444  3
   3149   3138   3140   3153     1  0.0000000  0.6508444  3
   3149   3138   3140   3154     1  0.0000000  0.6508444  3
   3150   3138   3137   3162     1  0.0000000  0.6508444  3
   3150   3138   3140   3153     1  0.0000000  0.6508444  3
   3150   3138   3140   3154     1  0.0000000  0.6508444  3
   3151   3139   3137   3162     1  0.0000000  0.6508444  3
   3151   3139   3142   3155     1  0.0000000  0.6508444  3
   3151   3139   3142   3156     1  0.0000000  0.6508444  3
   3152   3139   3137   3162     1  0.0000000  0.6508444  3
   3152   3139   3142   3155     1  0.0000000  0.6508444  3
   3152   3139   3142   3156     1  0.0000000  0.6508444  3
   3153   3140   3141  11999     1  180.0000771  0.0000000  2
   3154   3140   3141  11999     1  180.0000771  0.0000000  2
   3155   3142   3143  12073     1  180.0000771  0.0000000  2
   3156   3142   3143  12073     1  180.0000771  0.0000000  2
   3157   3144   3137   3162     1  0.0000000  0.6508444  3
   3157   3144   3145   3159     1  0.0000000  0.6508444  3
   3157   3144   3145   3160     1  0.0000000  0.6508444  3
   3158   3144   3137   3162     1  0.0000000  0.6508444  3
   3158   3144   3145   3159     1  0.0000000  0.6508444  3
   3158   3144   3145   3160     1  0.0000000  0.6508444  3
   3159   3145   3146   3161     1  0.0000000  0.0000000  2
   3160   3145   3146   3161     1  0.0000000  0.0000000  2
   3163   3164   3166   3179     1  0.0000000  0.6508444  3
   3163   3164   3166   3180     1  0.0000000  0.6508444  3
   3163   3165   3168   3181     1  0.0000000  0.6508444  3
   3163   3165   3168   3182     1  0.0000000  0.6508444  3
   3163   3170   3171   3185     1  0.0000000  0.6508444  3
   3163   3170   3171   3186     1  0.0000000  0.6508444  3
   3164   3163   3165   3177     1  0.0000000  0.6508444  3
   3164   3163   3165   3178     1  0.0000000  0.6508444  3
   3164   3163   3170   3183     1  0.0000000  0.6508444  3
   3164   3163   3170   3184     1  0.0000000  0.6508444  3
   3165   3163   3164   3175     1  0.0000000  0.6508444  3
   3165   3163   3164   3176     1  0.0000000  0.6508444  3
   3165   3163   3170   3183     1  0.0000000  0.6508444  3
   3165   3163   3170   3184     1  0.0000000  0.6508444  3
   3166   3164   3163   3188     1  0.0000000  0.6508444  3
   3166   3167  12147  12148     1  180.0000771  10.4600000  2
   3167   3166   3164   3175     1  0.0000000  0.6508444  3
   3167   3166   3164   3176     1  0.0000000  0.6508444  3
   3167  12147  12149  12150     1  0.0000000  0.0000000  2
   3167  12147  12149  12152     1  0.0000000  0.0000000  2
   3168   3165   3163   3188     1  0.0000000  0.6508444  3
   3168   3169  12221  12222     1  180.0000771  10.4600000  2
   3169   3168   3165   3177     1  0.0000000  0.6508444  3
   3169   3168   3165   3178     1  0.0000000  0.6508444  3
   3169  12221  12223  12224     1  0.0000000  0.0000000  2
   3169  12221  12223  12226     1  0.0000000  0.0000000  2
   3170   3163   3164   3175     1  0.0000000  0.6508444  3
   3170   3163   3164   3176     1  0.0000000  0.6508444  3
   3170   3163   3165   3177     1  0.0000000  0.6508444  3
   3170   3163   3165   3178     1  0.0000000  0.6508444  3
   3170   3171   3172   3187     1  0.0000000  0.0000000  2
   3171   3170   3163   3188     1  0.0000000  0.6508444  3
   3172   3171   3170   3183     1  0.0000000  0.6508444  3
   3172   3171   3170   3184     1  0.0000000  0.6508444  3
   3173   3167   3166   3179     1  0.0000000  3.3472000  1
   3173   3167   3166   3179     1  0.0000000  0.0000000  2
   3173   3167   3166   3179     1  180.0000771  0.3347200  3
   3173   3167   3166   3180     1  0.0000000  3.3472000  1
   3173   3167   3166   3180     1  0.0000000  0.0000000  2
   3173   3167   3166   3180     1  180.0000771  0.3347200  3
   3173   3167  12147  12148     1  0.0000000  8.3680000  1
   3173   3167  12147  12148     1  180.0000771  10.4600000  2
   3174   3169   3168   3181     1  0.0000000  3.3472000  1
   3174   3169   3168   3181     1  0.0000000  0.0000000  2
   3174   3169   3168   3181     1  180.0000771  0.3347200  3
   3174   3169   3168   3182     1  0.0000000  3.3472000  1
   3174   3169   3168   3182     1  0.0000000  0.0000000  2
   3174   3169   3168   3182     1  180.0000771  0.3347200  3
   3174   3169  12221  12222     1  0.0000000  8.3680000  1
   3174   3169  12221  12222     1  180.0000771  10.4600000  2
   3175   3164   3163   3188     1  0.0000000  0.6508444  3
   3175   3164   3166   3179     1  0.0000000  0.6508444  3
   3175   3164   3166   3180     1  0.0000000  0.6508444  3
   3176   3164   3163   3188     1  0.0000000  0.6508444  3
   3176   3164   3166   3179     1  0.0000000  0.6508444  3
   3176   3164   3166   3180     1  0.0000000  0.6508444  3
   3177   3165   3163   3188     1  0.0000000  0.6508444  3
   3177   3165   3168   3181     1  0.0000000  0.6508444  3
   3177   3165   3168   3182     1  0.0000000  0.6508444  3
   3178   3165   3163   3188     1  0.0000000  0.6508444  3
   3178   3165   3168   3181     1  0.0000000  0.6508444  3
   3178   3165   3168   3182     1  0.0000000  0.6508444  3
   3179   3166   3167  12147     1  180.0000771  0.0000000  2
   3180   3166   3167  12147     1  180.0000771  0.0000000  2
   3181   3168   3169  12221     1  180.0000771  0.0000000  2
   3182   3168   3169  12221     1  180.0000771  0.0000000  2
   3183   3170   3163   3188     1  0.0000000  0.6508444  3
   3183   3170   3171   3185     1  0.0000000  0.6508444  3
   3183   3170   3171   3186     1  0.0000000  0.6508444  3
   3184   3170   3163   3188     1  0.0000000  0.6508444  3
   3184   3170   3171   3185     1  0.0000000  0.6508444  3
   3184   3170   3171   3186     1  0.0000000  0.6508444  3
   3185   3171   3172   3187     1  0.0000000  0.0000000  2
   3186   3171   3172   3187     1  0.0000000  0.0000000  2
   3189   3190   3192   3205     1  0.0000000  0.6508444  3
   3189   3190   3192   3206     1  0.0000000  0.6508444  3
   3189   3191   3194   3207     1  0.0000000  0.6508444  3
   3189   3191   3194   3208     1  0.0000000  0.6508444  3
   3189   3196   3197   3211     1  0.0000000  0.6508444  3
   3189   3196   3197   3212     1  0.0000000  0.6508444  3
   3190   3189   3191   3203     1  0.0000000  0.6508444  3
   3190   3189   3191   3204     1  0.0000000  0.6508444  3
   3190   3189   3196   3209     1  0.0000000  0.6508444  3
   3190   3189   3196   3210     1  0.0000000  0.6508444  3
   3191   3189   3190   3201     1  0.0000000  0.6508444  3
   3191   3189   3190   3202     1  0.0000000  0.6508444  3
   3191   3189   3196   3209     1  0.0000000  0.6508444  3
   3191   3189   3196   3210     1  0.0000000  0.6508444  3
   3192   3190   3189   3214     1  0.0000000  0.6508444  3
   3192   3193  12295  12296     1  180.0000771  10.4600000  2
   3193   3192   3190   3201     1  0.0000000  0.6508444  3
   3193   3192   3190   3202     1  0.0000000  0.6508444  3
   3193  12295  12297  12298     1  0.0000000  0.0000000  2
   3193  12295  12297  12300     1  0.0000000  0.0000000  2
   3194   3191   3189   3214     1  0.0000000  0.6508444  3
   3194   3195  12369  12370     1  180.0000771  10.4600000  2
   3195   3194   3191   3203     1  0.0000000  0.6508444  3
   3195   3194   3191   3204     1  0.0000000  0.6508444  3
   3195  12369  12371  12372     1  0.0000000  0.0000000  2
   3195  12369  12371  12374     1  0.0000000  0.0000000  2
   3196   3189   3190   3201     1  0.0000000  0.6508444  3
   3196   3189   3190   3202     1  0.0000000  0.6508444  3
   3196   3189   3191   3203     1  0.0000000  0.6508444  3
   3196   3189   3191   3204     1  0.0000000  0.6508444  3
   3196   3197   3198   3213     1  0.0000000  0.0000000  2
   3197   3196   3189   3214     1  0.0000000  0.6508444  3
   3198   3197   3196   3209     1  0.0000000  0.6508444  3
   3198   3197   3196   3210     1  0.0000000  0.6508444  3
   3199   3193   3192   3205     1  0.0000000  3.3472000  1
   3199   3193   3192   3205     1  0.0000000  0.0000000  2
   3199   3193   3192   3205     1  180.0000771  0.3347200  3
   3199   3193   3192   3206     1  0.0000000  3.3472000  1
   3199   3193   3192   3206     1  0.0000000  0.0000000  2
   3199   3193   3192   3206     1  180.0000771  0.3347200  3
   3199   3193  12295  12296     1  0.0000000  8.3680000  1
   3199   3193  12295  12296     1  180.0000771  10.4600000  2
   3200   3195   3194   3207     1  0.0000000  3.3472000  1
   3200   3195   3194   3207     1  0.0000000  0.0000000  2
   3200   3195   3194   3207     1  180.0000771  0.3347200  3
   3200   3195   3194   3208     1  0.0000000  3.3472000  1
   3200   3195   3194   3208     1  0.0000000  0.0000000  2
   3200   3195   3194   3208     1  180.0000771  0.3347200  3
   3200   3195  12369  12370     1  0.0000000  8.3680000  1
   3200   3195  12369  12370     1  180.0000771  10.4600000  2
   3201   3190   3189   3214     1  0.0000000  0.6508444  3
   3201   3190   3192   3205     1  0.0000000  0.6508444  3
   3201   3190   3192   3206     1  0.0000000  0.6508444  3
   3202   3190   3189   3214     1  0.0000000  0.6508444  3
   3202   3190   3192   3205     1  0.0000000  0.6508444  3
   3202   3190   3192   3206     1  0.0000000  0.6508444  3
   3203   3191   3189   3214     1  0.0000000  0.6508444  3
   3203   3191   3194   3207     1  0.0000000  0.6508444  3
   3203   3191   3194   3208     1  0.0000000  0.6508444  3
   3204   3191   3189   3214     1  0.0000000  0.6508444  3
   3204   3191   3194   3207     1  0.0000000  0.6508444  3
   3204   3191   3194   3208     1  0.0000000  0.6508444  3
   3205   3192   3193  12295     1  180.0000771  0.0000000  2
   3206   3192   3193  12295     1  180.0000771  0.0000000  2
   3207   3194   3195  12369     1  180.0000771  0.0000000  2
   3208   3194   3195  12369     1  180.0000771  0.0000000  2
   3209   3196   3189   3214     1  0.0000000  0.6508444  3
   3209   3196   3197   3211     1  0.0000000  0.6508444  3
   3209   3196   3197   3212     1  0.0000000  0.6508444  3
   3210   3196   3189   3214     1  0.0000000  0.6508444  3
   3210   3196   3197   3211     1  0.0000000  0.6508444  3
   3210   3196   3197   3212     1  0.0000000  0.6508444  3
   3211   3197   3198   3213     1  0.0000000  0.0000000  2
   3212   3197   3198   3213     1  0.0000000  0.0000000  2
   3215   3216   3218   3231     1  0.0000000  0.6508444  3
   3215   3216   3218   3232     1  0.0000000  0.6508444  3
   3215   3217   3220   3233     1  0.0000000  0.6508444  3
   3215   3217   3220   3234     1  0.0000000  0.6508444  3
   3215   3222   3223   3237     1  0.0000000  0.6508444  3
   3215   3222   3223   3238     1  0.0000000  0.6508444  3
   3216   3215   3217   3229     1  0.0000000  0.6508444  3
   3216   3215   3217   3230     1  0.0000000  0.6508444  3
   3216   3215   3222   3235     1  0.0000000  0.6508444  3
   3216   3215   3222   3236     1  0.0000000  0.6508444  3
   3217   3215   3216   3227     1  0.0000000  0.6508444  3
   3217   3215   3216   3228     1  0.0000000  0.6508444  3
   3217   3215   3222   3235     1  0.0000000  0.6508444  3
   3217   3215   3222   3236     1  0.0000000  0.6508444  3
   3218   3216   3215   3240     1  0.0000000  0.6508444  3
   3218   3219  12443  12444     1  180.0000771  10.4600000  2
   3219   3218   3216   3227     1  0.0000000  0.6508444  3
   3219   3218   3216   3228     1  0.0000000  0.6508444  3
   3219  12443  12445  12446     1  0.0000000  0.0000000  2
   3219  12443  12445  12448     1  0.0000000  0.0000000  2
   3220   3217   3215   3240     1  0.0000000  0.6508444  3
   3220   3221  12517  12518     1  180.0000771  10.4600000  2
   3221   3220   3217   3229     1  0.0000000  0.6508444  3
   3221   3220   3217   3230     1  0.0000000  0.6508444  3
   3221  12517  12519  12520     1  0.0000000  0.0000000  2
   3221  12517  12519  12522     1  0.0000000  0.0000000  2
   3222   3215   3216   3227     1  0.0000000  0.6508444  3
   3222   3215   3216   3228     1  0.0000000  0.6508444  3
   3222   3215   3217   3229     1  0.0000000  0.6508444  3
   3222   3215   3217   3230     1  0.0000000  0.6508444  3
   3222   3223   3224   3239     1  0.0000000  0.0000000  2
   3223   3222   3215   3240     1  0.0000000  0.6508444  3
   3224   3223   3222   3235     1  0.0000000  0.6508444  3
   3224   3223   3222   3236     1  0.0000000  0.6508444  3
   3225   3219   3218   3231     1  0.0000000  3.3472000  1
   3225   3219   3218   3231     1  0.0000000  0.0000000  2
   3225   3219   3218   3231     1  180.0000771  0.3347200  3
   3225   3219   3218   3232     1  0.0000000  3.3472000  1
   3225   3219   3218   3232     1  0.0000000  0.0000000  2
   3225   3219   3218   3232     1  180.0000771  0.3347200  3
   3225   3219  12443  12444     1  0.0000000  8.3680000  1
   3225   3219  12443  12444     1  180.0000771  10.4600000  2
   3226   3221   3220   3233     1  0.0000000  3.3472000  1
   3226   3221   3220   3233     1  0.0000000  0.0000000  2
   3226   3221   3220   3233     1  180.0000771  0.3347200  3
   3226   3221   3220   3234     1  0.0000000  3.3472000  1
   3226   3221   3220   3234     1  0.0000000  0.0000000  2
   3226   3221   3220   3234     1  180.0000771  0.3347200  3
   3226   3221  12517  12518     1  0.0000000  8.3680000  1
   3226   3221  12517  12518     1  180.0000771  10.4600000  2
   3227   3216   3215   3240     1  0.0000000  0.6508444  3
   3227   3216   3218   3231     1  0.0000000  0.6508444  3
   3227   3216   3218   3232     1  0.0000000  0.6508444  3
   3228   3216   3215   3240     1  0.0000000  0.6508444  3
   3228   3216   3218   3231     1  0.0000000  0.6508444  3
   3228   3216   3218   3232     1  0.0000000  0.6508444  3
   3229   3217   3215   3240     1  0.0000000  0.6508444  3
   3229   3217   3220   3233     1  0.0000000  0.6508444  3
   3229   3217   3220   3234     1  0.0000000  0.6508444  3
   3230   3217   3215   3240     1  0.0000000  0.6508444  3
   3230   3217   3220   3233     1  0.0000000  0.6508444  3
   3230   3217   3220   3234     1  0.0000000  0.6508444  3
   3231   3218   3219  12443     1  180.0000771  0.0000000  2
   3232   3218   3219  12443     1  180.0000771  0.0000000  2
   3233   3220   3221  12517     1  180.0000771  0.0000000  2
   3234   3220   3221  12517     1  180.0000771  0.0000000  2
   3235   3222   3215   3240     1  0.0000000  0.6508444  3
   3235   3222   3223   3237     1  0.0000000  0.6508444  3
   3235   3222   3223   3238     1  0.0000000  0.6508444  3
   3236   3222   3215   3240     1  0.0000000  0.6508444  3
   3236   3222   3223   3237     1  0.0000000  0.6508444  3
   3236   3222   3223   3238     1  0.0000000  0.6508444  3
   3237   3223   3224   3239     1  0.0000000  0.0000000  2
   3238   3223   3224   3239     1  0.0000000  0.0000000  2
   3241   3242   3244   3257     1  0.0000000  0.6508444  3
   3241   3242   3244   3258     1  0.0000000  0.6508444  3
   3241   3243   3246   3259     1  0.0000000  0.6508444  3
   3241   3243   3246   3260     1  0.0000000  0.6508444  3
   3241   3248   3249   3263     1  0.0000000  0.6508444  3
   3241   3248   3249   3264     1  0.0000000  0.6508444  3
   3242   3241   3243   3255     1  0.0000000  0.6508444  3
   3242   3241   3243   3256     1  0.0000000  0.6508444  3
   3242   3241   3248   3261     1  0.0000000  0.6508444  3
   3242   3241   3248   3262     1  0.0000000  0.6508444  3
   3243   3241   3242   3253     1  0.0000000  0.6508444  3
   3243   3241   3242   3254     1  0.0000000  0.6508444  3
   3243   3241   3248   3261     1  0.0000000  0.6508444  3
   3243   3241   3248   3262     1  0.0000000  0.6508444  3
   3244   3242   3241   3266     1  0.0000000  0.6508444  3
   3244   3245  12591  12592     1  180.0000771  10.4600000  2
   3245   3244   3242   3253     1  0.0000000  0.6508444  3
   3245   3244   3242   3254     1  0.0000000  0.6508444  3
   3245  12591  12593  12594     1  0.0000000  0.0000000  2
   3245  12591  12593  12596     1  0.0000000  0.0000000  2
   3246   3243   3241   3266     1  0.0000000  0.6508444  3
   3246   3247  12665  12666     1  180.0000771  10.4600000  2
   3247   3246   3243   3255     1  0.0000000  0.6508444  3
   3247   3246   3243   3256     1  0.0000000  0.6508444  3
   3247  12665  12667  12668     1  0.0000000  0.0000000  2
   3247  12665  12667  12670     1  0.0000000  0.0000000  2
   3248   3241   3242   3253     1  0.0000000  0.6508444  3
   3248   3241   3242   3254     1  0.0000000  0.6508444  3
   3248   3241   3243   3255     1  0.0000000  0.6508444  3
   3248   3241   3243   3256     1  0.0000000  0.6508444  3
   3248   3249   3250   3265     1  0.0000000  0.0000000  2
   3249   3248   3241   3266     1  0.0000000  0.6508444  3
   3250   3249   3248   3261     1  0.0000000  0.6508444  3
   3250   3249   3248   3262     1  0.0000000  0.6508444  3
   3251   3245   3244   3257     1  0.0000000  3.3472000  1
   3251   3245   3244   3257     1  0.0000000  0.0000000  2
   3251   3245   3244   3257     1  180.0000771  0.3347200  3
   3251   3245   3244   3258     1  0.0000000  3.3472000  1
   3251   3245   3244   3258     1  0.0000000  0.0000000  2
   3251   3245   3244   3258     1  180.0000771  0.3347200  3
   3251   3245  12591  12592     1  0.0000000  8.3680000  1
   3251   3245  12591  12592     1  180.0000771  10.4600000  2
   3252   3247   3246   3259     1  0.0000000  3.3472000  1
   3252   3247   3246   3259     1  0.0000000  0.0000000  2
   3252   3247   3246   3259     1  180.0000771  0.3347200  3
   3252   3247   3246   3260     1  0.0000000  3.3472000  1
   3252   3247   3246   3260     1  0.0000000  0.0000000  2
   3252   3247   3246   3260     1  180.0000771  0.3347200  3
   3252   3247  12665  12666     1  0.0000000  8.3680000  1
   3252   3247  12665  12666     1  180.0000771  10.4600000  2
   3253   3242   3241   3266     1  0.0000000  0.6508444  3
   3253   3242   3244   3257     1  0.0000000  0.6508444  3
   3253   3242   3244   3258     1  0.0000000  0.6508444  3
   3254   3242   3241   3266     1  0.0000000  0.6508444  3
   3254   3242   3244   3257     1  0.0000000  0.6508444  3
   3254   3242   3244   3258     1  0.0000000  0.6508444  3
   3255   3243   3241   3266     1  0.0000000  0.6508444  3
   3255   3243   3246   3259     1  0.0000000  0.6508444  3
   3255   3243   3246   3260     1  0.0000000  0.6508444  3
   3256   3243   3241   3266     1  0.0000000  0.6508444  3
   3256   3243   3246   3259     1  0.0000000  0.6508444  3
   3256   3243   3246   3260     1  0.0000000  0.6508444  3
   3257   3244   3245  12591     1  180.0000771  0.0000000  2
   3258   3244   3245  12591     1  180.0000771  0.0000000  2
   3259   3246   3247  12665     1  180.0000771  0.0000000  2
   3260   3246   3247  12665     1  180.0000771  0.0000000  2
   3261   3248   3241   3266     1  0.0000000  0.6508444  3
   3261   3248   3249   3263     1  0.0000000  0.6508444  3
   3261   3248   3249   3264     1  0.0000000  0.6508444  3
   3262   3248   3241   3266     1  0.0000000  0.6508444  3
   3262   3248   3249   3263     1  0.0000000  0.6508444  3
   3262   3248   3249   3264     1  0.0000000  0.6508444  3
   3263   3249   3250   3265     1  0.0000000  0.0000000  2
   3264   3249   3250   3265     1  0.0000000  0.0000000  2
   3267   3269   3271   3273     1  0.0000000  0.6508444  3
   3267   3269   3271   3274     1  0.0000000  0.6508444  3
   3268   3267   3269   3271     1  0.0000000  0.0000000  2
   3268   3267   3269   3270     1  0.0000000  0.0000000  2
   3268   3267   3269   3272     1  0.0000000  0.0000000  2
   3269   3271   3275   3340     1  0.0000000  0.6508444  3
   3270   3269   3271   3275     1  0.0000000  0.6508444  3
   3270   3269   3271   3273     1  0.0000000  0.6508444  3
   3270   3269   3271   3274     1  0.0000000  0.6508444  3
   3271   3275   3276   3285     1  0.0000000  0.6508444  3
   3271   3275   3276   3286     1  0.0000000  0.6508444  3
   3271   3275   3277   3278     1  0.0000000  0.6508444  3
   3271   3275   3277   3280     1  0.0000000  0.6508444  3
   3272   3269   3271   3275     1  0.0000000  0.6508444  3
   3272   3269   3271   3273     1  0.0000000  0.6508444  3
   3272   3269   3271   3274     1  0.0000000  0.6508444  3
   3273   3271   3275   3276     1  0.0000000  0.6508444  3
   3273   3271   3275   3277     1  0.0000000  0.6508444  3
   3273   3271   3275   3340     1  0.0000000  0.6508444  3
   3274   3271   3275   3276     1  0.0000000  0.6508444  3
   3274   3271   3275   3277     1  0.0000000  0.6508444  3
   3274   3271   3275   3340     1  0.0000000  0.6508444  3
   3275   3276   3287   3288     1  0.0000000  0.6508444  3
   3275   3276   3287   3289     1  0.0000000  0.6508444  3
   3275   3277   3279   3281     1  0.0000000  0.6508444  3
   3275   3277   3279   3282     1  0.0000000  0.6508444  3
   3276   3275   3277   3278     1  0.0000000  0.6508444  3
   3276   3275   3277   3280     1  0.0000000  0.6508444  3
   3277   3275   3276   3285     1  0.0000000  0.6508444  3
   3277   3275   3276   3286     1  0.0000000  0.6508444  3
   3278   3277   3275   3340     1  0.0000000  0.6508444  3
   3278   3277   3279   3283     1  0.0000000  0.6508444  3
   3278   3277   3279   3281     1  0.0000000  0.6508444  3
   3278   3277   3279   3282     1  0.0000000  0.6508444  3
   3279   3277   3275   3340     1  0.0000000  0.6508444  3
   3279   3283   3315   3305     1  180.0000771  6.0668000  2
   3279   3283   3315   3305     1  180.0000771  1.4644000  4
   3280   3277   3275   3340     1  0.0000000  0.6508444  3
   3280   3277   3279   3283     1  0.0000000  0.6508444  3
   3280   3277   3279   3281     1  0.0000000  0.6508444  3
   3280   3277   3279   3282     1  0.0000000  0.6508444  3
   3281   3279   3283   3284     1  0.0000000  3.3472000  1
   3281   3279   3283   3284     1  0.0000000  0.0000000  2
   3281   3279   3283   3284     1  180.0000771  0.3347200  3
   3281   3279   3283   3315     1  180.0000771  0.0000000  2
   3282   3279   3283   3284     1  0.0000000  3.3472000  1
   3282   3279   3283   3284     1  0.0000000  0.0000000  2
   3282   3279   3283   3284     1  180.0000771  0.3347200  3
   3282   3279   3283   3315     1  180.0000771  0.0000000  2
   3283   3315   3296   3298     1  0.0000000  1.2552000  3
   3284   3283   3315   3305     1  180.0000771  6.0668000  2
   3284   3283   3315   3305     1  180.0000771  1.4644000  4
   3285   3276   3275   3340     1  0.0000000  0.6508444  3
   3285   3276   3287   3290     1  0.0000000  0.6508444  3
   3285   3276   3287   3288     1  0.0000000  0.6508444  3
   3285   3276   3287   3289     1  0.0000000  0.6508444  3
   3286   3276   3275   3340     1  0.0000000  0.6508444  3
   3286   3276   3287   3290     1  0.0000000  0.6508444  3
   3286   3276   3287   3288     1  0.0000000  0.6508444  3
   3286   3276   3287   3289     1  0.0000000  0.6508444  3
   3287   3276   3275   3340     1  0.0000000  0.6508444  3
   3287   3290   3339   3329     1  180.0000771  6.0668000  2
   3287   3290   3339   3329     1  180.0000771  1.4644000  4
   3288   3287   3290   3291     1  0.0000000  3.3472000  1
   3288   3287   3290   3291     1  0.0000000  0.0000000  2
   3288   3287   3290   3291     1  180.0000771  0.3347200  3
   3288   3287   3290   3339     1  180.0000771  0.0000000  2
   3289   3287   3290   3291     1  0.0000000  3.3472000  1
   3289   3287   3290   3291     1  0.0000000  0.0000000  2
   3289   3287   3290   3291     1  180.0000771  0.3347200  3
   3289   3287   3290   3339     1  180.0000771  0.0000000  2
   3290   3339   3320   3322     1  0.0000000  1.2552000  3
   3291   3290   3339   3329     1  180.0000771  6.0668000  2
   3291   3290   3339   3329     1  180.0000771  1.4644000  4
   3292   3293   3295   3299     1  0.0000000  0.6508444  3
   3292   3293   3313   3314     1  0.0000000  1.0460000  1
   3292   3293   3313   3314     1  0.0000000  0.6694400  3
   3292   3303   3308   3309     1  0.0000000  1.0460000  1
   3292   3303   3308   3309     1  0.0000000  0.6694400  3
   3292   3310   3297   3300     1  0.0000000  1.6038667  3
   3293   3292   3303   3306     1  0.0000000  0.6508444  3
   3293   3292   3303   3307     1  0.0000000  0.6508444  3
   3293   3295   3296   3298     1  0.0000000  0.6508444  3
   3293   3295   3302   3304     1  0.0000000  1.0460000  1
   3293   3295   3302   3304     1  0.0000000  0.6694400  3
   3294   3292   3293   3295     1  0.0000000  0.6508444  3
   3294   3292   3293   3313     1  0.0000000  1.0460000  1
   3294   3292   3293   3313     1  0.0000000  0.0000000  3
   3294   3292   3293   3312     1  0.0000000  0.6508444  3
   3294   3292   3303   3308     1  0.0000000  1.0460000  1
   3294   3292   3303   3308     1  0.0000000  0.0000000  3
   3294   3292   3303   3306     1  0.0000000  0.6508444  3
   3294   3292   3303   3307     1  0.0000000  0.6508444  3
   3294   3292   3310   3297     1  0.0000000  1.6038667  3
   3295   3293   3313   3314     1  0.0000000  1.0460000  1
   3295   3293   3313   3314     1  0.0000000  0.6694400  3
   3295   3296   3297   3300     1  0.0000000  0.6508444  3
   3295   3296   3315   3305     1  0.0000000  1.2552000  3
   3296   3295   3293   3312     1  0.0000000  0.6508444  3
   3296   3295   3302   3304     1  0.0000000  1.0460000  1
   3296   3295   3302   3304     1  0.0000000  0.6694400  3
   3296   3297   3301   3311     1  0.0000000  1.0460000  1
   3296   3297   3301   3311     1  0.0000000  0.6694400  3
   3297   3296   3295   3299     1  0.0000000  0.6508444  3
   3297   3296   3315   3305     1  0.0000000  1.2552000  3
   3298   3296   3295   3302     1  0.0000000  1.0460000  1
   3298   3296   3295   3302     1  0.0000000  0.0000000  3
   3298   3296   3295   3299     1  0.0000000  0.6508444  3
   3298   3296   3297   3301     1  0.0000000  1.0460000  1
   3298   3296   3297   3301     1  0.0000000  0.0000000  3
   3298   3296   3297   3310     1  0.0000000  1.0460000  1
   3298   3296   3297   3310     1  0.0000000  0.0000000  3
   3298   3296   3297   3300     1  0.0000000  0.6508444  3
   3298   3296   3315   3305     1  0.0000000  1.2552000  3
   3299   3295   3293   3313     1  0.0000000  1.0460000  1
   3299   3295   3293   3313     1  0.0000000  0.0000000  3
   3299   3295   3293   3312     1  0.0000000  0.6508444  3
   3299   3295   3296   3315     1  0.0000000  0.6508444  3
   3299   3295   3302   3304     1  0.0000000  0.6973333  3
   3300   3297   3296   3315     1  0.0000000  0.6508444  3
   3300   3297   3301   3311     1  0.0000000  0.6973333  3
   3302   3295   3293   3312     1  0.0000000  1.0460000  1
   3302   3295   3293   3312     1  0.0000000  0.0000000  3
   3303   3292   3293   3312     1  0.0000000  0.6508444  3
   3306   3303   3292   3310     1  0.0000000  1.0460000  1
   3306   3303   3292   3310     1  0.0000000  0.0000000  3
   3306   3303   3308   3309     1  0.0000000  0.6973333  3
   3307   3303   3292   3310     1  0.0000000  1.0460000  1
   3307   3303   3292   3310     1  0.0000000  0.0000000  3
   3307   3303   3308   3309     1  0.0000000  0.6973333  3
   3310   3292   3293   3312     1  0.0000000  1.0460000  1
   3310   3292   3293   3312     1  0.0000000  0.0000000  3
   3310   3297   3301   3311     1  0.0000000  0.6973333  3
   3312   3293   3313   3314     1  0.0000000  0.6973333  3
   3316   3317   3319   3323     1  0.0000000  0.6508444  3
   3316   3317   3337   3338     1  0.0000000  1.0460000  1
   3316   3317   3337   3338     1  0.0000000  0.6694400  3
   3316   3327   3332   3333     1  0.0000000  1.0460000  1
   3316   3327   3332   3333     1  0.0000000  0.6694400  3
   3316   3334   3321   3324     1  0.0000000  1.6038667  3
   3317   3316   3327   3330     1  0.0000000  0.6508444  3
   3317   3316   3327   3331     1  0.0000000  0.6508444  3
   3317   3319   3320   3322     1  0.0000000  0.6508444  3
   3317   3319   3326   3328     1  0.0000000  1.0460000  1
   3317   3319   3326   3328     1  0.0000000  0.6694400  3
   3318   3316   3317   3319     1  0.0000000  0.6508444  3
   3318   3316   3317   3337     1  0.0000000  1.0460000  1
   3318   3316   3317   3337     1  0.0000000  0.0000000  3
   3318   3316   3317   3336     1  0.0000000  0.6508444  3
   3318   3316   3327   3332     1  0.0000000  1.0460000  1
   3318   3316   3327   3332     1  0.0000000  0.0000000  3
   3318   3316   3327   3330     1  0.0000000  0.6508444  3
   3318   3316   3327   3331     1  0.0000000  0.6508444  3
   3318   3316   3334   3321     1  0.0000000  1.6038667  3
   3319   3317   3337   3338     1  0.0000000  1.0460000  1
   3319   3317   3337   3338     1  0.0000000  0.6694400  3
   3319   3320   3321   3324     1  0.0000000  0.6508444  3
   3319   3320   3339   3329     1  0.0000000  1.2552000  3
   3320   3319   3317   3336     1  0.0000000  0.6508444  3
   3320   3319   3326   3328     1  0.0000000  1.0460000  1
   3320   3319   3326   3328     1  0.0000000  0.6694400  3
   3320   3321   3325   3335     1  0.0000000  1.0460000  1
   3320   3321   3325   3335     1  0.0000000  0.6694400  3
   3321   3320   3319   3323     1  0.0000000  0.6508444  3
   3321   3320   3339   3329     1  0.0000000  1.2552000  3
   3322   3320   3319   3326     1  0.0000000  1.0460000  1
   3322   3320   3319   3326     1  0.0000000  0.0000000  3
   3322   3320   3319   3323     1  0.0000000  0.6508444  3
   3322   3320   3321   3325     1  0.0000000  1.0460000  1
   3322   3320   3321   3325     1  0.0000000  0.0000000  3
   3322   3320   3321   3334     1  0.0000000  1.0460000  1
   3322   3320   3321   3334     1  0.0000000  0.0000000  3
   3322   3320   3321   3324     1  0.0000000  0.6508444  3
   3322   3320   3339   3329     1  0.0000000  1.2552000  3
   3323   3319   3317   3337     1  0.0000000  1.0460000  1
   3323   3319   3317   3337     1  0.0000000  0.0000000  3
   3323   3319   3317   3336     1  0.0000000  0.6508444  3
   3323   3319   3320   3339     1  0.0000000  0.6508444  3
   3323   3319   3326   3328     1  0.0000000  0.6973333  3
   3324   3321   3320   3339     1  0.0000000  0.6508444  3
   3324   3321   3325   3335     1  0.0000000  0.6973333  3
   3326   3319   3317   3336     1  0.0000000  1.0460000  1
   3326   3319   3317   3336     1  0.0000000  0.0000000  3
   3327   3316   3317   3336     1  0.0000000  0.6508444  3
   3330   3327   3316   3334     1  0.0000000  1.0460000  1
   3330   3327   3316   3334     1  0.0000000  0.0000000  3
   3330   3327   3332   3333     1  0.0000000  0.6973333  3
   3331   3327   3316   3334     1  0.0000000  1.0460000  1
   3331   3327   3316   3334     1  0.0000000  0.0000000  3
   3331   3327   3332   3333     1  0.0000000  0.6973333  3
   3334   3316   3317   3336     1  0.0000000  1.0460000  1
   3334   3316   3317   3336     1  0.0000000  0.0000000  3
   3334   3321   3325   3335     1  0.0000000  0.6973333  3
   3336   3317   3337   3338     1  0.0000000  0.6973333  3
   3341   3343   3345   3347     1  0.0000000  0.6508444  3
   3341   3343   3345   3348     1  0.0000000  0.6508444  3
   3342   3341   3343   3345     1  0.0000000  0.0000000  2
   3342   3341   3343   3344     1  0.0000000  0.0000000  2
   3342   3341   3343   3346     1  0.0000000  0.0000000  2
   3343   3345   3349   3414     1  0.0000000  0.6508444  3
   3344   3343   3345   3349     1  0.0000000  0.6508444  3
   3344   3343   3345   3347     1  0.0000000  0.6508444  3
   3344   3343   3345   3348     1  0.0000000  0.6508444  3
   3345   3349   3350   3359     1  0.0000000  0.6508444  3
   3345   3349   3350   3360     1  0.0000000  0.6508444  3
   3345   3349   3351   3352     1  0.0000000  0.6508444  3
   3345   3349   3351   3354     1  0.0000000  0.6508444  3
   3346   3343   3345   3349     1  0.0000000  0.6508444  3
   3346   3343   3345   3347     1  0.0000000  0.6508444  3
   3346   3343   3345   3348     1  0.0000000  0.6508444  3
   3347   3345   3349   3350     1  0.0000000  0.6508444  3
   3347   3345   3349   3351     1  0.0000000  0.6508444  3
   3347   3345   3349   3414     1  0.0000000  0.6508444  3
   3348   3345   3349   3350     1  0.0000000  0.6508444  3
   3348   3345   3349   3351     1  0.0000000  0.6508444  3
   3348   3345   3349   3414     1  0.0000000  0.6508444  3
   3349   3350   3361   3362     1  0.0000000  0.6508444  3
   3349   3350   3361   3363     1  0.0000000  0.6508444  3
   3349   3351   3353   3355     1  0.0000000  0.6508444  3
   3349   3351   3353   3356     1  0.0000000  0.6508444  3
   3350   3349   3351   3352     1  0.0000000  0.6508444  3
   3350   3349   3351   3354     1  0.0000000  0.6508444  3
   3351   3349   3350   3359     1  0.0000000  0.6508444  3
   3351   3349   3350   3360     1  0.0000000  0.6508444  3
   3352   3351   3353   3357     1  0.0000000  0.6508444  3
   3352   3351   3353   3355     1  0.0000000  0.6508444  3
   3352   3351   3353   3356     1  0.0000000  0.6508444  3
   3352   3351   3349   3414     1  0.0000000  0.6508444  3
   3353   3357   3389   3379     1  180.0000771  6.0668000  2
   3353   3357   3389   3379     1  180.0000771  1.4644000  4
   3353   3351   3349   3414     1  0.0000000  0.6508444  3
   3354   3351   3353   3357     1  0.0000000  0.6508444  3
   3354   3351   3353   3355     1  0.0000000  0.6508444  3
   3354   3351   3353   3356     1  0.0000000  0.6508444  3
   3354   3351   3349   3414     1  0.0000000  0.6508444  3
   3355   3353   3357   3358     1  0.0000000  3.3472000  1
   3355   3353   3357   3358     1  0.0000000  0.0000000  2
   3355   3353   3357   3358     1  180.0000771  0.3347200  3
   3355   3353   3357   3389     1  180.0000771  0.0000000  2
   3356   3353   3357   3358     1  0.0000000  3.3472000  1
   3356   3353   3357   3358     1  0.0000000  0.0000000  2
   3356   3353   3357   3358     1  180.0000771  0.3347200  3
   3356   3353   3357   3389     1  180.0000771  0.0000000  2
   3357   3389   3370   3372     1  0.0000000  1.2552000  3
   3358   3357   3389   3379     1  180.0000771  6.0668000  2
   3358   3357   3389   3379     1  180.0000771  1.4644000  4
   3359   3350   3361   3364     1  0.0000000  0.6508444  3
   3359   3350   3361   3362     1  0.0000000  0.6508444  3
   3359   3350   3361   3363     1  0.0000000  0.6508444  3
   3359   3350   3349   3414     1  0.0000000  0.6508444  3
   3360   3350   3361   3364     1  0.0000000  0.6508444  3
   3360   3350   3361   3362     1  0.0000000  0.6508444  3
   3360   3350   3361   3363     1  0.0000000  0.6508444  3
   3360   3350   3349   3414     1  0.0000000  0.6508444  3
   3361   3364   3413   3403     1  180.0000771  6.0668000  2
   3361   3364   3413   3403     1  180.0000771  1.4644000  4
   3361   3350   3349   3414     1  0.0000000  0.6508444  3
   3362   3361   3364   3365     1  0.0000000  3.3472000  1
   3362   3361   3364   3365     1  0.0000000  0.0000000  2
   3362   3361   3364   3365     1  180.0000771  0.3347200  3
   3362   3361   3364   3413     1  180.0000771  0.0000000  2
   3363   3361   3364   3365     1  0.0000000  3.3472000  1
   3363   3361   3364   3365     1  0.0000000  0.0000000  2
   3363   3361   3364   3365     1  180.0000771  0.3347200  3
   3363   3361   3364   3413     1  180.0000771  0.0000000  2
   3364   3413   3394   3396     1  0.0000000  1.2552000  3
   3365   3364   3413   3403     1  180.0000771  6.0668000  2
   3365   3364   3413   3403     1  180.0000771  1.4644000  4
   3366   3367   3369   3373     1  0.0000000  0.6508444  3
   3366   3367   3387   3388     1  0.0000000  1.0460000  1
   3366   3367   3387   3388     1  0.0000000  0.6694400  3
   3366   3377   3382   3383     1  0.0000000  1.0460000  1
   3366   3377   3382   3383     1  0.0000000  0.6694400  3
   3366   3384   3371   3374     1  0.0000000  1.6038667  3
   3367   3369   3370   3372     1  0.0000000  0.6508444  3
   3367   3369   3376   3378     1  0.0000000  1.0460000  1
   3367   3369   3376   3378     1  0.0000000  0.6694400  3
   3367   3366   3377   3380     1  0.0000000  0.6508444  3
   3367   3366   3377   3381     1  0.0000000  0.6508444  3
   3368   3366   3367   3369     1  0.0000000  0.6508444  3
   3368   3366   3367   3387     1  0.0000000  1.0460000  1
   3368   3366   3367   3387     1  0.0000000  0.0000000  3
   3368   3366   3367   3386     1  0.0000000  0.6508444  3
   3368   3366   3377   3382     1  0.0000000  1.0460000  1
   3368   3366   3377   3382     1  0.0000000  0.0000000  3
   3368   3366   3377   3380     1  0.0000000  0.6508444  3
   3368   3366   3377   3381     1  0.0000000  0.6508444  3
   3368   3366   3384   3371     1  0.0000000  1.6038667  3
   3369   3370   3371   3374     1  0.0000000  0.6508444  3
   3369   3370   3389   3379     1  0.0000000  1.2552000  3
   3369   3367   3387   3388     1  0.0000000  1.0460000  1
   3369   3367   3387   3388     1  0.0000000  0.6694400  3
   3370   3371   3375   3385     1  0.0000000  1.0460000  1
   3370   3371   3375   3385     1  0.0000000  0.6694400  3
   3370   3369   3376   3378     1  0.0000000  1.0460000  1
   3370   3369   3376   3378     1  0.0000000  0.6694400  3
   3370   3369   3367   3386     1  0.0000000  0.6508444  3
   3371   3370   3389   3379     1  0.0000000  1.2552000  3
   3371   3370   3369   3373     1  0.0000000  0.6508444  3
   3372   3370   3371   3375     1  0.0000000  1.0460000  1
   3372   3370   3371   3375     1  0.0000000  0.0000000  3
   3372   3370   3371   3384     1  0.0000000  1.0460000  1
   3372   3370   3371   3384     1  0.0000000  0.0000000  3
   3372   3370   3371   3374     1  0.0000000  0.6508444  3
   3372   3370   3389   3379     1  0.0000000  1.2552000  3
   3372   3370   3369   3376     1  0.0000000  1.0460000  1
   3372   3370   3369   3376     1  0.0000000  0.0000000  3
   3372   3370   3369   3373     1  0.0000000  0.6508444  3
   3373   3369   3370   3389     1  0.0000000  0.6508444  3
   3373   3369   3376   3378     1  0.0000000  0.6973333  3
   3373   3369   3367   3387     1  0.0000000  1.0460000  1
   3373   3369   3367   3387     1  0.0000000  0.0000000  3
   3373   3369   3367   3386     1  0.0000000  0.6508444  3
   3374   3371   3375   3385     1  0.0000000  0.6973333  3
   3374   3371   3370   3389     1  0.0000000  0.6508444  3
   3376   3369   3367   3386     1  0.0000000  1.0460000  1
   3376   3369   3367   3386     1  0.0000000  0.0000000  3
   3377   3366   3367   3386     1  0.0000000  0.6508444  3
   3380   3377   3382   3383     1  0.0000000  0.6973333  3
   3380   3377   3366   3384     1  0.0000000  1.0460000  1
   3380   3377   3366   3384     1  0.0000000  0.0000000  3
   3381   3377   3382   3383     1  0.0000000  0.6973333  3
   3381   3377   3366   3384     1  0.0000000  1.0460000  1
   3381   3377   3366   3384     1  0.0000000  0.0000000  3
   3384   3371   3375   3385     1  0.0000000  0.6973333  3
   3384   3366   3367   3386     1  0.0000000  1.0460000  1
   3384   3366   3367   3386     1  0.0000000  0.0000000  3
   3386   3367   3387   3388     1  0.0000000  0.6973333  3
   3390   3391   3393   3397     1  0.0000000  0.6508444  3
   3390   3391   3411   3412     1  0.0000000  1.0460000  1
   3390   3391   3411   3412     1  0.0000000  0.6694400  3
   3390   3401   3406   3407     1  0.0000000  1.0460000  1
   3390   3401   3406   3407     1  0.0000000  0.6694400  3
   3390   3408   3395   3398     1  0.0000000  1.6038667  3
   3391   3393   3394   3396     1  0.0000000  0.6508444  3
   3391   3393   3400   3402     1  0.0000000  1.0460000  1
   3391   3393   3400   3402     1  0.0000000  0.6694400  3
   3391   3390   3401   3404     1  0.0000000  0.6508444  3
   3391   3390   3401   3405     1  0.0000000  0.6508444  3
   3392   3390   3391   3393     1  0.0000000  0.6508444  3
   3392   3390   3391   3411     1  0.0000000  1.0460000  1
   3392   3390   3391   3411     1  0.0000000  0.0000000  3
   3392   3390   3391   3410     1  0.0000000  0.6508444  3
   3392   3390   3401   3406     1  0.0000000  1.0460000  1
   3392   3390   3401   3406     1  0.0000000  0.0000000  3
   3392   3390   3401   3404     1  0.0000000  0.6508444  3
   3392   3390   3401   3405     1  0.0000000  0.6508444  3
   3392   3390   3408   3395     1  0.0000000  1.6038667  3
   3393   3394   3395   3398     1  0.0000000  0.6508444  3
   3393   3394   3413   3403     1  0.0000000  1.2552000  3
   3393   3391   3411   3412     1  0.0000000  1.0460000  1
   3393   3391   3411   3412     1  0.0000000  0.6694400  3
   3394   3395   3399   3409     1  0.0000000  1.0460000  1
   3394   3395   3399   3409     1  0.0000000  0.6694400  3
   3394   3393   3400   3402     1  0.0000000  1.0460000  1
   3394   3393   3400   3402     1  0.0000000  0.6694400  3
   3394   3393   3391   3410     1  0.0000000  0.6508444  3
   3395   3394   3413   3403     1  0.0000000  1.2552000  3
   3395   3394   3393   3397     1  0.0000000  0.6508444  3
   3396   3394   3395   3399     1  0.0000000  1.0460000  1
   3396   3394   3395   3399     1  0.0000000  0.0000000  3
   3396   3394   3395   3408     1  0.0000000  1.0460000  1
   3396   3394   3395   3408     1  0.0000000  0.0000000  3
   3396   3394   3395   3398     1  0.0000000  0.6508444  3
   3396   3394   3413   3403     1  0.0000000  1.2552000  3
   3396   3394   3393   3400     1  0.0000000  1.0460000  1
   3396   3394   3393   3400     1  0.0000000  0.0000000  3
   3396   3394   3393   3397     1  0.0000000  0.6508444  3
   3397   3393   3394   3413     1  0.0000000  0.6508444  3
   3397   3393   3400   3402     1  0.0000000  0.6973333  3
   3397   3393   3391   3411     1  0.0000000  1.0460000  1
   3397   3393   3391   3411     1  0.0000000  0.0000000  3
   3397   3393   3391   3410     1  0.0000000  0.6508444  3
   3398   3395   3399   3409     1  0.0000000  0.6973333  3
   3398   3395   3394   3413     1  0.0000000  0.6508444  3
   3400   3393   3391   3410     1  0.0000000  1.0460000  1
   3400   3393   3391   3410     1  0.0000000  0.0000000  3
   3401   3390   3391   3410     1  0.0000000  0.6508444  3
   3404   3401   3406   3407     1  0.0000000  0.6973333  3
   3404   3401   3390   3408     1  0.0000000  1.0460000  1
   3404   3401   3390   3408     1  0.0000000  0.0000000  3
   3405   3401   3406   3407     1  0.0000000  0.6973333  3
   3405   3401   3390   3408     1  0.0000000  1.0460000  1
   3405   3401   3390   3408     1  0.0000000  0.0000000  3
   3408   3395   3399   3409     1  0.0000000  0.6973333  3
   3408   3390   3391   3410     1  0.0000000  1.0460000  1
   3408   3390   3391   3410     1  0.0000000  0.0000000  3
   3410   3391   3411   3412     1  0.0000000  0.6973333  3
   3415   3417   3419   3421     1  0.0000000  0.6508444  3
   3415   3417   3419   3422     1  0.0000000  0.6508444  3
   3416   3415   3417   3419     1  0.0000000  0.0000000  2
   3416   3415   3417   3418     1  0.0000000  0.0000000  2
   3416   3415   3417   3420     1  0.0000000  0.0000000  2
   3417   3419   3423   3488     1  0.0000000  0.6508444  3
   3418   3417   3419   3423     1  0.0000000  0.6508444  3
   3418   3417   3419   3421     1  0.0000000  0.6508444  3
   3418   3417   3419   3422     1  0.0000000  0.6508444  3
   3419   3423   3424   3433     1  0.0000000  0.6508444  3
   3419   3423   3424   3434     1  0.0000000  0.6508444  3
   3419   3423   3425   3426     1  0.0000000  0.6508444  3
   3419   3423   3425   3428     1  0.0000000  0.6508444  3
   3420   3417   3419   3423     1  0.0000000  0.6508444  3
   3420   3417   3419   3421     1  0.0000000  0.6508444  3
   3420   3417   3419   3422     1  0.0000000  0.6508444  3
   3421   3419   3423   3424     1  0.0000000  0.6508444  3
   3421   3419   3423   3425     1  0.0000000  0.6508444  3
   3421   3419   3423   3488     1  0.0000000  0.6508444  3
   3422   3419   3423   3424     1  0.0000000  0.6508444  3
   3422   3419   3423   3425     1  0.0000000  0.6508444  3
   3422   3419   3423   3488     1  0.0000000  0.6508444  3
   3423   3424   3435   3436     1  0.0000000  0.6508444  3
   3423   3424   3435   3437     1  0.0000000  0.6508444  3
   3423   3425   3427   3429     1  0.0000000  0.6508444  3
   3423   3425   3427   3430     1  0.0000000  0.6508444  3
   3424   3423   3425   3426     1  0.0000000  0.6508444  3
   3424   3423   3425   3428     1  0.0000000  0.6508444  3
   3425   3423   3424   3433     1  0.0000000  0.6508444  3
   3425   3423   3424   3434     1  0.0000000  0.6508444  3
   3426   3425   3423   3488     1  0.0000000  0.6508444  3
   3426   3425   3427   3431     1  0.0000000  0.6508444  3
   3426   3425   3427   3429     1  0.0000000  0.6508444  3
   3426   3425   3427   3430     1  0.0000000  0.6508444  3
   3427   3425   3423   3488     1  0.0000000  0.6508444  3
   3427   3431   3463   3453     1  180.0000771  6.0668000  2
   3427   3431   3463   3453     1  180.0000771  1.4644000  4
   3428   3425   3423   3488     1  0.0000000  0.6508444  3
   3428   3425   3427   3431     1  0.0000000  0.6508444  3
   3428   3425   3427   3429     1  0.0000000  0.6508444  3
   3428   3425   3427   3430     1  0.0000000  0.6508444  3
   3429   3427   3431   3432     1  0.0000000  3.3472000  1
   3429   3427   3431   3432     1  0.0000000  0.0000000  2
   3429   3427   3431   3432     1  180.0000771  0.3347200  3
   3429   3427   3431   3463     1  180.0000771  0.0000000  2
   3430   3427   3431   3432     1  0.0000000  3.3472000  1
   3430   3427   3431   3432     1  0.0000000  0.0000000  2
   3430   3427   3431   3432     1  180.0000771  0.3347200  3
   3430   3427   3431   3463     1  180.0000771  0.0000000  2
   3431   3463   3444   3446     1  0.0000000  1.2552000  3
   3432   3431   3463   3453     1  180.0000771  6.0668000  2
   3432   3431   3463   3453     1  180.0000771  1.4644000  4
   3433   3424   3423   3488     1  0.0000000  0.6508444  3
   3433   3424   3435   3438     1  0.0000000  0.6508444  3
   3433   3424   3435   3436     1  0.0000000  0.6508444  3
   3433   3424   3435   3437     1  0.0000000  0.6508444  3
   3434   3424   3423   3488     1  0.0000000  0.6508444  3
   3434   3424   3435   3438     1  0.0000000  0.6508444  3
   3434   3424   3435   3436     1  0.0000000  0.6508444  3
   3434   3424   3435   3437     1  0.0000000  0.6508444  3
   3435   3424   3423   3488     1  0.0000000  0.6508444  3
   3435   3438   3487   3477     1  180.0000771  6.0668000  2
   3435   3438   3487   3477     1  180.0000771  1.4644000  4
   3436   3435   3438   3439     1  0.0000000  3.3472000  1
   3436   3435   3438   3439     1  0.0000000  0.0000000  2
   3436   3435   3438   3439     1  180.0000771  0.3347200  3
   3436   3435   3438   3487     1  180.0000771  0.0000000  2
   3437   3435   3438   3439     1  0.0000000  3.3472000  1
   3437   3435   3438   3439     1  0.0000000  0.0000000  2
   3437   3435   3438   3439     1  180.0000771  0.3347200  3
   3437   3435   3438   3487     1  180.0000771  0.0000000  2
   3438   3487   3468   3470     1  0.0000000  1.2552000  3
   3439   3438   3487   3477     1  180.0000771  6.0668000  2
   3439   3438   3487   3477     1  180.0000771  1.4644000  4
   3440   3441   3443   3447     1  0.0000000  0.6508444  3
   3440   3441   3461   3462     1  0.0000000  1.0460000  1
   3440   3441   3461   3462     1  0.0000000  0.6694400  3
   3440   3451   3456   3457     1  0.0000000  1.0460000  1
   3440   3451   3456   3457     1  0.0000000  0.6694400  3
   3440   3458   3445   3448     1  0.0000000  1.6038667  3
   3441   3440   3451   3454     1  0.0000000  0.6508444  3
   3441   3440   3451   3455     1  0.0000000  0.6508444  3
   3441   3443   3444   3446     1  0.0000000  0.6508444  3
   3441   3443   3450   3452     1  0.0000000  1.0460000  1
   3441   3443   3450   3452     1  0.0000000  0.6694400  3
   3442   3440   3441   3443     1  0.0000000  0.6508444  3
   3442   3440   3441   3461     1  0.0000000  1.0460000  1
   3442   3440   3441   3461     1  0.0000000  0.0000000  3
   3442   3440   3441   3460     1  0.0000000  0.6508444  3
   3442   3440   3451   3456     1  0.0000000  1.0460000  1
   3442   3440   3451   3456     1  0.0000000  0.0000000  3
   3442   3440   3451   3454     1  0.0000000  0.6508444  3
   3442   3440   3451   3455     1  0.0000000  0.6508444  3
   3442   3440   3458   3445     1  0.0000000  1.6038667  3
   3443   3441   3461   3462     1  0.0000000  1.0460000  1
   3443   3441   3461   3462     1  0.0000000  0.6694400  3
   3443   3444   3445   3448     1  0.0000000  0.6508444  3
   3443   3444   3463   3453     1  0.0000000  1.2552000  3
   3444   3443   3441   3460     1  0.0000000  0.6508444  3
   3444   3443   3450   3452     1  0.0000000  1.0460000  1
   3444   3443   3450   3452     1  0.0000000  0.6694400  3
   3444   3445   3449   3459     1  0.0000000  1.0460000  1
   3444   3445   3449   3459     1  0.0000000  0.6694400  3
   3445   3444   3443   3447     1  0.0000000  0.6508444  3
   3445   3444   3463   3453     1  0.0000000  1.2552000  3
   3446   3444   3443   3450     1  0.0000000  1.0460000  1
   3446   3444   3443   3450     1  0.0000000  0.0000000  3
   3446   3444   3443   3447     1  0.0000000  0.6508444  3
   3446   3444   3445   3449     1  0.0000000  1.0460000  1
   3446   3444   3445   3449     1  0.0000000  0.0000000  3
   3446   3444   3445   3458     1  0.0000000  1.0460000  1
   3446   3444   3445   3458     1  0.0000000  0.0000000  3
   3446   3444   3445   3448     1  0.0000000  0.6508444  3
   3446   3444   3463   3453     1  0.0000000  1.2552000  3
   3447   3443   3441   3461     1  0.0000000  1.0460000  1
   3447   3443   3441   3461     1  0.0000000  0.0000000  3
   3447   3443   3441   3460     1  0.0000000  0.6508444  3
   3447   3443   3444   3463     1  0.0000000  0.6508444  3
   3447   3443   3450   3452     1  0.0000000  0.6973333  3
   3448   3445   3444   3463     1  0.0000000  0.6508444  3
   3448   3445   3449   3459     1  0.0000000  0.6973333  3
   3450   3443   3441   3460     1  0.0000000  1.0460000  1
   3450   3443   3441   3460     1  0.0000000  0.0000000  3
   3451   3440   3441   3460     1  0.0000000  0.6508444  3
   3454   3451   3440   3458     1  0.0000000  1.0460000  1
   3454   3451   3440   3458     1  0.0000000  0.0000000  3
   3454   3451   3456   3457     1  0.0000000  0.6973333  3
   3455   3451   3440   3458     1  0.0000000  1.0460000  1
   3455   3451   3440   3458     1  0.0000000  0.0000000  3
   3455   3451   3456   3457     1  0.0000000  0.6973333  3
   3458   3440   3441   3460     1  0.0000000  1.0460000  1
   3458   3440   3441   3460     1  0.0000000  0.0000000  3
   3458   3445   3449   3459     1  0.0000000  0.6973333  3
   3460   3441   3461   3462     1  0.0000000  0.6973333  3
   3464   3465   3467   3471     1  0.0000000  0.6508444  3
   3464   3465   3485   3486     1  0.0000000  1.0460000  1
   3464   3465   3485   3486     1  0.0000000  0.6694400  3
   3464   3475   3480   3481     1  0.0000000  1.0460000  1
   3464   3475   3480   3481     1  0.0000000  0.6694400  3
   3464   3482   3469   3472     1  0.0000000  1.6038667  3
   3465   3464   3475   3478     1  0.0000000  0.6508444  3
   3465   3464   3475   3479     1  0.0000000  0.6508444  3
   3465   3467   3468   3470     1  0.0000000  0.6508444  3
   3465   3467   3474   3476     1  0.0000000  1.0460000  1
   3465   3467   3474   3476     1  0.0000000  0.6694400  3
   3466   3464   3465   3467     1  0.0000000  0.6508444  3
   3466   3464   3465   3485     1  0.0000000  1.0460000  1
   3466   3464   3465   3485     1  0.0000000  0.0000000  3
   3466   3464   3465   3484     1  0.0000000  0.6508444  3
   3466   3464   3475   3480     1  0.0000000  1.0460000  1
   3466   3464   3475   3480     1  0.0000000  0.0000000  3
   3466   3464   3475   3478     1  0.0000000  0.6508444  3
   3466   3464   3475   3479     1  0.0000000  0.6508444  3
   3466   3464   3482   3469     1  0.0000000  1.6038667  3
   3467   3465   3485   3486     1  0.0000000  1.0460000  1
   3467   3465   3485   3486     1  0.0000000  0.6694400  3
   3467   3468   3469   3472     1  0.0000000  0.6508444  3
   3467   3468   3487   3477     1  0.0000000  1.2552000  3
   3468   3467   3465   3484     1  0.0000000  0.6508444  3
   3468   3467   3474   3476     1  0.0000000  1.0460000  1
   3468   3467   3474   3476     1  0.0000000  0.6694400  3
   3468   3469   3473   3483     1  0.0000000  1.0460000  1
   3468   3469   3473   3483     1  0.0000000  0.6694400  3
   3469   3468   3467   3471     1  0.0000000  0.6508444  3
   3469   3468   3487   3477     1  0.0000000  1.2552000  3
   3470   3468   3467   3474     1  0.0000000  1.0460000  1
   3470   3468   3467   3474     1  0.0000000  0.0000000  3
   3470   3468   3467   3471     1  0.0000000  0.6508444  3
   3470   3468   3469   3473     1  0.0000000  1.0460000  1
   3470   3468   3469   3473     1  0.0000000  0.0000000  3
   3470   3468   3469   3482     1  0.0000000  1.0460000  1
   3470   3468   3469   3482     1  0.0000000  0.0000000  3
   3470   3468   3469   3472     1  0.0000000  0.6508444  3
   3470   3468   3487   3477     1  0.0000000  1.2552000  3
   3471   3467   3465   3485     1  0.0000000  1.0460000  1
   3471   3467   3465   3485     1  0.0000000  0.0000000  3
   3471   3467   3465   3484     1  0.0000000  0.6508444  3
   3471   3467   3468   3487     1  0.0000000  0.6508444  3
   3471   3467   3474   3476     1  0.0000000  0.6973333  3
   3472   3469   3468   3487     1  0.0000000  0.6508444  3
   3472   3469   3473   3483     1  0.0000000  0.6973333  3
   3474   3467   3465   3484     1  0.0000000  1.0460000  1
   3474   3467   3465   3484     1  0.0000000  0.0000000  3
   3475   3464   3465   3484     1  0.0000000  0.6508444  3
   3478   3475   3464   3482     1  0.0000000  1.0460000  1
   3478   3475   3464   3482     1  0.0000000  0.0000000  3
   3478   3475   3480   3481     1  0.0000000  0.6973333  3
   3479   3475   3464   3482     1  0.0000000  1.0460000  1
   3479   3475   3464   3482     1  0.0000000  0.0000000  3
   3479   3475   3480   3481     1  0.0000000  0.6973333  3
   3482   3464   3465   3484     1  0.0000000  1.0460000  1
   3482   3464   3465   3484     1  0.0000000  0.0000000  3
   3482   3469   3473   3483     1  0.0000000  0.6973333  3
   3484   3465   3485   3486     1  0.0000000  0.6973333  3
   3489   3491   3493   3495     1  0.0000000  0.6508444  3
   3489   3491   3493   3496     1  0.0000000  0.6508444  3
   3490   3489   3491   3493     1  0.0000000  0.0000000  2
   3490   3489   3491   3492     1  0.0000000  0.0000000  2
   3490   3489   3491   3494     1  0.0000000  0.0000000  2
   3491   3493   3497   3562     1  0.0000000  0.6508444  3
   3492   3491   3493   3497     1  0.0000000  0.6508444  3
   3492   3491   3493   3495     1  0.0000000  0.6508444  3
   3492   3491   3493   3496     1  0.0000000  0.6508444  3
   3493   3497   3498   3507     1  0.0000000  0.6508444  3
   3493   3497   3498   3508     1  0.0000000  0.6508444  3
   3493   3497   3499   3500     1  0.0000000  0.6508444  3
   3493   3497   3499   3502     1  0.0000000  0.6508444  3
   3494   3491   3493   3497     1  0.0000000  0.6508444  3
   3494   3491   3493   3495     1  0.0000000  0.6508444  3
   3494   3491   3493   3496     1  0.0000000  0.6508444  3
   3495   3493   3497   3498     1  0.0000000  0.6508444  3
   3495   3493   3497   3499     1  0.0000000  0.6508444  3
   3495   3493   3497   3562     1  0.0000000  0.6508444  3
   3496   3493   3497   3498     1  0.0000000  0.6508444  3
   3496   3493   3497   3499     1  0.0000000  0.6508444  3
   3496   3493   3497   3562     1  0.0000000  0.6508444  3
   3497   3498   3509   3510     1  0.0000000  0.6508444  3
   3497   3498   3509   3511     1  0.0000000  0.6508444  3
   3497   3499   3501   3503     1  0.0000000  0.6508444  3
   3497   3499   3501   3504     1  0.0000000  0.6508444  3
   3498   3497   3499   3500     1  0.0000000  0.6508444  3
   3498   3497   3499   3502     1  0.0000000  0.6508444  3
   3499   3497   3498   3507     1  0.0000000  0.6508444  3
   3499   3497   3498   3508     1  0.0000000  0.6508444  3
   3500   3499   3501   3505     1  0.0000000  0.6508444  3
   3500   3499   3501   3503     1  0.0000000  0.6508444  3
   3500   3499   3501   3504     1  0.0000000  0.6508444  3
   3500   3499   3497   3562     1  0.0000000  0.6508444  3
   3501   3505   3537   3527     1  180.0000771  6.0668000  2
   3501   3505   3537   3527     1  180.0000771  1.4644000  4
   3501   3499   3497   3562     1  0.0000000  0.6508444  3
   3502   3499   3501   3505     1  0.0000000  0.6508444  3
   3502   3499   3501   3503     1  0.0000000  0.6508444  3
   3502   3499   3501   3504     1  0.0000000  0.6508444  3
   3502   3499   3497   3562     1  0.0000000  0.6508444  3
   3503   3501   3505   3506     1  0.0000000  3.3472000  1
   3503   3501   3505   3506     1  0.0000000  0.0000000  2
   3503   3501   3505   3506     1  180.0000771  0.3347200  3
   3503   3501   3505   3537     1  180.0000771  0.0000000  2
   3504   3501   3505   3506     1  0.0000000  3.3472000  1
   3504   3501   3505   3506     1  0.0000000  0.0000000  2
   3504   3501   3505   3506     1  180.0000771  0.3347200  3
   3504   3501   3505   3537     1  180.0000771  0.0000000  2
   3505   3537   3518   3520     1  0.0000000  1.2552000  3
   3506   3505   3537   3527     1  180.0000771  6.0668000  2
   3506   3505   3537   3527     1  180.0000771  1.4644000  4
   3507   3498   3509   3512     1  0.0000000  0.6508444  3
   3507   3498   3509   3510     1  0.0000000  0.6508444  3
   3507   3498   3509   3511     1  0.0000000  0.6508444  3
   3507   3498   3497   3562     1  0.0000000  0.6508444  3
   3508   3498   3509   3512     1  0.0000000  0.6508444  3
   3508   3498   3509   3510     1  0.0000000  0.6508444  3
   3508   3498   3509   3511     1  0.0000000  0.6508444  3
   3508   3498   3497   3562     1  0.0000000  0.6508444  3
   3509   3512   3561   3551     1  180.0000771  6.0668000  2
   3509   3512   3561   3551     1  180.0000771  1.4644000  4
   3509   3498   3497   3562     1  0.0000000  0.6508444  3
   3510   3509   3512   3513     1  0.0000000  3.3472000  1
   3510   3509   3512   3513     1  0.0000000  0.0000000  2
   3510   3509   3512   3513     1  180.0000771  0.3347200  3
   3510   3509   3512   3561     1  180.0000771  0.0000000  2
   3511   3509   3512   3513     1  0.0000000  3.3472000  1
   3511   3509   3512   3513     1  0.0000000  0.0000000  2
   3511   3509   3512   3513     1  180.0000771  0.3347200  3
   3511   3509   3512   3561     1  180.0000771  0.0000000  2
   3512   3561   3542   3544     1  0.0000000  1.2552000  3
   3513   3512   3561   3551     1  180.0000771  6.0668000  2
   3513   3512   3561   3551     1  180.0000771  1.4644000  4
   3514   3515   3517   3521     1  0.0000000  0.6508444  3
   3514   3515   3535   3536     1  0.0000000  1.0460000  1
   3514   3515   3535   3536     1  0.0000000  0.6694400  3
   3514   3525   3530   3531     1  0.0000000  1.0460000  1
   3514   3525   3530   3531     1  0.0000000  0.6694400  3
   3514   3532   3519   3522     1  0.0000000  1.6038667  3
   3515   3517   3518   3520     1  0.0000000  0.6508444  3
   3515   3517   3524   3526     1  0.0000000  1.0460000  1
   3515   3517   3524   3526     1  0.0000000  0.6694400  3
   3515   3514   3525   3528     1  0.0000000  0.6508444  3
   3515   3514   3525   3529     1  0.0000000  0.6508444  3
   3516   3514   3515   3517     1  0.0000000  0.6508444  3
   3516   3514   3515   3535     1  0.0000000  1.0460000  1
   3516   3514   3515   3535     1  0.0000000  0.0000000  3
   3516   3514   3515   3534     1  0.0000000  0.6508444  3
   3516   3514   3525   3530     1  0.0000000  1.0460000  1
   3516   3514   3525   3530     1  0.0000000  0.0000000  3
   3516   3514   3525   3528     1  0.0000000  0.6508444  3
   3516   3514   3525   3529     1  0.0000000  0.6508444  3
   3516   3514   3532   3519     1  0.0000000  1.6038667  3
   3517   3518   3519   3522     1  0.0000000  0.6508444  3
   3517   3518   3537   3527     1  0.0000000  1.2552000  3
   3517   3515   3535   3536     1  0.0000000  1.0460000  1
   3517   3515   3535   3536     1  0.0000000  0.6694400  3
   3518   3519   3523   3533     1  0.0000000  1.0460000  1
   3518   3519   3523   3533     1  0.0000000  0.6694400  3
   3518   3517   3524   3526     1  0.0000000  1.0460000  1
   3518   3517   3524   3526     1  0.0000000  0.6694400  3
   3518   3517   3515   3534     1  0.0000000  0.6508444  3
   3519   3518   3537   3527     1  0.0000000  1.2552000  3
   3519   3518   3517   3521     1  0.0000000  0.6508444  3
   3520   3518   3519   3523     1  0.0000000  1.0460000  1
   3520   3518   3519   3523     1  0.0000000  0.0000000  3
   3520   3518   3519   3532     1  0.0000000  1.0460000  1
   3520   3518   3519   3532     1  0.0000000  0.0000000  3
   3520   3518   3519   3522     1  0.0000000  0.6508444  3
   3520   3518   3537   3527     1  0.0000000  1.2552000  3
   3520   3518   3517   3524     1  0.0000000  1.0460000  1
   3520   3518   3517   3524     1  0.0000000  0.0000000  3
   3520   3518   3517   3521     1  0.0000000  0.6508444  3
   3521   3517   3518   3537     1  0.0000000  0.6508444  3
   3521   3517   3524   3526     1  0.0000000  0.6973333  3
   3521   3517   3515   3535     1  0.0000000  1.0460000  1
   3521   3517   3515   3535     1  0.0000000  0.0000000  3
   3521   3517   3515   3534     1  0.0000000  0.6508444  3
   3522   3519   3523   3533     1  0.0000000  0.6973333  3
   3522   3519   3518   3537     1  0.0000000  0.6508444  3
   3524   3517   3515   3534     1  0.0000000  1.0460000  1
   3524   3517   3515   3534     1  0.0000000  0.0000000  3
   3525   3514   3515   3534     1  0.0000000  0.6508444  3
   3528   3525   3530   3531     1  0.0000000  0.6973333  3
   3528   3525   3514   3532     1  0.0000000  1.0460000  1
   3528   3525   3514   3532     1  0.0000000  0.0000000  3
   3529   3525   3530   3531     1  0.0000000  0.6973333  3
   3529   3525   3514   3532     1  0.0000000  1.0460000  1
   3529   3525   3514   3532     1  0.0000000  0.0000000  3
   3532   3519   3523   3533     1  0.0000000  0.6973333  3
   3532   3514   3515   3534     1  0.0000000  1.0460000  1
   3532   3514   3515   3534     1  0.0000000  0.0000000  3
   3534   3515   3535   3536     1  0.0000000  0.6973333  3
   3538   3539   3541   3545     1  0.0000000  0.6508444  3
   3538   3539   3559   3560     1  0.0000000  1.0460000  1
   3538   3539   3559   3560     1  0.0000000  0.6694400  3
   3538   3549   3554   3555     1  0.0000000  1.0460000  1
   3538   3549   3554   3555     1  0.0000000  0.6694400  3
   3538   3556   3543   3546     1  0.0000000  1.6038667  3
   3539   3541   3542   3544     1  0.0000000  0.6508444  3
   3539   3541   3548   3550     1  0.0000000  1.0460000  1
   3539   3541   3548   3550     1  0.0000000  0.6694400  3
   3539   3538   3549   3552     1  0.0000000  0.6508444  3
   3539   3538   3549   3553     1  0.0000000  0.6508444  3
   3540   3538   3539   3541     1  0.0000000  0.6508444  3
   3540   3538   3539   3559     1  0.0000000  1.0460000  1
   3540   3538   3539   3559     1  0.0000000  0.0000000  3
   3540   3538   3539   3558     1  0.0000000  0.6508444  3
   3540   3538   3549   3554     1  0.0000000  1.0460000  1
   3540   3538   3549   3554     1  0.0000000  0.0000000  3
   3540   3538   3549   3552     1  0.0000000  0.6508444  3
   3540   3538   3549   3553     1  0.0000000  0.6508444  3
   3540   3538   3556   3543     1  0.0000000  1.6038667  3
   3541   3542   3543   3546     1  0.0000000  0.6508444  3
   3541   3542   3561   3551     1  0.0000000  1.2552000  3
   3541   3539   3559   3560     1  0.0000000  1.0460000  1
   3541   3539   3559   3560     1  0.0000000  0.6694400  3
   3542   3543   3547   3557     1  0.0000000  1.0460000  1
   3542   3543   3547   3557     1  0.0000000  0.6694400  3
   3542   3541   3548   3550     1  0.0000000  1.0460000  1
   3542   3541   3548   3550     1  0.0000000  0.6694400  3
   3542   3541   3539   3558     1  0.0000000  0.6508444  3
   3543   3542   3561   3551     1  0.0000000  1.2552000  3
   3543   3542   3541   3545     1  0.0000000  0.6508444  3
   3544   3542   3543   3547     1  0.0000000  1.0460000  1
   3544   3542   3543   3547     1  0.0000000  0.0000000  3
   3544   3542   3543   3556     1  0.0000000  1.0460000  1
   3544   3542   3543   3556     1  0.0000000  0.0000000  3
   3544   3542   3543   3546     1  0.0000000  0.6508444  3
   3544   3542   3561   3551     1  0.0000000  1.2552000  3
   3544   3542   3541   3548     1  0.0000000  1.0460000  1
   3544   3542   3541   3548     1  0.0000000  0.0000000  3
   3544   3542   3541   3545     1  0.0000000  0.6508444  3
   3545   3541   3542   3561     1  0.0000000  0.6508444  3
   3545   3541   3548   3550     1  0.0000000  0.6973333  3
   3545   3541   3539   3559     1  0.0000000  1.0460000  1
   3545   3541   3539   3559     1  0.0000000  0.0000000  3
   3545   3541   3539   3558     1  0.0000000  0.6508444  3
   3546   3543   3547   3557     1  0.0000000  0.6973333  3
   3546   3543   3542   3561     1  0.0000000  0.6508444  3
   3548   3541   3539   3558     1  0.0000000  1.0460000  1
   3548   3541   3539   3558     1  0.0000000  0.0000000  3
   3549   3538   3539   3558     1  0.0000000  0.6508444  3
   3552   3549   3554   3555     1  0.0000000  0.6973333  3
   3552   3549   3538   3556     1  0.0000000  1.0460000  1
   3552   3549   3538   3556     1  0.0000000  0.0000000  3
   3553   3549   3554   3555     1  0.0000000  0.6973333  3
   3553   3549   3538   3556     1  0.0000000  1.0460000  1
   3553   3549   3538   3556     1  0.0000000  0.0000000  3
   3556   3543   3547   3557     1  0.0000000  0.6973333  3
   3556   3538   3539   3558     1  0.0000000  1.0460000  1
   3556   3538   3539   3558     1  0.0000000  0.0000000  3
   3558   3539   3559   3560     1  0.0000000  0.6973333  3
   3563   3565   3567   3569     1  0.0000000  0.6508444  3
   3563   3565   3567   3570     1  0.0000000  0.6508444  3
   3564   3563   3565   3567     1  0.0000000  0.0000000  2
   3564   3563   3565   3566     1  0.0000000  0.0000000  2
   3564   3563   3565   3568     1  0.0000000  0.0000000  2
   3565   3567   3571   3636     1  0.0000000  0.6508444  3
   3566   3565   3567   3571     1  0.0000000  0.6508444  3
   3566   3565   3567   3569     1  0.0000000  0.6508444  3
   3566   3565   3567   3570     1  0.0000000  0.6508444  3
   3567   3571   3572   3581     1  0.0000000  0.6508444  3
   3567   3571   3572   3582     1  0.0000000  0.6508444  3
   3567   3571   3573   3574     1  0.0000000  0.6508444  3
   3567   3571   3573   3576     1  0.0000000  0.6508444  3
   3568   3565   3567   3571     1  0.0000000  0.6508444  3
   3568   3565   3567   3569     1  0.0000000  0.6508444  3
   3568   3565   3567   3570     1  0.0000000  0.6508444  3
   3569   3567   3571   3572     1  0.0000000  0.6508444  3
   3569   3567   3571   3573     1  0.0000000  0.6508444  3
   3569   3567   3571   3636     1  0.0000000  0.6508444  3
   3570   3567   3571   3572     1  0.0000000  0.6508444  3
   3570   3567   3571   3573     1  0.0000000  0.6508444  3
   3570   3567   3571   3636     1  0.0000000  0.6508444  3
   3571   3572   3583   3584     1  0.0000000  0.6508444  3
   3571   3572   3583   3585     1  0.0000000  0.6508444  3
   3571   3573   3575   3577     1  0.0000000  0.6508444  3
   3571   3573   3575   3578     1  0.0000000  0.6508444  3
   3572   3571   3573   3574     1  0.0000000  0.6508444  3
   3572   3571   3573   3576     1  0.0000000  0.6508444  3
   3573   3571   3572   3581     1  0.0000000  0.6508444  3
   3573   3571   3572   3582     1  0.0000000  0.6508444  3
   3574   3573   3571   3636     1  0.0000000  0.6508444  3
   3574   3573   3575   3579     1  0.0000000  0.6508444  3
   3574   3573   3575   3577     1  0.0000000  0.6508444  3
   3574   3573   3575   3578     1  0.0000000  0.6508444  3
   3575   3573   3571   3636     1  0.0000000  0.6508444  3
   3575   3579   3611   3601     1  180.0000771  6.0668000  2
   3575   3579   3611   3601     1  180.0000771  1.4644000  4
   3576   3573   3571   3636     1  0.0000000  0.6508444  3
   3576   3573   3575   3579     1  0.0000000  0.6508444  3
   3576   3573   3575   3577     1  0.0000000  0.6508444  3
   3576   3573   3575   3578     1  0.0000000  0.6508444  3
   3577   3575   3579   3580     1  0.0000000  3.3472000  1
   3577   3575   3579   3580     1  0.0000000  0.0000000  2
   3577   3575   3579   3580     1  180.0000771  0.3347200  3
   3577   3575   3579   3611     1  180.0000771  0.0000000  2
   3578   3575   3579   3580     1  0.0000000  3.3472000  1
   3578   3575   3579   3580     1  0.0000000  0.0000000  2
   3578   3575   3579   3580     1  180.0000771  0.3347200  3
   3578   3575   3579   3611     1  180.0000771  0.0000000  2
   3579   3611   3592   3594     1  0.0000000  1.2552000  3
   3580   3579   3611   3601     1  180.0000771  6.0668000  2
   3580   3579   3611   3601     1  180.0000771  1.4644000  4
   3581   3572   3571   3636     1  0.0000000  0.6508444  3
   3581   3572   3583   3586     1  0.0000000  0.6508444  3
   3581   3572   3583   3584     1  0.0000000  0.6508444  3
   3581   3572   3583   3585     1  0.0000000  0.6508444  3
   3582   3572   3571   3636     1  0.0000000  0.6508444  3
   3582   3572   3583   3586     1  0.0000000  0.6508444  3
   3582   3572   3583   3584     1  0.0000000  0.6508444  3
   3582   3572   3583   3585     1  0.0000000  0.6508444  3
   3583   3572   3571   3636     1  0.0000000  0.6508444  3
   3583   3586   3635   3625     1  180.0000771  6.0668000  2
   3583   3586   3635   3625     1  180.0000771  1.4644000  4
   3584   3583   3586   3587     1  0.0000000  3.3472000  1
   3584   3583   3586   3587     1  0.0000000  0.0000000  2
   3584   3583   3586   3587     1  180.0000771  0.3347200  3
   3584   3583   3586   3635     1  180.0000771  0.0000000  2
   3585   3583   3586   3587     1  0.0000000  3.3472000  1
   3585   3583   3586   3587     1  0.0000000  0.0000000  2
   3585   3583   3586   3587     1  180.0000771  0.3347200  3
   3585   3583   3586   3635     1  180.0000771  0.0000000  2
   3586   3635   3616   3618     1  0.0000000  1.2552000  3
   3587   3586   3635   3625     1  180.0000771  6.0668000  2
   3587   3586   3635   3625     1  180.0000771  1.4644000  4
   3588   3589   3591   3595     1  0.0000000  0.6508444  3
   3588   3589   3609   3610     1  0.0000000  1.0460000  1
   3588   3589   3609   3610     1  0.0000000  0.6694400  3
   3588   3599   3604   3605     1  0.0000000  1.0460000  1
   3588   3599   3604   3605     1  0.0000000  0.6694400  3
   3588   3606   3593   3596     1  0.0000000  1.6038667  3
   3589   3588   3599   3602     1  0.0000000  0.6508444  3
   3589   3588   3599   3603     1  0.0000000  0.6508444  3
   3589   3591   3592   3594     1  0.0000000  0.6508444  3
   3589   3591   3598   3600     1  0.0000000  1.0460000  1
   3589   3591   3598   3600     1  0.0000000  0.6694400  3
   3590   3588   3589   3591     1  0.0000000  0.6508444  3
   3590   3588   3589   3609     1  0.0000000  1.0460000  1
   3590   3588   3589   3609     1  0.0000000  0.0000000  3
   3590   3588   3589   3608     1  0.0000000  0.6508444  3
   3590   3588   3599   3604     1  0.0000000  1.0460000  1
   3590   3588   3599   3604     1  0.0000000  0.0000000  3
   3590   3588   3599   3602     1  0.0000000  0.6508444  3
   3590   3588   3599   3603     1  0.0000000  0.6508444  3
   3590   3588   3606   3593     1  0.0000000  1.6038667  3
   3591   3589   3609   3610     1  0.0000000  1.0460000  1
   3591   3589   3609   3610     1  0.0000000  0.6694400  3
   3591   3592   3593   3596     1  0.0000000  0.6508444  3
   3591   3592   3611   3601     1  0.0000000  1.2552000  3
   3592   3591   3589   3608     1  0.0000000  0.6508444  3
   3592   3591   3598   3600     1  0.0000000  1.0460000  1
   3592   3591   3598   3600     1  0.0000000  0.6694400  3
   3592   3593   3597   3607     1  0.0000000  1.0460000  1
   3592   3593   3597   3607     1  0.0000000  0.6694400  3
   3593   3592   3591   3595     1  0.0000000  0.6508444  3
   3593   3592   3611   3601     1  0.0000000  1.2552000  3
   3594   3592   3591   3598     1  0.0000000  1.0460000  1
   3594   3592   3591   3598     1  0.0000000  0.0000000  3
   3594   3592   3591   3595     1  0.0000000  0.6508444  3
   3594   3592   3593   3597     1  0.0000000  1.0460000  1
   3594   3592   3593   3597     1  0.0000000  0.0000000  3
   3594   3592   3593   3606     1  0.0000000  1.0460000  1
   3594   3592   3593   3606     1  0.0000000  0.0000000  3
   3594   3592   3593   3596     1  0.0000000  0.6508444  3
   3594   3592   3611   3601     1  0.0000000  1.2552000  3
   3595   3591   3589   3609     1  0.0000000  1.0460000  1
   3595   3591   3589   3609     1  0.0000000  0.0000000  3
   3595   3591   3589   3608     1  0.0000000  0.6508444  3
   3595   3591   3592   3611     1  0.0000000  0.6508444  3
   3595   3591   3598   3600     1  0.0000000  0.6973333  3
   3596   3593   3592   3611     1  0.0000000  0.6508444  3
   3596   3593   3597   3607     1  0.0000000  0.6973333  3
   3598   3591   3589   3608     1  0.0000000  1.0460000  1
   3598   3591   3589   3608     1  0.0000000  0.0000000  3
   3599   3588   3589   3608     1  0.0000000  0.6508444  3
   3602   3599   3588   3606     1  0.0000000  1.0460000  1
   3602   3599   3588   3606     1  0.0000000  0.0000000  3
   3602   3599   3604   3605     1  0.0000000  0.6973333  3
   3603   3599   3588   3606     1  0.0000000  1.0460000  1
   3603   3599   3588   3606     1  0.0000000  0.0000000  3
   3603   3599   3604   3605     1  0.0000000  0.6973333  3
   3606   3588   3589   3608     1  0.0000000  1.0460000  1
   3606   3588   3589   3608     1  0.0000000  0.0000000  3
   3606   3593   3597   3607     1  0.0000000  0.6973333  3
   3608   3589   3609   3610     1  0.0000000  0.6973333  3
   3612   3613   3615   3619     1  0.0000000  0.6508444  3
   3612   3613   3633   3634     1  0.0000000  1.0460000  1
   3612   3613   3633   3634     1  0.0000000  0.6694400  3
   3612   3623   3628   3629     1  0.0000000  1.0460000  1
   3612   3623   3628   3629     1  0.0000000  0.6694400  3
   3612   3630   3617   3620     1  0.0000000  1.6038667  3
   3613   3612   3623   3626     1  0.0000000  0.6508444  3
   3613   3612   3623   3627     1  0.0000000  0.6508444  3
   3613   3615   3616   3618     1  0.0000000  0.6508444  3
   3613   3615   3622   3624     1  0.0000000  1.0460000  1
   3613   3615   3622   3624     1  0.0000000  0.6694400  3
   3614   3612   3613   3615     1  0.0000000  0.6508444  3
   3614   3612   3613   3633     1  0.0000000  1.0460000  1
   3614   3612   3613   3633     1  0.0000000  0.0000000  3
   3614   3612   3613   3632     1  0.0000000  0.6508444  3
   3614   3612   3623   3628     1  0.0000000  1.0460000  1
   3614   3612   3623   3628     1  0.0000000  0.0000000  3
   3614   3612   3623   3626     1  0.0000000  0.6508444  3
   3614   3612   3623   3627     1  0.0000000  0.6508444  3
   3614   3612   3630   3617     1  0.0000000  1.6038667  3
   3615   3613   3633   3634     1  0.0000000  1.0460000  1
   3615   3613   3633   3634     1  0.0000000  0.6694400  3
   3615   3616   3617   3620     1  0.0000000  0.6508444  3
   3615   3616   3635   3625     1  0.0000000  1.2552000  3
   3616   3615   3613   3632     1  0.0000000  0.6508444  3
   3616   3615   3622   3624     1  0.0000000  1.0460000  1
   3616   3615   3622   3624     1  0.0000000  0.6694400  3
   3616   3617   3621   3631     1  0.0000000  1.0460000  1
   3616   3617   3621   3631     1  0.0000000  0.6694400  3
   3617   3616   3615   3619     1  0.0000000  0.6508444  3
   3617   3616   3635   3625     1  0.0000000  1.2552000  3
   3618   3616   3615   3622     1  0.0000000  1.0460000  1
   3618   3616   3615   3622     1  0.0000000  0.0000000  3
   3618   3616   3615   3619     1  0.0000000  0.6508444  3
   3618   3616   3617   3621     1  0.0000000  1.0460000  1
   3618   3616   3617   3621     1  0.0000000  0.0000000  3
   3618   3616   3617   3630     1  0.0000000  1.0460000  1
   3618   3616   3617   3630     1  0.0000000  0.0000000  3
   3618   3616   3617   3620     1  0.0000000  0.6508444  3
   3618   3616   3635   3625     1  0.0000000  1.2552000  3
   3619   3615   3613   3633     1  0.0000000  1.0460000  1
   3619   3615   3613   3633     1  0.0000000  0.0000000  3
   3619   3615   3613   3632     1  0.0000000  0.6508444  3
   3619   3615   3616   3635     1  0.0000000  0.6508444  3
   3619   3615   3622   3624     1  0.0000000  0.6973333  3
   3620   3617   3616   3635     1  0.0000000  0.6508444  3
   3620   3617   3621   3631     1  0.0000000  0.6973333  3
   3622   3615   3613   3632     1  0.0000000  1.0460000  1
   3622   3615   3613   3632     1  0.0000000  0.0000000  3
   3623   3612   3613   3632     1  0.0000000  0.6508444  3
   3626   3623   3612   3630     1  0.0000000  1.0460000  1
   3626   3623   3612   3630     1  0.0000000  0.0000000  3
   3626   3623   3628   3629     1  0.0000000  0.6973333  3
   3627   3623   3612   3630     1  0.0000000  1.0460000  1
   3627   3623   3612   3630     1  0.0000000  0.0000000  3
   3627   3623   3628   3629     1  0.0000000  0.6973333  3
   3630   3612   3613   3632     1  0.0000000  1.0460000  1
   3630   3612   3613   3632     1  0.0000000  0.0000000  3
   3630   3617   3621   3631     1  0.0000000  0.6973333  3
   3632   3613   3633   3634     1  0.0000000  0.6973333  3
   3637   3639   3641   3643     1  0.0000000  0.6508444  3
   3637   3639   3641   3644     1  0.0000000  0.6508444  3
   3638   3637   3639   3641     1  0.0000000  0.0000000  2
   3638   3637   3639   3640     1  0.0000000  0.0000000  2
   3638   3637   3639   3642     1  0.0000000  0.0000000  2
   3639   3641   3645   3710     1  0.0000000  0.6508444  3
   3640   3639   3641   3645     1  0.0000000  0.6508444  3
   3640   3639   3641   3643     1  0.0000000  0.6508444  3
   3640   3639   3641   3644     1  0.0000000  0.6508444  3
   3641   3645   3646   3655     1  0.0000000  0.6508444  3
   3641   3645   3646   3656     1  0.0000000  0.6508444  3
   3641   3645   3647   3648     1  0.0000000  0.6508444  3
   3641   3645   3647   3650     1  0.0000000  0.6508444  3
   3642   3639   3641   3645     1  0.0000000  0.6508444  3
   3642   3639   3641   3643     1  0.0000000  0.6508444  3
   3642   3639   3641   3644     1  0.0000000  0.6508444  3
   3643   3641   3645   3646     1  0.0000000  0.6508444  3
   3643   3641   3645   3647     1  0.0000000  0.6508444  3
   3643   3641   3645   3710     1  0.0000000  0.6508444  3
   3644   3641   3645   3646     1  0.0000000  0.6508444  3
   3644   3641   3645   3647     1  0.0000000  0.6508444  3
   3644   3641   3645   3710     1  0.0000000  0.6508444  3
   3645   3646   3657   3658     1  0.0000000  0.6508444  3
   3645   3646   3657   3659     1  0.0000000  0.6508444  3
   3645   3647   3649   3651     1  0.0000000  0.6508444  3
   3645   3647   3649   3652     1  0.0000000  0.6508444  3
   3646   3645   3647   3648     1  0.0000000  0.6508444  3
   3646   3645   3647   3650     1  0.0000000  0.6508444  3
   3647   3645   3646   3655     1  0.0000000  0.6508444  3
   3647   3645   3646   3656     1  0.0000000  0.6508444  3
   3648   3647   3649   3653     1  0.0000000  0.6508444  3
   3648   3647   3649   3651     1  0.0000000  0.6508444  3
   3648   3647   3649   3652     1  0.0000000  0.6508444  3
   3648   3647   3645   3710     1  0.0000000  0.6508444  3
   3649   3653   3685   3675     1  180.0000771  6.0668000  2
   3649   3653   3685   3675     1  180.0000771  1.4644000  4
   3649   3647   3645   3710     1  0.0000000  0.6508444  3
   3650   3647   3649   3653     1  0.0000000  0.6508444  3
   3650   3647   3649   3651     1  0.0000000  0.6508444  3
   3650   3647   3649   3652     1  0.0000000  0.6508444  3
   3650   3647   3645   3710     1  0.0000000  0.6508444  3
   3651   3649   3653   3654     1  0.0000000  3.3472000  1
   3651   3649   3653   3654     1  0.0000000  0.0000000  2
   3651   3649   3653   3654     1  180.0000771  0.3347200  3
   3651   3649   3653   3685     1  180.0000771  0.0000000  2
   3652   3649   3653   3654     1  0.0000000  3.3472000  1
   3652   3649   3653   3654     1  0.0000000  0.0000000  2
   3652   3649   3653   3654     1  180.0000771  0.3347200  3
   3652   3649   3653   3685     1  180.0000771  0.0000000  2
   3653   3685   3666   3668     1  0.0000000  1.2552000  3
   3654   3653   3685   3675     1  180.0000771  6.0668000  2
   3654   3653   3685   3675     1  180.0000771  1.4644000  4
   3655   3646   3657   3660     1  0.0000000  0.6508444  3
   3655   3646   3657   3658     1  0.0000000  0.6508444  3
   3655   3646   3657   3659     1  0.0000000  0.6508444  3
   3655   3646   3645   3710     1  0.0000000  0.6508444  3
   3656   3646   3657   3660     1  0.0000000  0.6508444  3
   3656   3646   3657   3658     1  0.0000000  0.6508444  3
   3656   3646   3657   3659     1  0.0000000  0.6508444  3
   3656   3646   3645   3710     1  0.0000000  0.6508444  3
   3657   3660   3709   3699     1  180.0000771  6.0668000  2
   3657   3660   3709   3699     1  180.0000771  1.4644000  4
   3657   3646   3645   3710     1  0.0000000  0.6508444  3
   3658   3657   3660   3661     1  0.0000000  3.3472000  1
   3658   3657   3660   3661     1  0.0000000  0.0000000  2
   3658   3657   3660   3661     1  180.0000771  0.3347200  3
   3658   3657   3660   3709     1  180.0000771  0.0000000  2
   3659   3657   3660   3661     1  0.0000000  3.3472000  1
   3659   3657   3660   3661     1  0.0000000  0.0000000  2
   3659   3657   3660   3661     1  180.0000771  0.3347200  3
   3659   3657   3660   3709     1  180.0000771  0.0000000  2
   3660   3709   3690   3692     1  0.0000000  1.2552000  3
   3661   3660   3709   3699     1  180.0000771  6.0668000  2
   3661   3660   3709   3699     1  180.0000771  1.4644000  4
   3662   3663   3665   3669     1  0.0000000  0.6508444  3
   3662   3663   3683   3684     1  0.0000000  1.0460000  1
   3662   3663   3683   3684     1  0.0000000  0.6694400  3
   3662   3673   3678   3679     1  0.0000000  1.0460000  1
   3662   3673   3678   3679     1  0.0000000  0.6694400  3
   3662   3680   3667   3670     1  0.0000000  1.6038667  3
   3663   3665   3666   3668     1  0.0000000  0.6508444  3
   3663   3665   3672   3674     1  0.0000000  1.0460000  1
   3663   3665   3672   3674     1  0.0000000  0.6694400  3
   3663   3662   3673   3676     1  0.0000000  0.6508444  3
   3663   3662   3673   3677     1  0.0000000  0.6508444  3
   3664   3662   3663   3665     1  0.0000000  0.6508444  3
   3664   3662   3663   3683     1  0.0000000  1.0460000  1
   3664   3662   3663   3683     1  0.0000000  0.0000000  3
   3664   3662   3663   3682     1  0.0000000  0.6508444  3
   3664   3662   3673   3678     1  0.0000000  1.0460000  1
   3664   3662   3673   3678     1  0.0000000  0.0000000  3
   3664   3662   3673   3676     1  0.0000000  0.6508444  3
   3664   3662   3673   3677     1  0.0000000  0.6508444  3
   3664   3662   3680   3667     1  0.0000000  1.6038667  3
   3665   3666   3667   3670     1  0.0000000  0.6508444  3
   3665   3666   3685   3675     1  0.0000000  1.2552000  3
   3665   3663   3683   3684     1  0.0000000  1.0460000  1
   3665   3663   3683   3684     1  0.0000000  0.6694400  3
   3666   3667   3671   3681     1  0.0000000  1.0460000  1
   3666   3667   3671   3681     1  0.0000000  0.6694400  3
   3666   3665   3672   3674     1  0.0000000  1.0460000  1
   3666   3665   3672   3674     1  0.0000000  0.6694400  3
   3666   3665   3663   3682     1  0.0000000  0.6508444  3
   3667   3666   3685   3675     1  0.0000000  1.2552000  3
   3667   3666   3665   3669     1  0.0000000  0.6508444  3
   3668   3666   3667   3671     1  0.0000000  1.0460000  1
   3668   3666   3667   3671     1  0.0000000  0.0000000  3
   3668   3666   3667   3680     1  0.0000000  1.0460000  1
   3668   3666   3667   3680     1  0.0000000  0.0000000  3
   3668   3666   3667   3670     1  0.0000000  0.6508444  3
   3668   3666   3685   3675     1  0.0000000  1.2552000  3
   3668   3666   3665   3672     1  0.0000000  1.0460000  1
   3668   3666   3665   3672     1  0.0000000  0.0000000  3
   3668   3666   3665   3669     1  0.0000000  0.6508444  3
   3669   3665   3666   3685     1  0.0000000  0.6508444  3
   3669   3665   3672   3674     1  0.0000000  0.6973333  3
   3669   3665   3663   3683     1  0.0000000  1.0460000  1
   3669   3665   3663   3683     1  0.0000000  0.0000000  3
   3669   3665   3663   3682     1  0.0000000  0.6508444  3
   3670   3667   3671   3681     1  0.0000000  0.6973333  3
   3670   3667   3666   3685     1  0.0000000  0.6508444  3
   3672   3665   3663   3682     1  0.0000000  1.0460000  1
   3672   3665   3663   3682     1  0.0000000  0.0000000  3
   3673   3662   3663   3682     1  0.0000000  0.6508444  3
   3676   3673   3678   3679     1  0.0000000  0.6973333  3
   3676   3673   3662   3680     1  0.0000000  1.0460000  1
   3676   3673   3662   3680     1  0.0000000  0.0000000  3
   3677   3673   3678   3679     1  0.0000000  0.6973333  3
   3677   3673   3662   3680     1  0.0000000  1.0460000  1
   3677   3673   3662   3680     1  0.0000000  0.0000000  3
   3680   3667   3671   3681     1  0.0000000  0.6973333  3
   3680   3662   3663   3682     1  0.0000000  1.0460000  1
   3680   3662   3663   3682     1  0.0000000  0.0000000  3
   3682   3663   3683   3684     1  0.0000000  0.6973333  3
   3686   3687   3689   3693     1  0.0000000  0.6508444  3
   3686   3687   3707   3708     1  0.0000000  1.0460000  1
   3686   3687   3707   3708     1  0.0000000  0.6694400  3
   3686   3697   3702   3703     1  0.0000000  1.0460000  1
   3686   3697   3702   3703     1  0.0000000  0.6694400  3
   3686   3704   3691   3694     1  0.0000000  1.6038667  3
   3687   3689   3690   3692     1  0.0000000  0.6508444  3
   3687   3689   3696   3698     1  0.0000000  1.0460000  1
   3687   3689   3696   3698     1  0.0000000  0.6694400  3
   3687   3686   3697   3700     1  0.0000000  0.6508444  3
   3687   3686   3697   3701     1  0.0000000  0.6508444  3
   3688   3686   3687   3689     1  0.0000000  0.6508444  3
   3688   3686   3687   3707     1  0.0000000  1.0460000  1
   3688   3686   3687   3707     1  0.0000000  0.0000000  3
   3688   3686   3687   3706     1  0.0000000  0.6508444  3
   3688   3686   3697   3702     1  0.0000000  1.0460000  1
   3688   3686   3697   3702     1  0.0000000  0.0000000  3
   3688   3686   3697   3700     1  0.0000000  0.6508444  3
   3688   3686   3697   3701     1  0.0000000  0.6508444  3
   3688   3686   3704   3691     1  0.0000000  1.6038667  3
   3689   3690   3691   3694     1  0.0000000  0.6508444  3
   3689   3690   3709   3699     1  0.0000000  1.2552000  3
   3689   3687   3707   3708     1  0.0000000  1.0460000  1
   3689   3687   3707   3708     1  0.0000000  0.6694400  3
   3690   3691   3695   3705     1  0.0000000  1.0460000  1
   3690   3691   3695   3705     1  0.0000000  0.6694400  3
   3690   3689   3696   3698     1  0.0000000  1.0460000  1
   3690   3689   3696   3698     1  0.0000000  0.6694400  3
   3690   3689   3687   3706     1  0.0000000  0.6508444  3
   3691   3690   3709   3699     1  0.0000000  1.2552000  3
   3691   3690   3689   3693     1  0.0000000  0.6508444  3
   3692   3690   3691   3695     1  0.0000000  1.0460000  1
   3692   3690   3691   3695     1  0.0000000  0.0000000  3
   3692   3690   3691   3704     1  0.0000000  1.0460000  1
   3692   3690   3691   3704     1  0.0000000  0.0000000  3
   3692   3690   3691   3694     1  0.0000000  0.6508444  3
   3692   3690   3709   3699     1  0.0000000  1.2552000  3
   3692   3690   3689   3696     1  0.0000000  1.0460000  1
   3692   3690   3689   3696     1  0.0000000  0.0000000  3
   3692   3690   3689   3693     1  0.0000000  0.6508444  3
   3693   3689   3690   3709     1  0.0000000  0.6508444  3
   3693   3689   3696   3698     1  0.0000000  0.6973333  3
   3693   3689   3687   3707     1  0.0000000  1.0460000  1
   3693   3689   3687   3707     1  0.0000000  0.0000000  3
   3693   3689   3687   3706     1  0.0000000  0.6508444  3
   3694   3691   3695   3705     1  0.0000000  0.6973333  3
   3694   3691   3690   3709     1  0.0000000  0.6508444  3
   3696   3689   3687   3706     1  0.0000000  1.0460000  1
   3696   3689   3687   3706     1  0.0000000  0.0000000  3
   3697   3686   3687   3706     1  0.0000000  0.6508444  3
   3700   3697   3702   3703     1  0.0000000  0.6973333  3
   3700   3697   3686   3704     1  0.0000000  1.0460000  1
   3700   3697   3686   3704     1  0.0000000  0.0000000  3
   3701   3697   3702   3703     1  0.0000000  0.6973333  3
   3701   3697   3686   3704     1  0.0000000  1.0460000  1
   3701   3697   3686   3704     1  0.0000000  0.0000000  3
   3704   3691   3695   3705     1  0.0000000  0.6973333  3
   3704   3686   3687   3706     1  0.0000000  1.0460000  1
   3704   3686   3687   3706     1  0.0000000  0.0000000  3
   3706   3687   3707   3708     1  0.0000000  0.6973333  3
   3711   3713   3715   3717     1  0.0000000  0.6508444  3
   3711   3713   3715   3718     1  0.0000000  0.6508444  3
   3712   3711   3713   3715     1  0.0000000  0.0000000  2
   3712   3711   3713   3714     1  0.0000000  0.0000000  2
   3712   3711   3713   3716     1  0.0000000  0.0000000  2
   3713   3715   3719   3784     1  0.0000000  0.6508444  3
   3714   3713   3715   3719     1  0.0000000  0.6508444  3
   3714   3713   3715   3717     1  0.0000000  0.6508444  3
   3714   3713   3715   3718     1  0.0000000  0.6508444  3
   3715   3719   3720   3729     1  0.0000000  0.6508444  3
   3715   3719   3720   3730     1  0.0000000  0.6508444  3
   3715   3719   3721   3722     1  0.0000000  0.6508444  3
   3715   3719   3721   3724     1  0.0000000  0.6508444  3
   3716   3713   3715   3719     1  0.0000000  0.6508444  3
   3716   3713   3715   3717     1  0.0000000  0.6508444  3
   3716   3713   3715   3718     1  0.0000000  0.6508444  3
   3717   3715   3719   3720     1  0.0000000  0.6508444  3
   3717   3715   3719   3721     1  0.0000000  0.6508444  3
   3717   3715   3719   3784     1  0.0000000  0.6508444  3
   3718   3715   3719   3720     1  0.0000000  0.6508444  3
   3718   3715   3719   3721     1  0.0000000  0.6508444  3
   3718   3715   3719   3784     1  0.0000000  0.6508444  3
   3719   3720   3731   3732     1  0.0000000  0.6508444  3
   3719   3720   3731   3733     1  0.0000000  0.6508444  3
   3719   3721   3723   3725     1  0.0000000  0.6508444  3
   3719   3721   3723   3726     1  0.0000000  0.6508444  3
   3720   3719   3721   3722     1  0.0000000  0.6508444  3
   3720   3719   3721   3724     1  0.0000000  0.6508444  3
   3721   3719   3720   3729     1  0.0000000  0.6508444  3
   3721   3719   3720   3730     1  0.0000000  0.6508444  3
   3722   3721   3719   3784     1  0.0000000  0.6508444  3
   3722   3721   3723   3727     1  0.0000000  0.6508444  3
   3722   3721   3723   3725     1  0.0000000  0.6508444  3
   3722   3721   3723   3726     1  0.0000000  0.6508444  3
   3723   3721   3719   3784     1  0.0000000  0.6508444  3
   3723   3727   3759   3749     1  180.0000771  6.0668000  2
   3723   3727   3759   3749     1  180.0000771  1.4644000  4
   3724   3721   3719   3784     1  0.0000000  0.6508444  3
   3724   3721   3723   3727     1  0.0000000  0.6508444  3
   3724   3721   3723   3725     1  0.0000000  0.6508444  3
   3724   3721   3723   3726     1  0.0000000  0.6508444  3
   3725   3723   3727   3728     1  0.0000000  3.3472000  1
   3725   3723   3727   3728     1  0.0000000  0.0000000  2
   3725   3723   3727   3728     1  180.0000771  0.3347200  3
   3725   3723   3727   3759     1  180.0000771  0.0000000  2
   3726   3723   3727   3728     1  0.0000000  3.3472000  1
   3726   3723   3727   3728     1  0.0000000  0.0000000  2
   3726   3723   3727   3728     1  180.0000771  0.3347200  3
   3726   3723   3727   3759     1  180.0000771  0.0000000  2
   3727   3759   3740   3742     1  0.0000000  1.2552000  3
   3728   3727   3759   3749     1  180.0000771  6.0668000  2
   3728   3727   3759   3749     1  180.0000771  1.4644000  4
   3729   3720   3719   3784     1  0.0000000  0.6508444  3
   3729   3720   3731   3734     1  0.0000000  0.6508444  3
   3729   3720   3731   3732     1  0.0000000  0.6508444  3
   3729   3720   3731   3733     1  0.0000000  0.6508444  3
   3730   3720   3719   3784     1  0.0000000  0.6508444  3
   3730   3720   3731   3734     1  0.0000000  0.6508444  3
   3730   3720   3731   3732     1  0.0000000  0.6508444  3
   3730   3720   3731   3733     1  0.0000000  0.6508444  3
   3731   3720   3719   3784     1  0.0000000  0.6508444  3
   3731   3734   3783   3773     1  180.0000771  6.0668000  2
   3731   3734   3783   3773     1  180.0000771  1.4644000  4
   3732   3731   3734   3735     1  0.0000000  3.3472000  1
   3732   3731   3734   3735     1  0.0000000  0.0000000  2
   3732   3731   3734   3735     1  180.0000771  0.3347200  3
   3732   3731   3734   3783     1  180.0000771  0.0000000  2
   3733   3731   3734   3735     1  0.0000000  3.3472000  1
   3733   3731   3734   3735     1  0.0000000  0.0000000  2
   3733   3731   3734   3735     1  180.0000771  0.3347200  3
   3733   3731   3734   3783     1  180.0000771  0.0000000  2
   3734   3783   3764   3766     1  0.0000000  1.2552000  3
   3735   3734   3783   3773     1  180.0000771  6.0668000  2
   3735   3734   3783   3773     1  180.0000771  1.4644000  4
   3736   3737   3739   3743     1  0.0000000  0.6508444  3
   3736   3737   3757   3758     1  0.0000000  1.0460000  1
   3736   3737   3757   3758     1  0.0000000  0.6694400  3
   3736   3747   3752   3753     1  0.0000000  1.0460000  1
   3736   3747   3752   3753     1  0.0000000  0.6694400  3
   3736   3754   3741   3744     1  0.0000000  1.6038667  3
   3737   3736   3747   3750     1  0.0000000  0.6508444  3
   3737   3736   3747   3751     1  0.0000000  0.6508444  3
   3737   3739   3740   3742     1  0.0000000  0.6508444  3
   3737   3739   3746   3748     1  0.0000000  1.0460000  1
   3737   3739   3746   3748     1  0.0000000  0.6694400  3
   3738   3736   3737   3739     1  0.0000000  0.6508444  3
   3738   3736   3737   3757     1  0.0000000  1.0460000  1
   3738   3736   3737   3757     1  0.0000000  0.0000000  3
   3738   3736   3737   3756     1  0.0000000  0.6508444  3
   3738   3736   3747   3752     1  0.0000000  1.0460000  1
   3738   3736   3747   3752     1  0.0000000  0.0000000  3
   3738   3736   3747   3750     1  0.0000000  0.6508444  3
   3738   3736   3747   3751     1  0.0000000  0.6508444  3
   3738   3736   3754   3741     1  0.0000000  1.6038667  3
   3739   3737   3757   3758     1  0.0000000  1.0460000  1
   3739   3737   3757   3758     1  0.0000000  0.6694400  3
   3739   3740   3741   3744     1  0.0000000  0.6508444  3
   3739   3740   3759   3749     1  0.0000000  1.2552000  3
   3740   3739   3737   3756     1  0.0000000  0.6508444  3
   3740   3739   3746   3748     1  0.0000000  1.0460000  1
   3740   3739   3746   3748     1  0.0000000  0.6694400  3
   3740   3741   3745   3755     1  0.0000000  1.0460000  1
   3740   3741   3745   3755     1  0.0000000  0.6694400  3
   3741   3740   3739   3743     1  0.0000000  0.6508444  3
   3741   3740   3759   3749     1  0.0000000  1.2552000  3
   3742   3740   3739   3746     1  0.0000000  1.0460000  1
   3742   3740   3739   3746     1  0.0000000  0.0000000  3
   3742   3740   3739   3743     1  0.0000000  0.6508444  3
   3742   3740   3741   3745     1  0.0000000  1.0460000  1
   3742   3740   3741   3745     1  0.0000000  0.0000000  3
   3742   3740   3741   3754     1  0.0000000  1.0460000  1
   3742   3740   3741   3754     1  0.0000000  0.0000000  3
   3742   3740   3741   3744     1  0.0000000  0.6508444  3
   3742   3740   3759   3749     1  0.0000000  1.2552000  3
   3743   3739   3737   3757     1  0.0000000  1.0460000  1
   3743   3739   3737   3757     1  0.0000000  0.0000000  3
   3743   3739   3737   3756     1  0.0000000  0.6508444  3
   3743   3739   3740   3759     1  0.0000000  0.6508444  3
   3743   3739   3746   3748     1  0.0000000  0.6973333  3
   3744   3741   3740   3759     1  0.0000000  0.6508444  3
   3744   3741   3745   3755     1  0.0000000  0.6973333  3
   3746   3739   3737   3756     1  0.0000000  1.0460000  1
   3746   3739   3737   3756     1  0.0000000  0.0000000  3
   3747   3736   3737   3756     1  0.0000000  0.6508444  3
   3750   3747   3736   3754     1  0.0000000  1.0460000  1
   3750   3747   3736   3754     1  0.0000000  0.0000000  3
   3750   3747   3752   3753     1  0.0000000  0.6973333  3
   3751   3747   3736   3754     1  0.0000000  1.0460000  1
   3751   3747   3736   3754     1  0.0000000  0.0000000  3
   3751   3747   3752   3753     1  0.0000000  0.6973333  3
   3754   3736   3737   3756     1  0.0000000  1.0460000  1
   3754   3736   3737   3756     1  0.0000000  0.0000000  3
   3754   3741   3745   3755     1  0.0000000  0.6973333  3
   3756   3737   3757   3758     1  0.0000000  0.6973333  3
   3760   3761   3763   3767     1  0.0000000  0.6508444  3
   3760   3761   3781   3782     1  0.0000000  1.0460000  1
   3760   3761   3781   3782     1  0.0000000  0.6694400  3
   3760   3771   3776   3777     1  0.0000000  1.0460000  1
   3760   3771   3776   3777     1  0.0000000  0.6694400  3
   3760   3778   3765   3768     1  0.0000000  1.6038667  3
   3761   3760   3771   3774     1  0.0000000  0.6508444  3
   3761   3760   3771   3775     1  0.0000000  0.6508444  3
   3761   3763   3764   3766     1  0.0000000  0.6508444  3
   3761   3763   3770   3772     1  0.0000000  1.0460000  1
   3761   3763   3770   3772     1  0.0000000  0.6694400  3
   3762   3760   3761   3763     1  0.0000000  0.6508444  3
   3762   3760   3761   3781     1  0.0000000  1.0460000  1
   3762   3760   3761   3781     1  0.0000000  0.0000000  3
   3762   3760   3761   3780     1  0.0000000  0.6508444  3
   3762   3760   3771   3776     1  0.0000000  1.0460000  1
   3762   3760   3771   3776     1  0.0000000  0.0000000  3
   3762   3760   3771   3774     1  0.0000000  0.6508444  3
   3762   3760   3771   3775     1  0.0000000  0.6508444  3
   3762   3760   3778   3765     1  0.0000000  1.6038667  3
   3763   3761   3781   3782     1  0.0000000  1.0460000  1
   3763   3761   3781   3782     1  0.0000000  0.6694400  3
   3763   3764   3765   3768     1  0.0000000  0.6508444  3
   3763   3764   3783   3773     1  0.0000000  1.2552000  3
   3764   3763   3761   3780     1  0.0000000  0.6508444  3
   3764   3763   3770   3772     1  0.0000000  1.0460000  1
   3764   3763   3770   3772     1  0.0000000  0.6694400  3
   3764   3765   3769   3779     1  0.0000000  1.0460000  1
   3764   3765   3769   3779     1  0.0000000  0.6694400  3
   3765   3764   3763   3767     1  0.0000000  0.6508444  3
   3765   3764   3783   3773     1  0.0000000  1.2552000  3
   3766   3764   3763   3770     1  0.0000000  1.0460000  1
   3766   3764   3763   3770     1  0.0000000  0.0000000  3
   3766   3764   3763   3767     1  0.0000000  0.6508444  3
   3766   3764   3765   3769     1  0.0000000  1.0460000  1
   3766   3764   3765   3769     1  0.0000000  0.0000000  3
   3766   3764   3765   3778     1  0.0000000  1.0460000  1
   3766   3764   3765   3778     1  0.0000000  0.0000000  3
   3766   3764   3765   3768     1  0.0000000  0.6508444  3
   3766   3764   3783   3773     1  0.0000000  1.2552000  3
   3767   3763   3761   3781     1  0.0000000  1.0460000  1
   3767   3763   3761   3781     1  0.0000000  0.0000000  3
   3767   3763   3761   3780     1  0.0000000  0.6508444  3
   3767   3763   3764   3783     1  0.0000000  0.6508444  3
   3767   3763   3770   3772     1  0.0000000  0.6973333  3
   3768   3765   3764   3783     1  0.0000000  0.6508444  3
   3768   3765   3769   3779     1  0.0000000  0.6973333  3
   3770   3763   3761   3780     1  0.0000000  1.0460000  1
   3770   3763   3761   3780     1  0.0000000  0.0000000  3
   3771   3760   3761   3780     1  0.0000000  0.6508444  3
   3774   3771   3760   3778     1  0.0000000  1.0460000  1
   3774   3771   3760   3778     1  0.0000000  0.0000000  3
   3774   3771   3776   3777     1  0.0000000  0.6973333  3
   3775   3771   3760   3778     1  0.0000000  1.0460000  1
   3775   3771   3760   3778     1  0.0000000  0.0000000  3
   3775   3771   3776   3777     1  0.0000000  0.6973333  3
   3778   3760   3761   3780     1  0.0000000  1.0460000  1
   3778   3760   3761   3780     1  0.0000000  0.0000000  3
   3778   3765   3769   3779     1  0.0000000  0.6973333  3
   3780   3761   3781   3782     1  0.0000000  0.6973333  3
   3785   3787   3789   3791     1  0.0000000  0.6508444  3
   3785   3787   3789   3792     1  0.0000000  0.6508444  3
   3786   3785   3787   3789     1  0.0000000  0.0000000  2
   3786   3785   3787   3788     1  0.0000000  0.0000000  2
   3786   3785   3787   3790     1  0.0000000  0.0000000  2
   3787   3789   3793   3858     1  0.0000000  0.6508444  3
   3788   3787   3789   3793     1  0.0000000  0.6508444  3
   3788   3787   3789   3791     1  0.0000000  0.6508444  3
   3788   3787   3789   3792     1  0.0000000  0.6508444  3
   3789   3793   3794   3803     1  0.0000000  0.6508444  3
   3789   3793   3794   3804     1  0.0000000  0.6508444  3
   3789   3793   3795   3796     1  0.0000000  0.6508444  3
   3789   3793   3795   3798     1  0.0000000  0.6508444  3
   3790   3787   3789   3793     1  0.0000000  0.6508444  3
   3790   3787   3789   3791     1  0.0000000  0.6508444  3
   3790   3787   3789   3792     1  0.0000000  0.6508444  3
   3791   3789   3793   3794     1  0.0000000  0.6508444  3
   3791   3789   3793   3795     1  0.0000000  0.6508444  3
   3791   3789   3793   3858     1  0.0000000  0.6508444  3
   3792   3789   3793   3794     1  0.0000000  0.6508444  3
   3792   3789   3793   3795     1  0.0000000  0.6508444  3
   3792   3789   3793   3858     1  0.0000000  0.6508444  3
   3793   3794   3805   3806     1  0.0000000  0.6508444  3
   3793   3794   3805   3807     1  0.0000000  0.6508444  3
   3793   3795   3797   3799     1  0.0000000  0.6508444  3
   3793   3795   3797   3800     1  0.0000000  0.6508444  3
   3794   3793   3795   3796     1  0.0000000  0.6508444  3
   3794   3793   3795   3798     1  0.0000000  0.6508444  3
   3795   3793   3794   3803     1  0.0000000  0.6508444  3
   3795   3793   3794   3804     1  0.0000000  0.6508444  3
   3796   3795   3797   3801     1  0.0000000  0.6508444  3
   3796   3795   3797   3799     1  0.0000000  0.6508444  3
   3796   3795   3797   3800     1  0.0000000  0.6508444  3
   3796   3795   3793   3858     1  0.0000000  0.6508444  3
   3797   3801   3833   3823     1  180.0000771  6.0668000  2
   3797   3801   3833   3823     1  180.0000771  1.4644000  4
   3797   3795   3793   3858     1  0.0000000  0.6508444  3
   3798   3795   3797   3801     1  0.0000000  0.6508444  3
   3798   3795   3797   3799     1  0.0000000  0.6508444  3
   3798   3795   3797   3800     1  0.0000000  0.6508444  3
   3798   3795   3793   3858     1  0.0000000  0.6508444  3
   3799   3797   3801   3802     1  0.0000000  3.3472000  1
   3799   3797   3801   3802     1  0.0000000  0.0000000  2
   3799   3797   3801   3802     1  180.0000771  0.3347200  3
   3799   3797   3801   3833     1  180.0000771  0.0000000  2
   3800   3797   3801   3802     1  0.0000000  3.3472000  1
   3800   3797   3801   3802     1  0.0000000  0.0000000  2
   3800   3797   3801   3802     1  180.0000771  0.3347200  3
   3800   3797   3801   3833     1  180.0000771  0.0000000  2
   3801   3833   3814   3816     1  0.0000000  1.2552000  3
   3802   3801   3833   3823     1  180.0000771  6.0668000  2
   3802   3801   3833   3823     1  180.0000771  1.4644000  4
   3803   3794   3805   3808     1  0.0000000  0.6508444  3
   3803   3794   3805   3806     1  0.0000000  0.6508444  3
   3803   3794   3805   3807     1  0.0000000  0.6508444  3
   3803   3794   3793   3858     1  0.0000000  0.6508444  3
   3804   3794   3805   3808     1  0.0000000  0.6508444  3
   3804   3794   3805   3806     1  0.0000000  0.6508444  3
   3804   3794   3805   3807     1  0.0000000  0.6508444  3
   3804   3794   3793   3858     1  0.0000000  0.6508444  3
   3805   3808   3857   3847     1  180.0000771  6.0668000  2
   3805   3808   3857   3847     1  180.0000771  1.4644000  4
   3805   3794   3793   3858     1  0.0000000  0.6508444  3
   3806   3805   3808   3809     1  0.0000000  3.3472000  1
   3806   3805   3808   3809     1  0.0000000  0.0000000  2
   3806   3805   3808   3809     1  180.0000771  0.3347200  3
   3806   3805   3808   3857     1  180.0000771  0.0000000  2
   3807   3805   3808   3809     1  0.0000000  3.3472000  1
   3807   3805   3808   3809     1  0.0000000  0.0000000  2
   3807   3805   3808   3809     1  180.0000771  0.3347200  3
   3807   3805   3808   3857     1  180.0000771  0.0000000  2
   3808   3857   3838   3840     1  0.0000000  1.2552000  3
   3809   3808   3857   3847     1  180.0000771  6.0668000  2
   3809   3808   3857   3847     1  180.0000771  1.4644000  4
   3810   3811   3813   3817     1  0.0000000  0.6508444  3
   3810   3811   3831   3832     1  0.0000000  1.0460000  1
   3810   3811   3831   3832     1  0.0000000  0.6694400  3
   3810   3821   3826   3827     1  0.0000000  1.0460000  1
   3810   3821   3826   3827     1  0.0000000  0.6694400  3
   3810   3828   3815   3818     1  0.0000000  1.6038667  3
   3811   3813   3814   3816     1  0.0000000  0.6508444  3
   3811   3813   3820   3822     1  0.0000000  1.0460000  1
   3811   3813   3820   3822     1  0.0000000  0.6694400  3
   3811   3810   3821   3824     1  0.0000000  0.6508444  3
   3811   3810   3821   3825     1  0.0000000  0.6508444  3
   3812   3810   3811   3813     1  0.0000000  0.6508444  3
   3812   3810   3811   3831     1  0.0000000  1.0460000  1
   3812   3810   3811   3831     1  0.0000000  0.0000000  3
   3812   3810   3811   3830     1  0.0000000  0.6508444  3
   3812   3810   3821   3826     1  0.0000000  1.0460000  1
   3812   3810   3821   3826     1  0.0000000  0.0000000  3
   3812   3810   3821   3824     1  0.0000000  0.6508444  3
   3812   3810   3821   3825     1  0.0000000  0.6508444  3
   3812   3810   3828   3815     1  0.0000000  1.6038667  3
   3813   3814   3815   3818     1  0.0000000  0.6508444  3
   3813   3814   3833   3823     1  0.0000000  1.2552000  3
   3813   3811   3831   3832     1  0.0000000  1.0460000  1
   3813   3811   3831   3832     1  0.0000000  0.6694400  3
   3814   3815   3819   3829     1  0.0000000  1.0460000  1
   3814   3815   3819   3829     1  0.0000000  0.6694400  3
   3814   3813   3820   3822     1  0.0000000  1.0460000  1
   3814   3813   3820   3822     1  0.0000000  0.6694400  3
   3814   3813   3811   3830     1  0.0000000  0.6508444  3
   3815   3814   3833   3823     1  0.0000000  1.2552000  3
   3815   3814   3813   3817     1  0.0000000  0.6508444  3
   3816   3814   3815   3819     1  0.0000000  1.0460000  1
   3816   3814   3815   3819     1  0.0000000  0.0000000  3
   3816   3814   3815   3828     1  0.0000000  1.0460000  1
   3816   3814   3815   3828     1  0.0000000  0.0000000  3
   3816   3814   3815   3818     1  0.0000000  0.6508444  3
   3816   3814   3833   3823     1  0.0000000  1.2552000  3
   3816   3814   3813   3820     1  0.0000000  1.0460000  1
   3816   3814   3813   3820     1  0.0000000  0.0000000  3
   3816   3814   3813   3817     1  0.0000000  0.6508444  3
   3817   3813   3814   3833     1  0.0000000  0.6508444  3
   3817   3813   3820   3822     1  0.0000000  0.6973333  3
   3817   3813   3811   3831     1  0.0000000  1.0460000  1
   3817   3813   3811   3831     1  0.0000000  0.0000000  3
   3817   3813   3811   3830     1  0.0000000  0.6508444  3
   3818   3815   3819   3829     1  0.0000000  0.6973333  3
   3818   3815   3814   3833     1  0.0000000  0.6508444  3
   3820   3813   3811   3830     1  0.0000000  1.0460000  1
   3820   3813   3811   3830     1  0.0000000  0.0000000  3
   3821   3810   3811   3830     1  0.0000000  0.6508444  3
   3824   3821   3826   3827     1  0.0000000  0.6973333  3
   3824   3821   3810   3828     1  0.0000000  1.0460000  1
   3824   3821   3810   3828     1  0.0000000  0.0000000  3
   3825   3821   3826   3827     1  0.0000000  0.6973333  3
   3825   3821   3810   3828     1  0.0000000  1.0460000  1
   3825   3821   3810   3828     1  0.0000000  0.0000000  3
   3828   3815   3819   3829     1  0.0000000  0.6973333  3
   3828   3810   3811   3830     1  0.0000000  1.0460000  1
   3828   3810   3811   3830     1  0.0000000  0.0000000  3
   3830   3811   3831   3832     1  0.0000000  0.6973333  3
   3834   3835   3837   3841     1  0.0000000  0.6508444  3
   3834   3835   3855   3856     1  0.0000000  1.0460000  1
   3834   3835   3855   3856     1  0.0000000  0.6694400  3
   3834   3845   3850   3851     1  0.0000000  1.0460000  1
   3834   3845   3850   3851     1  0.0000000  0.6694400  3
   3834   3852   3839   3842     1  0.0000000  1.6038667  3
   3835   3837   3838   3840     1  0.0000000  0.6508444  3
   3835   3837   3844   3846     1  0.0000000  1.0460000  1
   3835   3837   3844   3846     1  0.0000000  0.6694400  3
   3835   3834   3845   3848     1  0.0000000  0.6508444  3
   3835   3834   3845   3849     1  0.0000000  0.6508444  3
   3836   3834   3835   3837     1  0.0000000  0.6508444  3
   3836   3834   3835   3855     1  0.0000000  1.0460000  1
   3836   3834   3835   3855     1  0.0000000  0.0000000  3
   3836   3834   3835   3854     1  0.0000000  0.6508444  3
   3836   3834   3845   3850     1  0.0000000  1.0460000  1
   3836   3834   3845   3850     1  0.0000000  0.0000000  3
   3836   3834   3845   3848     1  0.0000000  0.6508444  3
   3836   3834   3845   3849     1  0.0000000  0.6508444  3
   3836   3834   3852   3839     1  0.0000000  1.6038667  3
   3837   3838   3839   3842     1  0.0000000  0.6508444  3
   3837   3838   3857   3847     1  0.0000000  1.2552000  3
   3837   3835   3855   3856     1  0.0000000  1.0460000  1
   3837   3835   3855   3856     1  0.0000000  0.6694400  3
   3838   3839   3843   3853     1  0.0000000  1.0460000  1
   3838   3839   3843   3853     1  0.0000000  0.6694400  3
   3838   3837   3844   3846     1  0.0000000  1.0460000  1
   3838   3837   3844   3846     1  0.0000000  0.6694400  3
   3838   3837   3835   3854     1  0.0000000  0.6508444  3
   3839   3838   3857   3847     1  0.0000000  1.2552000  3
   3839   3838   3837   3841     1  0.0000000  0.6508444  3
   3840   3838   3839   3843     1  0.0000000  1.0460000  1
   3840   3838   3839   3843     1  0.0000000  0.0000000  3
   3840   3838   3839   3852     1  0.0000000  1.0460000  1
   3840   3838   3839   3852     1  0.0000000  0.0000000  3
   3840   3838   3839   3842     1  0.0000000  0.6508444  3
   3840   3838   3857   3847     1  0.0000000  1.2552000  3
   3840   3838   3837   3844     1  0.0000000  1.0460000  1
   3840   3838   3837   3844     1  0.0000000  0.0000000  3
   3840   3838   3837   3841     1  0.0000000  0.6508444  3
   3841   3837   3838   3857     1  0.0000000  0.6508444  3
   3841   3837   3844   3846     1  0.0000000  0.6973333  3
   3841   3837   3835   3855     1  0.0000000  1.0460000  1
   3841   3837   3835   3855     1  0.0000000  0.0000000  3
   3841   3837   3835   3854     1  0.0000000  0.6508444  3
   3842   3839   3843   3853     1  0.0000000  0.6973333  3
   3842   3839   3838   3857     1  0.0000000  0.6508444  3
   3844   3837   3835   3854     1  0.0000000  1.0460000  1
   3844   3837   3835   3854     1  0.0000000  0.0000000  3
   3845   3834   3835   3854     1  0.0000000  0.6508444  3
   3848   3845   3850   3851     1  0.0000000  0.6973333  3
   3848   3845   3834   3852     1  0.0000000  1.0460000  1
   3848   3845   3834   3852     1  0.0000000  0.0000000  3
   3849   3845   3850   3851     1  0.0000000  0.6973333  3
   3849   3845   3834   3852     1  0.0000000  1.0460000  1
   3849   3845   3834   3852     1  0.0000000  0.0000000  3
   3852   3839   3843   3853     1  0.0000000  0.6973333  3
   3852   3834   3835   3854     1  0.0000000  1.0460000  1
   3852   3834   3835   3854     1  0.0000000  0.0000000  3
   3854   3835   3855   3856     1  0.0000000  0.6973333  3
   3859   3861   3863   3865     1  0.0000000  0.6508444  3
   3859   3861   3863   3866     1  0.0000000  0.6508444  3
   3860   3859   3861   3863     1  0.0000000  0.0000000  2
   3860   3859   3861   3862     1  0.0000000  0.0000000  2
   3860   3859   3861   3864     1  0.0000000  0.0000000  2
   3861   3863   3867   3932     1  0.0000000  0.6508444  3
   3862   3861   3863   3867     1  0.0000000  0.6508444  3
   3862   3861   3863   3865     1  0.0000000  0.6508444  3
   3862   3861   3863   3866     1  0.0000000  0.6508444  3
   3863   3867   3868   3877     1  0.0000000  0.6508444  3
   3863   3867   3868   3878     1  0.0000000  0.6508444  3
   3863   3867   3869   3870     1  0.0000000  0.6508444  3
   3863   3867   3869   3872     1  0.0000000  0.6508444  3
   3864   3861   3863   3867     1  0.0000000  0.6508444  3
   3864   3861   3863   3865     1  0.0000000  0.6508444  3
   3864   3861   3863   3866     1  0.0000000  0.6508444  3
   3865   3863   3867   3868     1  0.0000000  0.6508444  3
   3865   3863   3867   3869     1  0.0000000  0.6508444  3
   3865   3863   3867   3932     1  0.0000000  0.6508444  3
   3866   3863   3867   3868     1  0.0000000  0.6508444  3
   3866   3863   3867   3869     1  0.0000000  0.6508444  3
   3866   3863   3867   3932     1  0.0000000  0.6508444  3
   3867   3868   3879   3880     1  0.0000000  0.6508444  3
   3867   3868   3879   3881     1  0.0000000  0.6508444  3
   3867   3869   3871   3873     1  0.0000000  0.6508444  3
   3867   3869   3871   3874     1  0.0000000  0.6508444  3
   3868   3867   3869   3870     1  0.0000000  0.6508444  3
   3868   3867   3869   3872     1  0.0000000  0.6508444  3
   3869   3867   3868   3877     1  0.0000000  0.6508444  3
   3869   3867   3868   3878     1  0.0000000  0.6508444  3
   3870   3869   3867   3932     1  0.0000000  0.6508444  3
   3870   3869   3871   3875     1  0.0000000  0.6508444  3
   3870   3869   3871   3873     1  0.0000000  0.6508444  3
   3870   3869   3871   3874     1  0.0000000  0.6508444  3
   3871   3869   3867   3932     1  0.0000000  0.6508444  3
   3871   3875   3907   3897     1  180.0000771  6.0668000  2
   3871   3875   3907   3897     1  180.0000771  1.4644000  4
   3872   3869   3867   3932     1  0.0000000  0.6508444  3
   3872   3869   3871   3875     1  0.0000000  0.6508444  3
   3872   3869   3871   3873     1  0.0000000  0.6508444  3
   3872   3869   3871   3874     1  0.0000000  0.6508444  3
   3873   3871   3875   3876     1  0.0000000  3.3472000  1
   3873   3871   3875   3876     1  0.0000000  0.0000000  2
   3873   3871   3875   3876     1  180.0000771  0.3347200  3
   3873   3871   3875   3907     1  180.0000771  0.0000000  2
   3874   3871   3875   3876     1  0.0000000  3.3472000  1
   3874   3871   3875   3876     1  0.0000000  0.0000000  2
   3874   3871   3875   3876     1  180.0000771  0.3347200  3
   3874   3871   3875   3907     1  180.0000771  0.0000000  2
   3875   3907   3888   3890     1  0.0000000  1.2552000  3
   3876   3875   3907   3897     1  180.0000771  6.0668000  2
   3876   3875   3907   3897     1  180.0000771  1.4644000  4
   3877   3868   3867   3932     1  0.0000000  0.6508444  3
   3877   3868   3879   3882     1  0.0000000  0.6508444  3
   3877   3868   3879   3880     1  0.0000000  0.6508444  3
   3877   3868   3879   3881     1  0.0000000  0.6508444  3
   3878   3868   3867   3932     1  0.0000000  0.6508444  3
   3878   3868   3879   3882     1  0.0000000  0.6508444  3
   3878   3868   3879   3880     1  0.0000000  0.6508444  3
   3878   3868   3879   3881     1  0.0000000  0.6508444  3
   3879   3868   3867   3932     1  0.0000000  0.6508444  3
   3879   3882   3931   3921     1  180.0000771  6.0668000  2
   3879   3882   3931   3921     1  180.0000771  1.4644000  4
   3880   3879   3882   3883     1  0.0000000  3.3472000  1
   3880   3879   3882   3883     1  0.0000000  0.0000000  2
   3880   3879   3882   3883     1  180.0000771  0.3347200  3
   3880   3879   3882   3931     1  180.0000771  0.0000000  2
   3881   3879   3882   3883     1  0.0000000  3.3472000  1
   3881   3879   3882   3883     1  0.0000000  0.0000000  2
   3881   3879   3882   3883     1  180.0000771  0.3347200  3
   3881   3879   3882   3931     1  180.0000771  0.0000000  2
   3882   3931   3912   3914     1  0.0000000  1.2552000  3
   3883   3882   3931   3921     1  180.0000771  6.0668000  2
   3883   3882   3931   3921     1  180.0000771  1.4644000  4
   3884   3885   3887   3891     1  0.0000000  0.6508444  3
   3884   3885   3905   3906     1  0.0000000  1.0460000  1
   3884   3885   3905   3906     1  0.0000000  0.6694400  3
   3884   3895   3900   3901     1  0.0000000  1.0460000  1
   3884   3895   3900   3901     1  0.0000000  0.6694400  3
   3884   3902   3889   3892     1  0.0000000  1.6038667  3
   3885   3884   3895   3898     1  0.0000000  0.6508444  3
   3885   3884   3895   3899     1  0.0000000  0.6508444  3
   3885   3887   3888   3890     1  0.0000000  0.6508444  3
   3885   3887   3894   3896     1  0.0000000  1.0460000  1
   3885   3887   3894   3896     1  0.0000000  0.6694400  3
   3886   3884   3885   3887     1  0.0000000  0.6508444  3
   3886   3884   3885   3905     1  0.0000000  1.0460000  1
   3886   3884   3885   3905     1  0.0000000  0.0000000  3
   3886   3884   3885   3904     1  0.0000000  0.6508444  3
   3886   3884   3895   3900     1  0.0000000  1.0460000  1
   3886   3884   3895   3900     1  0.0000000  0.0000000  3
   3886   3884   3895   3898     1  0.0000000  0.6508444  3
   3886   3884   3895   3899     1  0.0000000  0.6508444  3
   3886   3884   3902   3889     1  0.0000000  1.6038667  3
   3887   3885   3905   3906     1  0.0000000  1.0460000  1
   3887   3885   3905   3906     1  0.0000000  0.6694400  3
   3887   3888   3889   3892     1  0.0000000  0.6508444  3
   3887   3888   3907   3897     1  0.0000000  1.2552000  3
   3888   3887   3885   3904     1  0.0000000  0.6508444  3
   3888   3887   3894   3896     1  0.0000000  1.0460000  1
   3888   3887   3894   3896     1  0.0000000  0.6694400  3
   3888   3889   3893   3903     1  0.0000000  1.0460000  1
   3888   3889   3893   3903     1  0.0000000  0.6694400  3
   3889   3888   3887   3891     1  0.0000000  0.6508444  3
   3889   3888   3907   3897     1  0.0000000  1.2552000  3
   3890   3888   3887   3894     1  0.0000000  1.0460000  1
   3890   3888   3887   3894     1  0.0000000  0.0000000  3
   3890   3888   3887   3891     1  0.0000000  0.6508444  3
   3890   3888   3889   3893     1  0.0000000  1.0460000  1
   3890   3888   3889   3893     1  0.0000000  0.0000000  3
   3890   3888   3889   3902     1  0.0000000  1.0460000  1
   3890   3888   3889   3902     1  0.0000000  0.0000000  3
   3890   3888   3889   3892     1  0.0000000  0.6508444  3
   3890   3888   3907   3897     1  0.0000000  1.2552000  3
   3891   3887   3885   3905     1  0.0000000  1.0460000  1
   3891   3887   3885   3905     1  0.0000000  0.0000000  3
   3891   3887   3885   3904     1  0.0000000  0.6508444  3
   3891   3887   3888   3907     1  0.0000000  0.6508444  3
   3891   3887   3894   3896     1  0.0000000  0.6973333  3
   3892   3889   3888   3907     1  0.0000000  0.6508444  3
   3892   3889   3893   3903     1  0.0000000  0.6973333  3
   3894   3887   3885   3904     1  0.0000000  1.0460000  1
   3894   3887   3885   3904     1  0.0000000  0.0000000  3
   3895   3884   3885   3904     1  0.0000000  0.6508444  3
   3898   3895   3884   3902     1  0.0000000  1.0460000  1
   3898   3895   3884   3902     1  0.0000000  0.0000000  3
   3898   3895   3900   3901     1  0.0000000  0.6973333  3
   3899   3895   3884   3902     1  0.0000000  1.0460000  1
   3899   3895   3884   3902     1  0.0000000  0.0000000  3
   3899   3895   3900   3901     1  0.0000000  0.6973333  3
   3902   3884   3885   3904     1  0.0000000  1.0460000  1
   3902   3884   3885   3904     1  0.0000000  0.0000000  3
   3902   3889   3893   3903     1  0.0000000  0.6973333  3
   3904   3885   3905   3906     1  0.0000000  0.6973333  3
   3908   3909   3911   3915     1  0.0000000  0.6508444  3
   3908   3909   3929   3930     1  0.0000000  1.0460000  1
   3908   3909   3929   3930     1  0.0000000  0.6694400  3
   3908   3919   3924   3925     1  0.0000000  1.0460000  1
   3908   3919   3924   3925     1  0.0000000  0.6694400  3
   3908   3926   3913   3916     1  0.0000000  1.6038667  3
   3909   3908   3919   3922     1  0.0000000  0.6508444  3
   3909   3908   3919   3923     1  0.0000000  0.6508444  3
   3909   3911   3912   3914     1  0.0000000  0.6508444  3
   3909   3911   3918   3920     1  0.0000000  1.0460000  1
   3909   3911   3918   3920     1  0.0000000  0.6694400  3
   3910   3908   3909   3911     1  0.0000000  0.6508444  3
   3910   3908   3909   3929     1  0.0000000  1.0460000  1
   3910   3908   3909   3929     1  0.0000000  0.0000000  3
   3910   3908   3909   3928     1  0.0000000  0.6508444  3
   3910   3908   3919   3924     1  0.0000000  1.0460000  1
   3910   3908   3919   3924     1  0.0000000  0.0000000  3
   3910   3908   3919   3922     1  0.0000000  0.6508444  3
   3910   3908   3919   3923     1  0.0000000  0.6508444  3
   3910   3908   3926   3913     1  0.0000000  1.6038667  3
   3911   3909   3929   3930     1  0.0000000  1.0460000  1
   3911   3909   3929   3930     1  0.0000000  0.6694400  3
   3911   3912   3913   3916     1  0.0000000  0.6508444  3
   3911   3912   3931   3921     1  0.0000000  1.2552000  3
   3912   3911   3909   3928     1  0.0000000  0.6508444  3
   3912   3911   3918   3920     1  0.0000000  1.0460000  1
   3912   3911   3918   3920     1  0.0000000  0.6694400  3
   3912   3913   3917   3927     1  0.0000000  1.0460000  1
   3912   3913   3917   3927     1  0.0000000  0.6694400  3
   3913   3912   3911   3915     1  0.0000000  0.6508444  3
   3913   3912   3931   3921     1  0.0000000  1.2552000  3
   3914   3912   3911   3918     1  0.0000000  1.0460000  1
   3914   3912   3911   3918     1  0.0000000  0.0000000  3
   3914   3912   3911   3915     1  0.0000000  0.6508444  3
   3914   3912   3913   3917     1  0.0000000  1.0460000  1
   3914   3912   3913   3917     1  0.0000000  0.0000000  3
   3914   3912   3913   3926     1  0.0000000  1.0460000  1
   3914   3912   3913   3926     1  0.0000000  0.0000000  3
   3914   3912   3913   3916     1  0.0000000  0.6508444  3
   3914   3912   3931   3921     1  0.0000000  1.2552000  3
   3915   3911   3909   3929     1  0.0000000  1.0460000  1
   3915   3911   3909   3929     1  0.0000000  0.0000000  3
   3915   3911   3909   3928     1  0.0000000  0.6508444  3
   3915   3911   3912   3931     1  0.0000000  0.6508444  3
   3915   3911   3918   3920     1  0.0000000  0.6973333  3
   3916   3913   3912   3931     1  0.0000000  0.6508444  3
   3916   3913   3917   3927     1  0.0000000  0.6973333  3
   3918   3911   3909   3928     1  0.0000000  1.0460000  1
   3918   3911   3909   3928     1  0.0000000  0.0000000  3
   3919   3908   3909   3928     1  0.0000000  0.6508444  3
   3922   3919   3908   3926     1  0.0000000  1.0460000  1
   3922   3919   3908   3926     1  0.0000000  0.0000000  3
   3922   3919   3924   3925     1  0.0000000  0.6973333  3
   3923   3919   3908   3926     1  0.0000000  1.0460000  1
   3923   3919   3908   3926     1  0.0000000  0.0000000  3
   3923   3919   3924   3925     1  0.0000000  0.6973333  3
   3926   3908   3909   3928     1  0.0000000  1.0460000  1
   3926   3908   3909   3928     1  0.0000000  0.0000000  3
   3926   3913   3917   3927     1  0.0000000  0.6973333  3
   3928   3909   3929   3930     1  0.0000000  0.6973333  3
   3933   3935   3937   3939     1  0.0000000  0.6508444  3
   3933   3935   3937   3940     1  0.0000000  0.6508444  3
   3934   3933   3935   3937     1  0.0000000  0.0000000  2
   3934   3933   3935   3936     1  0.0000000  0.0000000  2
   3934   3933   3935   3938     1  0.0000000  0.0000000  2
   3935   3937   3941   4006     1  0.0000000  0.6508444  3
   3936   3935   3937   3941     1  0.0000000  0.6508444  3
   3936   3935   3937   3939     1  0.0000000  0.6508444  3
   3936   3935   3937   3940     1  0.0000000  0.6508444  3
   3937   3941   3942   3951     1  0.0000000  0.6508444  3
   3937   3941   3942   3952     1  0.0000000  0.6508444  3
   3937   3941   3943   3944     1  0.0000000  0.6508444  3
   3937   3941   3943   3946     1  0.0000000  0.6508444  3
   3938   3935   3937   3941     1  0.0000000  0.6508444  3
   3938   3935   3937   3939     1  0.0000000  0.6508444  3
   3938   3935   3937   3940     1  0.0000000  0.6508444  3
   3939   3937   3941   3942     1  0.0000000  0.6508444  3
   3939   3937   3941   3943     1  0.0000000  0.6508444  3
   3939   3937   3941   4006     1  0.0000000  0.6508444  3
   3940   3937   3941   3942     1  0.0000000  0.6508444  3
   3940   3937   3941   3943     1  0.0000000  0.6508444  3
   3940   3937   3941   4006     1  0.0000000  0.6508444  3
   3941   3942   3953   3954     1  0.0000000  0.6508444  3
   3941   3942   3953   3955     1  0.0000000  0.6508444  3
   3941   3943   3945   3947     1  0.0000000  0.6508444  3
   3941   3943   3945   3948     1  0.0000000  0.6508444  3
   3942   3941   3943   3944     1  0.0000000  0.6508444  3
   3942   3941   3943   3946     1  0.0000000  0.6508444  3
   3943   3941   3942   3951     1  0.0000000  0.6508444  3
   3943   3941   3942   3952     1  0.0000000  0.6508444  3
   3944   3943   3945   3949     1  0.0000000  0.6508444  3
   3944   3943   3945   3947     1  0.0000000  0.6508444  3
   3944   3943   3945   3948     1  0.0000000  0.6508444  3
   3944   3943   3941   4006     1  0.0000000  0.6508444  3
   3945   3949   3981   3971     1  180.0000771  6.0668000  2
   3945   3949   3981   3971     1  180.0000771  1.4644000  4
   3945   3943   3941   4006     1  0.0000000  0.6508444  3
   3946   3943   3945   3949     1  0.0000000  0.6508444  3
   3946   3943   3945   3947     1  0.0000000  0.6508444  3
   3946   3943   3945   3948     1  0.0000000  0.6508444  3
   3946   3943   3941   4006     1  0.0000000  0.6508444  3
   3947   3945   3949   3950     1  0.0000000  3.3472000  1
   3947   3945   3949   3950     1  0.0000000  0.0000000  2
   3947   3945   3949   3950     1  180.0000771  0.3347200  3
   3947   3945   3949   3981     1  180.0000771  0.0000000  2
   3948   3945   3949   3950     1  0.0000000  3.3472000  1
   3948   3945   3949   3950     1  0.0000000  0.0000000  2
   3948   3945   3949   3950     1  180.0000771  0.3347200  3
   3948   3945   3949   3981     1  180.0000771  0.0000000  2
   3949   3981   3962   3964     1  0.0000000  1.2552000  3
   3950   3949   3981   3971     1  180.0000771  6.0668000  2
   3950   3949   3981   3971     1  180.0000771  1.4644000  4
   3951   3942   3953   3956     1  0.0000000  0.6508444  3
   3951   3942   3953   3954     1  0.0000000  0.6508444  3
   3951   3942   3953   3955     1  0.0000000  0.6508444  3
   3951   3942   3941   4006     1  0.0000000  0.6508444  3
   3952   3942   3953   3956     1  0.0000000  0.6508444  3
   3952   3942   3953   3954     1  0.0000000  0.6508444  3
   3952   3942   3953   3955     1  0.0000000  0.6508444  3
   3952   3942   3941   4006     1  0.0000000  0.6508444  3
   3953   3956   4005   3995     1  180.0000771  6.0668000  2
   3953   3956   4005   3995     1  180.0000771  1.4644000  4
   3953   3942   3941   4006     1  0.0000000  0.6508444  3
   3954   3953   3956   3957     1  0.0000000  3.3472000  1
   3954   3953   3956   3957     1  0.0000000  0.0000000  2
   3954   3953   3956   3957     1  180.0000771  0.3347200  3
   3954   3953   3956   4005     1  180.0000771  0.0000000  2
   3955   3953   3956   3957     1  0.0000000  3.3472000  1
   3955   3953   3956   3957     1  0.0000000  0.0000000  2
   3955   3953   3956   3957     1  180.0000771  0.3347200  3
   3955   3953   3956   4005     1  180.0000771  0.0000000  2
   3956   4005   3986   3988     1  0.0000000  1.2552000  3
   3957   3956   4005   3995     1  180.0000771  6.0668000  2
   3957   3956   4005   3995     1  180.0000771  1.4644000  4
   3958   3959   3961   3965     1  0.0000000  0.6508444  3
   3958   3959   3979   3980     1  0.0000000  1.0460000  1
   3958   3959   3979   3980     1  0.0000000  0.6694400  3
   3958   3969   3974   3975     1  0.0000000  1.0460000  1
   3958   3969   3974   3975     1  0.0000000  0.6694400  3
   3958   3976   3963   3966     1  0.0000000  1.6038667  3
   3959   3961   3962   3964     1  0.0000000  0.6508444  3
   3959   3961   3968   3970     1  0.0000000  1.0460000  1
   3959   3961   3968   3970     1  0.0000000  0.6694400  3
   3959   3958   3969   3972     1  0.0000000  0.6508444  3
   3959   3958   3969   3973     1  0.0000000  0.6508444  3
   3960   3958   3959   3961     1  0.0000000  0.6508444  3
   3960   3958   3959   3979     1  0.0000000  1.0460000  1
   3960   3958   3959   3979     1  0.0000000  0.0000000  3
   3960   3958   3959   3978     1  0.0000000  0.6508444  3
   3960   3958   3969   3974     1  0.0000000  1.0460000  1
   3960   3958   3969   3974     1  0.0000000  0.0000000  3
   3960   3958   3969   3972     1  0.0000000  0.6508444  3
   3960   3958   3969   3973     1  0.0000000  0.6508444  3
   3960   3958   3976   3963     1  0.0000000  1.6038667  3
   3961   3962   3963   3966     1  0.0000000  0.6508444  3
   3961   3962   3981   3971     1  0.0000000  1.2552000  3
   3961   3959   3979   3980     1  0.0000000  1.0460000  1
   3961   3959   3979   3980     1  0.0000000  0.6694400  3
   3962   3963   3967   3977     1  0.0000000  1.0460000  1
   3962   3963   3967   3977     1  0.0000000  0.6694400  3
   3962   3961   3968   3970     1  0.0000000  1.0460000  1
   3962   3961   3968   3970     1  0.0000000  0.6694400  3
   3962   3961   3959   3978     1  0.0000000  0.6508444  3
   3963   3962   3981   3971     1  0.0000000  1.2552000  3
   3963   3962   3961   3965     1  0.0000000  0.6508444  3
   3964   3962   3963   3967     1  0.0000000  1.0460000  1
   3964   3962   3963   3967     1  0.0000000  0.0000000  3
   3964   3962   3963   3976     1  0.0000000  1.0460000  1
   3964   3962   3963   3976     1  0.0000000  0.0000000  3
   3964   3962   3963   3966     1  0.0000000  0.6508444  3
   3964   3962   3981   3971     1  0.0000000  1.2552000  3
   3964   3962   3961   3968     1  0.0000000  1.0460000  1
   3964   3962   3961   3968     1  0.0000000  0.0000000  3
   3964   3962   3961   3965     1  0.0000000  0.6508444  3
   3965   3961   3962   3981     1  0.0000000  0.6508444  3
   3965   3961   3968   3970     1  0.0000000  0.6973333  3
   3965   3961   3959   3979     1  0.0000000  1.0460000  1
   3965   3961   3959   3979     1  0.0000000  0.0000000  3
   3965   3961   3959   3978     1  0.0000000  0.6508444  3
   3966   3963   3967   3977     1  0.0000000  0.6973333  3
   3966   3963   3962   3981     1  0.0000000  0.6508444  3
   3968   3961   3959   3978     1  0.0000000  1.0460000  1
   3968   3961   3959   3978     1  0.0000000  0.0000000  3
   3969   3958   3959   3978     1  0.0000000  0.6508444  3
   3972   3969   3974   3975     1  0.0000000  0.6973333  3
   3972   3969   3958   3976     1  0.0000000  1.0460000  1
   3972   3969   3958   3976     1  0.0000000  0.0000000  3
   3973   3969   3974   3975     1  0.0000000  0.6973333  3
   3973   3969   3958   3976     1  0.0000000  1.0460000  1
   3973   3969   3958   3976     1  0.0000000  0.0000000  3
   3976   3963   3967   3977     1  0.0000000  0.6973333  3
   3976   3958   3959   3978     1  0.0000000  1.0460000  1
   3976   3958   3959   3978     1  0.0000000  0.0000000  3
   3978   3959   3979   3980     1  0.0000000  0.6973333  3
   3982   3983   3985   3989     1  0.0000000  0.6508444  3
   3982   3983   4003   4004     1  0.0000000  1.0460000  1
   3982   3983   4003   4004     1  0.0000000  0.6694400  3
   3982   3993   3998   3999     1  0.0000000  1.0460000  1
   3982   3993   3998   3999     1  0.0000000  0.6694400  3
   3982   4000   3987   3990     1  0.0000000  1.6038667  3
   3983   3985   3986   3988     1  0.0000000  0.6508444  3
   3983   3985   3992   3994     1  0.0000000  1.0460000  1
   3983   3985   3992   3994     1  0.0000000  0.6694400  3
   3983   3982   3993   3996     1  0.0000000  0.6508444  3
   3983   3982   3993   3997     1  0.0000000  0.6508444  3
   3984   3982   3983   3985     1  0.0000000  0.6508444  3
   3984   3982   3983   4003     1  0.0000000  1.0460000  1
   3984   3982   3983   4003     1  0.0000000  0.0000000  3
   3984   3982   3983   4002     1  0.0000000  0.6508444  3
   3984   3982   3993   3998     1  0.0000000  1.0460000  1
   3984   3982   3993   3998     1  0.0000000  0.0000000  3
   3984   3982   3993   3996     1  0.0000000  0.6508444  3
   3984   3982   3993   3997     1  0.0000000  0.6508444  3
   3984   3982   4000   3987     1  0.0000000  1.6038667  3
   3985   3986   3987   3990     1  0.0000000  0.6508444  3
   3985   3986   4005   3995     1  0.0000000  1.2552000  3
   3985   3983   4003   4004     1  0.0000000  1.0460000  1
   3985   3983   4003   4004     1  0.0000000  0.6694400  3
   3986   3987   3991   4001     1  0.0000000  1.0460000  1
   3986   3987   3991   4001     1  0.0000000  0.6694400  3
   3986   3985   3992   3994     1  0.0000000  1.0460000  1
   3986   3985   3992   3994     1  0.0000000  0.6694400  3
   3986   3985   3983   4002     1  0.0000000  0.6508444  3
   3987   3986   4005   3995     1  0.0000000  1.2552000  3
   3987   3986   3985   3989     1  0.0000000  0.6508444  3
   3988   3986   3987   3991     1  0.0000000  1.0460000  1
   3988   3986   3987   3991     1  0.0000000  0.0000000  3
   3988   3986   3987   4000     1  0.0000000  1.0460000  1
   3988   3986   3987   4000     1  0.0000000  0.0000000  3
   3988   3986   3987   3990     1  0.0000000  0.6508444  3
   3988   3986   4005   3995     1  0.0000000  1.2552000  3
   3988   3986   3985   3992     1  0.0000000  1.0460000  1
   3988   3986   3985   3992     1  0.0000000  0.0000000  3
   3988   3986   3985   3989     1  0.0000000  0.6508444  3
   3989   3985   3986   4005     1  0.0000000  0.6508444  3
   3989   3985   3992   3994     1  0.0000000  0.6973333  3
   3989   3985   3983   4003     1  0.0000000  1.0460000  1
   3989   3985   3983   4003     1  0.0000000  0.0000000  3
   3989   3985   3983   4002     1  0.0000000  0.6508444  3
   3990   3987   3991   4001     1  0.0000000  0.6973333  3
   3990   3987   3986   4005     1  0.0000000  0.6508444  3
   3992   3985   3983   4002     1  0.0000000  1.0460000  1
   3992   3985   3983   4002     1  0.0000000  0.0000000  3
   3993   3982   3983   4002     1  0.0000000  0.6508444  3
   3996   3993   3998   3999     1  0.0000000  0.6973333  3
   3996   3993   3982   4000     1  0.0000000  1.0460000  1
   3996   3993   3982   4000     1  0.0000000  0.0000000  3
   3997   3993   3998   3999     1  0.0000000  0.6973333  3
   3997   3993   3982   4000     1  0.0000000  1.0460000  1
   3997   3993   3982   4000     1  0.0000000  0.0000000  3
   4000   3987   3991   4001     1  0.0000000  0.6973333  3
   4000   3982   3983   4002     1  0.0000000  1.0460000  1
   4000   3982   3983   4002     1  0.0000000  0.0000000  3
   4002   3983   4003   4004     1  0.0000000  0.6973333  3
   4007   4009   4011   4013     1  0.0000000  0.6508444  3
   4007   4009   4011   4014     1  0.0000000  0.6508444  3
   4008   4007   4009   4011     1  0.0000000  0.0000000  2
   4008   4007   4009   4010     1  0.0000000  0.0000000  2
   4008   4007   4009   4012     1  0.0000000  0.0000000  2
   4009   4011   4015   4080     1  0.0000000  0.6508444  3
   4010   4009   4011   4015     1  0.0000000  0.6508444  3
   4010   4009   4011   4013     1  0.0000000  0.6508444  3
   4010   4009   4011   4014     1  0.0000000  0.6508444  3
   4011   4015   4016   4025     1  0.0000000  0.6508444  3
   4011   4015   4016   4026     1  0.0000000  0.6508444  3
   4011   4015   4017   4018     1  0.0000000  0.6508444  3
   4011   4015   4017   4020     1  0.0000000  0.6508444  3
   4012   4009   4011   4015     1  0.0000000  0.6508444  3
   4012   4009   4011   4013     1  0.0000000  0.6508444  3
   4012   4009   4011   4014     1  0.0000000  0.6508444  3
   4013   4011   4015   4016     1  0.0000000  0.6508444  3
   4013   4011   4015   4017     1  0.0000000  0.6508444  3
   4013   4011   4015   4080     1  0.0000000  0.6508444  3
   4014   4011   4015   4016     1  0.0000000  0.6508444  3
   4014   4011   4015   4017     1  0.0000000  0.6508444  3
   4014   4011   4015   4080     1  0.0000000  0.6508444  3
   4015   4016   4027   4028     1  0.0000000  0.6508444  3
   4015   4016   4027   4029     1  0.0000000  0.6508444  3
   4015   4017   4019   4021     1  0.0000000  0.6508444  3
   4015   4017   4019   4022     1  0.0000000  0.6508444  3
   4016   4015   4017   4018     1  0.0000000  0.6508444  3
   4016   4015   4017   4020     1  0.0000000  0.6508444  3
   4017   4015   4016   4025     1  0.0000000  0.6508444  3
   4017   4015   4016   4026     1  0.0000000  0.6508444  3
   4018   4017   4015   4080     1  0.0000000  0.6508444  3
   4018   4017   4019   4023     1  0.0000000  0.6508444  3
   4018   4017   4019   4021     1  0.0000000  0.6508444  3
   4018   4017   4019   4022     1  0.0000000  0.6508444  3
   4019   4017   4015   4080     1  0.0000000  0.6508444  3
   4019   4023   4055   4045     1  180.0000771  6.0668000  2
   4019   4023   4055   4045     1  180.0000771  1.4644000  4
   4020   4017   4015   4080     1  0.0000000  0.6508444  3
   4020   4017   4019   4023     1  0.0000000  0.6508444  3
   4020   4017   4019   4021     1  0.0000000  0.6508444  3
   4020   4017   4019   4022     1  0.0000000  0.6508444  3
   4021   4019   4023   4024     1  0.0000000  3.3472000  1
   4021   4019   4023   4024     1  0.0000000  0.0000000  2
   4021   4019   4023   4024     1  180.0000771  0.3347200  3
   4021   4019   4023   4055     1  180.0000771  0.0000000  2
   4022   4019   4023   4024     1  0.0000000  3.3472000  1
   4022   4019   4023   4024     1  0.0000000  0.0000000  2
   4022   4019   4023   4024     1  180.0000771  0.3347200  3
   4022   4019   4023   4055     1  180.0000771  0.0000000  2
   4023   4055   4036   4038     1  0.0000000  1.2552000  3
   4024   4023   4055   4045     1  180.0000771  6.0668000  2
   4024   4023   4055   4045     1  180.0000771  1.4644000  4
   4025   4016   4015   4080     1  0.0000000  0.6508444  3
   4025   4016   4027   4030     1  0.0000000  0.6508444  3
   4025   4016   4027   4028     1  0.0000000  0.6508444  3
   4025   4016   4027   4029     1  0.0000000  0.6508444  3
   4026   4016   4015   4080     1  0.0000000  0.6508444  3
   4026   4016   4027   4030     1  0.0000000  0.6508444  3
   4026   4016   4027   4028     1  0.0000000  0.6508444  3
   4026   4016   4027   4029     1  0.0000000  0.6508444  3
   4027   4016   4015   4080     1  0.0000000  0.6508444  3
   4027   4030   4079   4069     1  180.0000771  6.0668000  2
   4027   4030   4079   4069     1  180.0000771  1.4644000  4
   4028   4027   4030   4031     1  0.0000000  3.3472000  1
   4028   4027   4030   4031     1  0.0000000  0.0000000  2
   4028   4027   4030   4031     1  180.0000771  0.3347200  3
   4028   4027   4030   4079     1  180.0000771  0.0000000  2
   4029   4027   4030   4031     1  0.0000000  3.3472000  1
   4029   4027   4030   4031     1  0.0000000  0.0000000  2
   4029   4027   4030   4031     1  180.0000771  0.3347200  3
   4029   4027   4030   4079     1  180.0000771  0.0000000  2
   4030   4079   4060   4062     1  0.0000000  1.2552000  3
   4031   4030   4079   4069     1  180.0000771  6.0668000  2
   4031   4030   4079   4069     1  180.0000771  1.4644000  4
   4032   4033   4035   4039     1  0.0000000  0.6508444  3
   4032   4033   4053   4054     1  0.0000000  1.0460000  1
   4032   4033   4053   4054     1  0.0000000  0.6694400  3
   4032   4043   4048   4049     1  0.0000000  1.0460000  1
   4032   4043   4048   4049     1  0.0000000  0.6694400  3
   4032   4050   4037   4040     1  0.0000000  1.6038667  3
   4033   4032   4043   4046     1  0.0000000  0.6508444  3
   4033   4032   4043   4047     1  0.0000000  0.6508444  3
   4033   4035   4036   4038     1  0.0000000  0.6508444  3
   4033   4035   4042   4044     1  0.0000000  1.0460000  1
   4033   4035   4042   4044     1  0.0000000  0.6694400  3
   4034   4032   4033   4035     1  0.0000000  0.6508444  3
   4034   4032   4033   4053     1  0.0000000  1.0460000  1
   4034   4032   4033   4053     1  0.0000000  0.0000000  3
   4034   4032   4033   4052     1  0.0000000  0.6508444  3
   4034   4032   4043   4048     1  0.0000000  1.0460000  1
   4034   4032   4043   4048     1  0.0000000  0.0000000  3
   4034   4032   4043   4046     1  0.0000000  0.6508444  3
   4034   4032   4043   4047     1  0.0000000  0.6508444  3
   4034   4032   4050   4037     1  0.0000000  1.6038667  3
   4035   4033   4053   4054     1  0.0000000  1.0460000  1
   4035   4033   4053   4054     1  0.0000000  0.6694400  3
   4035   4036   4037   4040     1  0.0000000  0.6508444  3
   4035   4036   4055   4045     1  0.0000000  1.2552000  3
   4036   4035   4033   4052     1  0.0000000  0.6508444  3
   4036   4035   4042   4044     1  0.0000000  1.0460000  1
   4036   4035   4042   4044     1  0.0000000  0.6694400  3
   4036   4037   4041   4051     1  0.0000000  1.0460000  1
   4036   4037   4041   4051     1  0.0000000  0.6694400  3
   4037   4036   4035   4039     1  0.0000000  0.6508444  3
   4037   4036   4055   4045     1  0.0000000  1.2552000  3
   4038   4036   4035   4042     1  0.0000000  1.0460000  1
   4038   4036   4035   4042     1  0.0000000  0.0000000  3
   4038   4036   4035   4039     1  0.0000000  0.6508444  3
   4038   4036   4037   4041     1  0.0000000  1.0460000  1
   4038   4036   4037   4041     1  0.0000000  0.0000000  3
   4038   4036   4037   4050     1  0.0000000  1.0460000  1
   4038   4036   4037   4050     1  0.0000000  0.0000000  3
   4038   4036   4037   4040     1  0.0000000  0.6508444  3
   4038   4036   4055   4045     1  0.0000000  1.2552000  3
   4039   4035   4033   4053     1  0.0000000  1.0460000  1
   4039   4035   4033   4053     1  0.0000000  0.0000000  3
   4039   4035   4033   4052     1  0.0000000  0.6508444  3
   4039   4035   4036   4055     1  0.0000000  0.6508444  3
   4039   4035   4042   4044     1  0.0000000  0.6973333  3
   4040   4037   4036   4055     1  0.0000000  0.6508444  3
   4040   4037   4041   4051     1  0.0000000  0.6973333  3
   4042   4035   4033   4052     1  0.0000000  1.0460000  1
   4042   4035   4033   4052     1  0.0000000  0.0000000  3
   4043   4032   4033   4052     1  0.0000000  0.6508444  3
   4046   4043   4032   4050     1  0.0000000  1.0460000  1
   4046   4043   4032   4050     1  0.0000000  0.0000000  3
   4046   4043   4048   4049     1  0.0000000  0.6973333  3
   4047   4043   4032   4050     1  0.0000000  1.0460000  1
   4047   4043   4032   4050     1  0.0000000  0.0000000  3
   4047   4043   4048   4049     1  0.0000000  0.6973333  3
   4050   4032   4033   4052     1  0.0000000  1.0460000  1
   4050   4032   4033   4052     1  0.0000000  0.0000000  3
   4050   4037   4041   4051     1  0.0000000  0.6973333  3
   4052   4033   4053   4054     1  0.0000000  0.6973333  3
   4056   4057   4059   4063     1  0.0000000  0.6508444  3
   4056   4057   4077   4078     1  0.0000000  1.0460000  1
   4056   4057   4077   4078     1  0.0000000  0.6694400  3
   4056   4067   4072   4073     1  0.0000000  1.0460000  1
   4056   4067   4072   4073     1  0.0000000  0.6694400  3
   4056   4074   4061   4064     1  0.0000000  1.6038667  3
   4057   4056   4067   4070     1  0.0000000  0.6508444  3
   4057   4056   4067   4071     1  0.0000000  0.6508444  3
   4057   4059   4060   4062     1  0.0000000  0.6508444  3
   4057   4059   4066   4068     1  0.0000000  1.0460000  1
   4057   4059   4066   4068     1  0.0000000  0.6694400  3
   4058   4056   4057   4059     1  0.0000000  0.6508444  3
   4058   4056   4057   4077     1  0.0000000  1.0460000  1
   4058   4056   4057   4077     1  0.0000000  0.0000000  3
   4058   4056   4057   4076     1  0.0000000  0.6508444  3
   4058   4056   4067   4072     1  0.0000000  1.0460000  1
   4058   4056   4067   4072     1  0.0000000  0.0000000  3
   4058   4056   4067   4070     1  0.0000000  0.6508444  3
   4058   4056   4067   4071     1  0.0000000  0.6508444  3
   4058   4056   4074   4061     1  0.0000000  1.6038667  3
   4059   4057   4077   4078     1  0.0000000  1.0460000  1
   4059   4057   4077   4078     1  0.0000000  0.6694400  3
   4059   4060   4061   4064     1  0.0000000  0.6508444  3
   4059   4060   4079   4069     1  0.0000000  1.2552000  3
   4060   4059   4057   4076     1  0.0000000  0.6508444  3
   4060   4059   4066   4068     1  0.0000000  1.0460000  1
   4060   4059   4066   4068     1  0.0000000  0.6694400  3
   4060   4061   4065   4075     1  0.0000000  1.0460000  1
   4060   4061   4065   4075     1  0.0000000  0.6694400  3
   4061   4060   4059   4063     1  0.0000000  0.6508444  3
   4061   4060   4079   4069     1  0.0000000  1.2552000  3
   4062   4060   4059   4066     1  0.0000000  1.0460000  1
   4062   4060   4059   4066     1  0.0000000  0.0000000  3
   4062   4060   4059   4063     1  0.0000000  0.6508444  3
   4062   4060   4061   4065     1  0.0000000  1.0460000  1
   4062   4060   4061   4065     1  0.0000000  0.0000000  3
   4062   4060   4061   4074     1  0.0000000  1.0460000  1
   4062   4060   4061   4074     1  0.0000000  0.0000000  3
   4062   4060   4061   4064     1  0.0000000  0.6508444  3
   4062   4060   4079   4069     1  0.0000000  1.2552000  3
   4063   4059   4057   4077     1  0.0000000  1.0460000  1
   4063   4059   4057   4077     1  0.0000000  0.0000000  3
   4063   4059   4057   4076     1  0.0000000  0.6508444  3
   4063   4059   4060   4079     1  0.0000000  0.6508444  3
   4063   4059   4066   4068     1  0.0000000  0.6973333  3
   4064   4061   4060   4079     1  0.0000000  0.6508444  3
   4064   4061   4065   4075     1  0.0000000  0.6973333  3
   4066   4059   4057   4076     1  0.0000000  1.0460000  1
   4066   4059   4057   4076     1  0.0000000  0.0000000  3
   4067   4056   4057   4076     1  0.0000000  0.6508444  3
   4070   4067   4056   4074     1  0.0000000  1.0460000  1
   4070   4067   4056   4074     1  0.0000000  0.0000000  3
   4070   4067   4072   4073     1  0.0000000  0.6973333  3
   4071   4067   4056   4074     1  0.0000000  1.0460000  1
   4071   4067   4056   4074     1  0.0000000  0.0000000  3
   4071   4067   4072   4073     1  0.0000000  0.6973333  3
   4074   4056   4057   4076     1  0.0000000  1.0460000  1
   4074   4056   4057   4076     1  0.0000000  0.0000000  3
   4074   4061   4065   4075     1  0.0000000  0.6973333  3
   4076   4057   4077   4078     1  0.0000000  0.6973333  3
   4081   4083   4085   4087     1  0.0000000  0.6508444  3
   4081   4083   4085   4088     1  0.0000000  0.6508444  3
   4082   4081   4083   4085     1  0.0000000  0.0000000  2
   4082   4081   4083   4084     1  0.0000000  0.0000000  2
   4082   4081   4083   4086     1  0.0000000  0.0000000  2
   4083   4085   4089   4154     1  0.0000000  0.6508444  3
   4084   4083   4085   4089     1  0.0000000  0.6508444  3
   4084   4083   4085   4087     1  0.0000000  0.6508444  3
   4084   4083   4085   4088     1  0.0000000  0.6508444  3
   4085   4089   4090   4099     1  0.0000000  0.6508444  3
   4085   4089   4090   4100     1  0.0000000  0.6508444  3
   4085   4089   4091   4092     1  0.0000000  0.6508444  3
   4085   4089   4091   4094     1  0.0000000  0.6508444  3
   4086   4083   4085   4089     1  0.0000000  0.6508444  3
   4086   4083   4085   4087     1  0.0000000  0.6508444  3
   4086   4083   4085   4088     1  0.0000000  0.6508444  3
   4087   4085   4089   4090     1  0.0000000  0.6508444  3
   4087   4085   4089   4091     1  0.0000000  0.6508444  3
   4087   4085   4089   4154     1  0.0000000  0.6508444  3
   4088   4085   4089   4090     1  0.0000000  0.6508444  3
   4088   4085   4089   4091     1  0.0000000  0.6508444  3
   4088   4085   4089   4154     1  0.0000000  0.6508444  3
   4089   4090   4101   4102     1  0.0000000  0.6508444  3
   4089   4090   4101   4103     1  0.0000000  0.6508444  3
   4089   4091   4093   4095     1  0.0000000  0.6508444  3
   4089   4091   4093   4096     1  0.0000000  0.6508444  3
   4090   4089   4091   4092     1  0.0000000  0.6508444  3
   4090   4089   4091   4094     1  0.0000000  0.6508444  3
   4091   4089   4090   4099     1  0.0000000  0.6508444  3
   4091   4089   4090   4100     1  0.0000000  0.6508444  3
   4092   4091   4093   4097     1  0.0000000  0.6508444  3
   4092   4091   4093   4095     1  0.0000000  0.6508444  3
   4092   4091   4093   4096     1  0.0000000  0.6508444  3
   4092   4091   4089   4154     1  0.0000000  0.6508444  3
   4093   4097   4129   4119     1  180.0000771  6.0668000  2
   4093   4097   4129   4119     1  180.0000771  1.4644000  4
   4093   4091   4089   4154     1  0.0000000  0.6508444  3
   4094   4091   4093   4097     1  0.0000000  0.6508444  3
   4094   4091   4093   4095     1  0.0000000  0.6508444  3
   4094   4091   4093   4096     1  0.0000000  0.6508444  3
   4094   4091   4089   4154     1  0.0000000  0.6508444  3
   4095   4093   4097   4098     1  0.0000000  3.3472000  1
   4095   4093   4097   4098     1  0.0000000  0.0000000  2
   4095   4093   4097   4098     1  180.0000771  0.3347200  3
   4095   4093   4097   4129     1  180.0000771  0.0000000  2
   4096   4093   4097   4098     1  0.0000000  3.3472000  1
   4096   4093   4097   4098     1  0.0000000  0.0000000  2
   4096   4093   4097   4098     1  180.0000771  0.3347200  3
   4096   4093   4097   4129     1  180.0000771  0.0000000  2
   4097   4129   4110   4112     1  0.0000000  1.2552000  3
   4098   4097   4129   4119     1  180.0000771  6.0668000  2
   4098   4097   4129   4119     1  180.0000771  1.4644000  4
   4099   4090   4101   4104     1  0.0000000  0.6508444  3
   4099   4090   4101   4102     1  0.0000000  0.6508444  3
   4099   4090   4101   4103     1  0.0000000  0.6508444  3
   4099   4090   4089   4154     1  0.0000000  0.6508444  3
   4100   4090   4101   4104     1  0.0000000  0.6508444  3
   4100   4090   4101   4102     1  0.0000000  0.6508444  3
   4100   4090   4101   4103     1  0.0000000  0.6508444  3
   4100   4090   4089   4154     1  0.0000000  0.6508444  3
   4101   4104   4153   4143     1  180.0000771  6.0668000  2
   4101   4104   4153   4143     1  180.0000771  1.4644000  4
   4101   4090   4089   4154     1  0.0000000  0.6508444  3
   4102   4101   4104   4105     1  0.0000000  3.3472000  1
   4102   4101   4104   4105     1  0.0000000  0.0000000  2
   4102   4101   4104   4105     1  180.0000771  0.3347200  3
   4102   4101   4104   4153     1  180.0000771  0.0000000  2
   4103   4101   4104   4105     1  0.0000000  3.3472000  1
   4103   4101   4104   4105     1  0.0000000  0.0000000  2
   4103   4101   4104   4105     1  180.0000771  0.3347200  3
   4103   4101   4104   4153     1  180.0000771  0.0000000  2
   4104   4153   4134   4136     1  0.0000000  1.2552000  3
   4105   4104   4153   4143     1  180.0000771  6.0668000  2
   4105   4104   4153   4143     1  180.0000771  1.4644000  4
   4106   4107   4109   4113     1  0.0000000  0.6508444  3
   4106   4107   4127   4128     1  0.0000000  1.0460000  1
   4106   4107   4127   4128     1  0.0000000  0.6694400  3
   4106   4117   4122   4123     1  0.0000000  1.0460000  1
   4106   4117   4122   4123     1  0.0000000  0.6694400  3
   4106   4124   4111   4114     1  0.0000000  1.6038667  3
   4107   4109   4110   4112     1  0.0000000  0.6508444  3
   4107   4109   4116   4118     1  0.0000000  1.0460000  1
   4107   4109   4116   4118     1  0.0000000  0.6694400  3
   4107   4106   4117   4120     1  0.0000000  0.6508444  3
   4107   4106   4117   4121     1  0.0000000  0.6508444  3
   4108   4106   4107   4109     1  0.0000000  0.6508444  3
   4108   4106   4107   4127     1  0.0000000  1.0460000  1
   4108   4106   4107   4127     1  0.0000000  0.0000000  3
   4108   4106   4107   4126     1  0.0000000  0.6508444  3
   4108   4106   4117   4122     1  0.0000000  1.0460000  1
   4108   4106   4117   4122     1  0.0000000  0.0000000  3
   4108   4106   4117   4120     1  0.0000000  0.6508444  3
   4108   4106   4117   4121     1  0.0000000  0.6508444  3
   4108   4106   4124   4111     1  0.0000000  1.6038667  3
   4109   4110   4111   4114     1  0.0000000  0.6508444  3
   4109   4110   4129   4119     1  0.0000000  1.2552000  3
   4109   4107   4127   4128     1  0.0000000  1.0460000  1
   4109   4107   4127   4128     1  0.0000000  0.6694400  3
   4110   4111   4115   4125     1  0.0000000  1.0460000  1
   4110   4111   4115   4125     1  0.0000000  0.6694400  3
   4110   4109   4116   4118     1  0.0000000  1.0460000  1
   4110   4109   4116   4118     1  0.0000000  0.6694400  3
   4110   4109   4107   4126     1  0.0000000  0.6508444  3
   4111   4110   4129   4119     1  0.0000000  1.2552000  3
   4111   4110   4109   4113     1  0.0000000  0.6508444  3
   4112   4110   4111   4115     1  0.0000000  1.0460000  1
   4112   4110   4111   4115     1  0.0000000  0.0000000  3
   4112   4110   4111   4124     1  0.0000000  1.0460000  1
   4112   4110   4111   4124     1  0.0000000  0.0000000  3
   4112   4110   4111   4114     1  0.0000000  0.6508444  3
   4112   4110   4129   4119     1  0.0000000  1.2552000  3
   4112   4110   4109   4116     1  0.0000000  1.0460000  1
   4112   4110   4109   4116     1  0.0000000  0.0000000  3
   4112   4110   4109   4113     1  0.0000000  0.6508444  3
   4113   4109   4110   4129     1  0.0000000  0.6508444  3
   4113   4109   4116   4118     1  0.0000000  0.6973333  3
   4113   4109   4107   4127     1  0.0000000  1.0460000  1
   4113   4109   4107   4127     1  0.0000000  0.0000000  3
   4113   4109   4107   4126     1  0.0000000  0.6508444  3
   4114   4111   4115   4125     1  0.0000000  0.6973333  3
   4114   4111   4110   4129     1  0.0000000  0.6508444  3
   4116   4109   4107   4126     1  0.0000000  1.0460000  1
   4116   4109   4107   4126     1  0.0000000  0.0000000  3
   4117   4106   4107   4126     1  0.0000000  0.6508444  3
   4120   4117   4122   4123     1  0.0000000  0.6973333  3
   4120   4117   4106   4124     1  0.0000000  1.0460000  1
   4120   4117   4106   4124     1  0.0000000  0.0000000  3
   4121   4117   4122   4123     1  0.0000000  0.6973333  3
   4121   4117   4106   4124     1  0.0000000  1.0460000  1
   4121   4117   4106   4124     1  0.0000000  0.0000000  3
   4124   4111   4115   4125     1  0.0000000  0.6973333  3
   4124   4106   4107   4126     1  0.0000000  1.0460000  1
   4124   4106   4107   4126     1  0.0000000  0.0000000  3
   4126   4107   4127   4128     1  0.0000000  0.6973333  3
   4130   4131   4133   4137     1  0.0000000  0.6508444  3
   4130   4131   4151   4152     1  0.0000000  1.0460000  1
   4130   4131   4151   4152     1  0.0000000  0.6694400  3
   4130   4141   4146   4147     1  0.0000000  1.0460000  1
   4130   4141   4146   4147     1  0.0000000  0.6694400  3
   4130   4148   4135   4138     1  0.0000000  1.6038667  3
   4131   4133   4134   4136     1  0.0000000  0.6508444  3
   4131   4133   4140   4142     1  0.0000000  1.0460000  1
   4131   4133   4140   4142     1  0.0000000  0.6694400  3
   4131   4130   4141   4144     1  0.0000000  0.6508444  3
   4131   4130   4141   4145     1  0.0000000  0.6508444  3
   4132   4130   4131   4133     1  0.0000000  0.6508444  3
   4132   4130   4131   4151     1  0.0000000  1.0460000  1
   4132   4130   4131   4151     1  0.0000000  0.0000000  3
   4132   4130   4131   4150     1  0.0000000  0.6508444  3
   4132   4130   4141   4146     1  0.0000000  1.0460000  1
   4132   4130   4141   4146     1  0.0000000  0.0000000  3
   4132   4130   4141   4144     1  0.0000000  0.6508444  3
   4132   4130   4141   4145     1  0.0000000  0.6508444  3
   4132   4130   4148   4135     1  0.0000000  1.6038667  3
   4133   4134   4135   4138     1  0.0000000  0.6508444  3
   4133   4134   4153   4143     1  0.0000000  1.2552000  3
   4133   4131   4151   4152     1  0.0000000  1.0460000  1
   4133   4131   4151   4152     1  0.0000000  0.6694400  3
   4134   4135   4139   4149     1  0.0000000  1.0460000  1
   4134   4135   4139   4149     1  0.0000000  0.6694400  3
   4134   4133   4140   4142     1  0.0000000  1.0460000  1
   4134   4133   4140   4142     1  0.0000000  0.6694400  3
   4134   4133   4131   4150     1  0.0000000  0.6508444  3
   4135   4134   4153   4143     1  0.0000000  1.2552000  3
   4135   4134   4133   4137     1  0.0000000  0.6508444  3
   4136   4134   4135   4139     1  0.0000000  1.0460000  1
   4136   4134   4135   4139     1  0.0000000  0.0000000  3
   4136   4134   4135   4148     1  0.0000000  1.0460000  1
   4136   4134   4135   4148     1  0.0000000  0.0000000  3
   4136   4134   4135   4138     1  0.0000000  0.6508444  3
   4136   4134   4153   4143     1  0.0000000  1.2552000  3
   4136   4134   4133   4140     1  0.0000000  1.0460000  1
   4136   4134   4133   4140     1  0.0000000  0.0000000  3
   4136   4134   4133   4137     1  0.0000000  0.6508444  3
   4137   4133   4134   4153     1  0.0000000  0.6508444  3
   4137   4133   4140   4142     1  0.0000000  0.6973333  3
   4137   4133   4131   4151     1  0.0000000  1.0460000  1
   4137   4133   4131   4151     1  0.0000000  0.0000000  3
   4137   4133   4131   4150     1  0.0000000  0.6508444  3
   4138   4135   4139   4149     1  0.0000000  0.6973333  3
   4138   4135   4134   4153     1  0.0000000  0.6508444  3
   4140   4133   4131   4150     1  0.0000000  1.0460000  1
   4140   4133   4131   4150     1  0.0000000  0.0000000  3
   4141   4130   4131   4150     1  0.0000000  0.6508444  3
   4144   4141   4146   4147     1  0.0000000  0.6973333  3
   4144   4141   4130   4148     1  0.0000000  1.0460000  1
   4144   4141   4130   4148     1  0.0000000  0.0000000  3
   4145   4141   4146   4147     1  0.0000000  0.6973333  3
   4145   4141   4130   4148     1  0.0000000  1.0460000  1
   4145   4141   4130   4148     1  0.0000000  0.0000000  3
   4148   4135   4139   4149     1  0.0000000  0.6973333  3
   4148   4130   4131   4150     1  0.0000000  1.0460000  1
   4148   4130   4131   4150     1  0.0000000  0.0000000  3
   4150   4131   4151   4152     1  0.0000000  0.6973333  3
   4155   4157   4159   4161     1  0.0000000  0.6508444  3
   4155   4157   4159   4162     1  0.0000000  0.6508444  3
   4156   4155   4157   4159     1  0.0000000  0.0000000  2
   4156   4155   4157   4158     1  0.0000000  0.0000000  2
   4156   4155   4157   4160     1  0.0000000  0.0000000  2
   4157   4159   4163   4228     1  0.0000000  0.6508444  3
   4158   4157   4159   4163     1  0.0000000  0.6508444  3
   4158   4157   4159   4161     1  0.0000000  0.6508444  3
   4158   4157   4159   4162     1  0.0000000  0.6508444  3
   4159   4163   4164   4173     1  0.0000000  0.6508444  3
   4159   4163   4164   4174     1  0.0000000  0.6508444  3
   4159   4163   4165   4166     1  0.0000000  0.6508444  3
   4159   4163   4165   4168     1  0.0000000  0.6508444  3
   4160   4157   4159   4163     1  0.0000000  0.6508444  3
   4160   4157   4159   4161     1  0.0000000  0.6508444  3
   4160   4157   4159   4162     1  0.0000000  0.6508444  3
   4161   4159   4163   4164     1  0.0000000  0.6508444  3
   4161   4159   4163   4165     1  0.0000000  0.6508444  3
   4161   4159   4163   4228     1  0.0000000  0.6508444  3
   4162   4159   4163   4164     1  0.0000000  0.6508444  3
   4162   4159   4163   4165     1  0.0000000  0.6508444  3
   4162   4159   4163   4228     1  0.0000000  0.6508444  3
   4163   4164   4175   4176     1  0.0000000  0.6508444  3
   4163   4164   4175   4177     1  0.0000000  0.6508444  3
   4163   4165   4167   4169     1  0.0000000  0.6508444  3
   4163   4165   4167   4170     1  0.0000000  0.6508444  3
   4164   4163   4165   4166     1  0.0000000  0.6508444  3
   4164   4163   4165   4168     1  0.0000000  0.6508444  3
   4165   4163   4164   4173     1  0.0000000  0.6508444  3
   4165   4163   4164   4174     1  0.0000000  0.6508444  3
   4166   4165   4163   4228     1  0.0000000  0.6508444  3
   4166   4165   4167   4171     1  0.0000000  0.6508444  3
   4166   4165   4167   4169     1  0.0000000  0.6508444  3
   4166   4165   4167   4170     1  0.0000000  0.6508444  3
   4167   4165   4163   4228     1  0.0000000  0.6508444  3
   4167   4171   4203   4193     1  180.0000771  6.0668000  2
   4167   4171   4203   4193     1  180.0000771  1.4644000  4
   4168   4165   4163   4228     1  0.0000000  0.6508444  3
   4168   4165   4167   4171     1  0.0000000  0.6508444  3
   4168   4165   4167   4169     1  0.0000000  0.6508444  3
   4168   4165   4167   4170     1  0.0000000  0.6508444  3
   4169   4167   4171   4172     1  0.0000000  3.3472000  1
   4169   4167   4171   4172     1  0.0000000  0.0000000  2
   4169   4167   4171   4172     1  180.0000771  0.3347200  3
   4169   4167   4171   4203     1  180.0000771  0.0000000  2
   4170   4167   4171   4172     1  0.0000000  3.3472000  1
   4170   4167   4171   4172     1  0.0000000  0.0000000  2
   4170   4167   4171   4172     1  180.0000771  0.3347200  3
   4170   4167   4171   4203     1  180.0000771  0.0000000  2
   4171   4203   4184   4186     1  0.0000000  1.2552000  3
   4172   4171   4203   4193     1  180.0000771  6.0668000  2
   4172   4171   4203   4193     1  180.0000771  1.4644000  4
   4173   4164   4163   4228     1  0.0000000  0.6508444  3
   4173   4164   4175   4178     1  0.0000000  0.6508444  3
   4173   4164   4175   4176     1  0.0000000  0.6508444  3
   4173   4164   4175   4177     1  0.0000000  0.6508444  3
   4174   4164   4163   4228     1  0.0000000  0.6508444  3
   4174   4164   4175   4178     1  0.0000000  0.6508444  3
   4174   4164   4175   4176     1  0.0000000  0.6508444  3
   4174   4164   4175   4177     1  0.0000000  0.6508444  3
   4175   4164   4163   4228     1  0.0000000  0.6508444  3
   4175   4178   4227   4217     1  180.0000771  6.0668000  2
   4175   4178   4227   4217     1  180.0000771  1.4644000  4
   4176   4175   4178   4179     1  0.0000000  3.3472000  1
   4176   4175   4178   4179     1  0.0000000  0.0000000  2
   4176   4175   4178   4179     1  180.0000771  0.3347200  3
   4176   4175   4178   4227     1  180.0000771  0.0000000  2
   4177   4175   4178   4179     1  0.0000000  3.3472000  1
   4177   4175   4178   4179     1  0.0000000  0.0000000  2
   4177   4175   4178   4179     1  180.0000771  0.3347200  3
   4177   4175   4178   4227     1  180.0000771  0.0000000  2
   4178   4227   4208   4210     1  0.0000000  1.2552000  3
   4179   4178   4227   4217     1  180.0000771  6.0668000  2
   4179   4178   4227   4217     1  180.0000771  1.4644000  4
   4180   4181   4183   4187     1  0.0000000  0.6508444  3
   4180   4181   4201   4202     1  0.0000000  1.0460000  1
   4180   4181   4201   4202     1  0.0000000  0.6694400  3
   4180   4191   4196   4197     1  0.0000000  1.0460000  1
   4180   4191   4196   4197     1  0.0000000  0.6694400  3
   4180   4198   4185   4188     1  0.0000000  1.6038667  3
   4181   4180   4191   4194     1  0.0000000  0.6508444  3
   4181   4180   4191   4195     1  0.0000000  0.6508444  3
   4181   4183   4184   4186     1  0.0000000  0.6508444  3
   4181   4183   4190   4192     1  0.0000000  1.0460000  1
   4181   4183   4190   4192     1  0.0000000  0.6694400  3
   4182   4180   4181   4183     1  0.0000000  0.6508444  3
   4182   4180   4181   4201     1  0.0000000  1.0460000  1
   4182   4180   4181   4201     1  0.0000000  0.0000000  3
   4182   4180   4181   4200     1  0.0000000  0.6508444  3
   4182   4180   4191   4196     1  0.0000000  1.0460000  1
   4182   4180   4191   4196     1  0.0000000  0.0000000  3
   4182   4180   4191   4194     1  0.0000000  0.6508444  3
   4182   4180   4191   4195     1  0.0000000  0.6508444  3
   4182   4180   4198   4185     1  0.0000000  1.6038667  3
   4183   4181   4201   4202     1  0.0000000  1.0460000  1
   4183   4181   4201   4202     1  0.0000000  0.6694400  3
   4183   4184   4185   4188     1  0.0000000  0.6508444  3
   4183   4184   4203   4193     1  0.0000000  1.2552000  3
   4184   4183   4181   4200     1  0.0000000  0.6508444  3
   4184   4183   4190   4192     1  0.0000000  1.0460000  1
   4184   4183   4190   4192     1  0.0000000  0.6694400  3
   4184   4185   4189   4199     1  0.0000000  1.0460000  1
   4184   4185   4189   4199     1  0.0000000  0.6694400  3
   4185   4184   4183   4187     1  0.0000000  0.6508444  3
   4185   4184   4203   4193     1  0.0000000  1.2552000  3
   4186   4184   4183   4190     1  0.0000000  1.0460000  1
   4186   4184   4183   4190     1  0.0000000  0.0000000  3
   4186   4184   4183   4187     1  0.0000000  0.6508444  3
   4186   4184   4185   4189     1  0.0000000  1.0460000  1
   4186   4184   4185   4189     1  0.0000000  0.0000000  3
   4186   4184   4185   4198     1  0.0000000  1.0460000  1
   4186   4184   4185   4198     1  0.0000000  0.0000000  3
   4186   4184   4185   4188     1  0.0000000  0.6508444  3
   4186   4184   4203   4193     1  0.0000000  1.2552000  3
   4187   4183   4181   4201     1  0.0000000  1.0460000  1
   4187   4183   4181   4201     1  0.0000000  0.0000000  3
   4187   4183   4181   4200     1  0.0000000  0.6508444  3
   4187   4183   4184   4203     1  0.0000000  0.6508444  3
   4187   4183   4190   4192     1  0.0000000  0.6973333  3
   4188   4185   4184   4203     1  0.0000000  0.6508444  3
   4188   4185   4189   4199     1  0.0000000  0.6973333  3
   4190   4183   4181   4200     1  0.0000000  1.0460000  1
   4190   4183   4181   4200     1  0.0000000  0.0000000  3
   4191   4180   4181   4200     1  0.0000000  0.6508444  3
   4194   4191   4180   4198     1  0.0000000  1.0460000  1
   4194   4191   4180   4198     1  0.0000000  0.0000000  3
   4194   4191   4196   4197     1  0.0000000  0.6973333  3
   4195   4191   4180   4198     1  0.0000000  1.0460000  1
   4195   4191   4180   4198     1  0.0000000  0.0000000  3
   4195   4191   4196   4197     1  0.0000000  0.6973333  3
   4198   4180   4181   4200     1  0.0000000  1.0460000  1
   4198   4180   4181   4200     1  0.0000000  0.0000000  3
   4198   4185   4189   4199     1  0.0000000  0.6973333  3
   4200   4181   4201   4202     1  0.0000000  0.6973333  3
   4204   4205   4207   4211     1  0.0000000  0.6508444  3
   4204   4205   4225   4226     1  0.0000000  1.0460000  1
   4204   4205   4225   4226     1  0.0000000  0.6694400  3
   4204   4215   4220   4221     1  0.0000000  1.0460000  1
   4204   4215   4220   4221     1  0.0000000  0.6694400  3
   4204   4222   4209   4212     1  0.0000000  1.6038667  3
   4205   4204   4215   4218     1  0.0000000  0.6508444  3
   4205   4204   4215   4219     1  0.0000000  0.6508444  3
   4205   4207   4208   4210     1  0.0000000  0.6508444  3
   4205   4207   4214   4216     1  0.0000000  1.0460000  1
   4205   4207   4214   4216     1  0.0000000  0.6694400  3
   4206   4204   4205   4207     1  0.0000000  0.6508444  3
   4206   4204   4205   4225     1  0.0000000  1.0460000  1
   4206   4204   4205   4225     1  0.0000000  0.0000000  3
   4206   4204   4205   4224     1  0.0000000  0.6508444  3
   4206   4204   4215   4220     1  0.0000000  1.0460000  1
   4206   4204   4215   4220     1  0.0000000  0.0000000  3
   4206   4204   4215   4218     1  0.0000000  0.6508444  3
   4206   4204   4215   4219     1  0.0000000  0.6508444  3
   4206   4204   4222   4209     1  0.0000000  1.6038667  3
   4207   4205   4225   4226     1  0.0000000  1.0460000  1
   4207   4205   4225   4226     1  0.0000000  0.6694400  3
   4207   4208   4209   4212     1  0.0000000  0.6508444  3
   4207   4208   4227   4217     1  0.0000000  1.2552000  3
   4208   4207   4205   4224     1  0.0000000  0.6508444  3
   4208   4207   4214   4216     1  0.0000000  1.0460000  1
   4208   4207   4214   4216     1  0.0000000  0.6694400  3
   4208   4209   4213   4223     1  0.0000000  1.0460000  1
   4208   4209   4213   4223     1  0.0000000  0.6694400  3
   4209   4208   4207   4211     1  0.0000000  0.6508444  3
   4209   4208   4227   4217     1  0.0000000  1.2552000  3
   4210   4208   4207   4214     1  0.0000000  1.0460000  1
   4210   4208   4207   4214     1  0.0000000  0.0000000  3
   4210   4208   4207   4211     1  0.0000000  0.6508444  3
   4210   4208   4209   4213     1  0.0000000  1.0460000  1
   4210   4208   4209   4213     1  0.0000000  0.0000000  3
   4210   4208   4209   4222     1  0.0000000  1.0460000  1
   4210   4208   4209   4222     1  0.0000000  0.0000000  3
   4210   4208   4209   4212     1  0.0000000  0.6508444  3
   4210   4208   4227   4217     1  0.0000000  1.2552000  3
   4211   4207   4205   4225     1  0.0000000  1.0460000  1
   4211   4207   4205   4225     1  0.0000000  0.0000000  3
   4211   4207   4205   4224     1  0.0000000  0.6508444  3
   4211   4207   4208   4227     1  0.0000000  0.6508444  3
   4211   4207   4214   4216     1  0.0000000  0.6973333  3
   4212   4209   4208   4227     1  0.0000000  0.6508444  3
   4212   4209   4213   4223     1  0.0000000  0.6973333  3
   4214   4207   4205   4224     1  0.0000000  1.0460000  1
   4214   4207   4205   4224     1  0.0000000  0.0000000  3
   4215   4204   4205   4224     1  0.0000000  0.6508444  3
   4218   4215   4204   4222     1  0.0000000  1.0460000  1
   4218   4215   4204   4222     1  0.0000000  0.0000000  3
   4218   4215   4220   4221     1  0.0000000  0.6973333  3
   4219   4215   4204   4222     1  0.0000000  1.0460000  1
   4219   4215   4204   4222     1  0.0000000  0.0000000  3
   4219   4215   4220   4221     1  0.0000000  0.6973333  3
   4222   4204   4205   4224     1  0.0000000  1.0460000  1
   4222   4204   4205   4224     1  0.0000000  0.0000000  3
   4222   4209   4213   4223     1  0.0000000  0.6973333  3
   4224   4205   4225   4226     1  0.0000000  0.6973333  3
   4229   4231   4233   4235     1  0.0000000  0.6508444  3
   4229   4231   4233   4236     1  0.0000000  0.6508444  3
   4230   4229   4231   4233     1  0.0000000  0.0000000  2
   4230   4229   4231   4232     1  0.0000000  0.0000000  2
   4230   4229   4231   4234     1  0.0000000  0.0000000  2
   4231   4233   4237   4302     1  0.0000000  0.6508444  3
   4232   4231   4233   4237     1  0.0000000  0.6508444  3
   4232   4231   4233   4235     1  0.0000000  0.6508444  3
   4232   4231   4233   4236     1  0.0000000  0.6508444  3
   4233   4237   4238   4247     1  0.0000000  0.6508444  3
   4233   4237   4238   4248     1  0.0000000  0.6508444  3
   4233   4237   4239   4240     1  0.0000000  0.6508444  3
   4233   4237   4239   4242     1  0.0000000  0.6508444  3
   4234   4231   4233   4237     1  0.0000000  0.6508444  3
   4234   4231   4233   4235     1  0.0000000  0.6508444  3
   4234   4231   4233   4236     1  0.0000000  0.6508444  3
   4235   4233   4237   4238     1  0.0000000  0.6508444  3
   4235   4233   4237   4239     1  0.0000000  0.6508444  3
   4235   4233   4237   4302     1  0.0000000  0.6508444  3
   4236   4233   4237   4238     1  0.0000000  0.6508444  3
   4236   4233   4237   4239     1  0.0000000  0.6508444  3
   4236   4233   4237   4302     1  0.0000000  0.6508444  3
   4237   4238   4249   4250     1  0.0000000  0.6508444  3
   4237   4238   4249   4251     1  0.0000000  0.6508444  3
   4237   4239   4241   4243     1  0.0000000  0.6508444  3
   4237   4239   4241   4244     1  0.0000000  0.6508444  3
   4238   4237   4239   4240     1  0.0000000  0.6508444  3
   4238   4237   4239   4242     1  0.0000000  0.6508444  3
   4239   4237   4238   4247     1  0.0000000  0.6508444  3
   4239   4237   4238   4248     1  0.0000000  0.6508444  3
   4240   4239   4241   4245     1  0.0000000  0.6508444  3
   4240   4239   4241   4243     1  0.0000000  0.6508444  3
   4240   4239   4241   4244     1  0.0000000  0.6508444  3
   4240   4239   4237   4302     1  0.0000000  0.6508444  3
   4241   4245   4277   4267     1  180.0000771  6.0668000  2
   4241   4245   4277   4267     1  180.0000771  1.4644000  4
   4241   4239   4237   4302     1  0.0000000  0.6508444  3
   4242   4239   4241   4245     1  0.0000000  0.6508444  3
   4242   4239   4241   4243     1  0.0000000  0.6508444  3
   4242   4239   4241   4244     1  0.0000000  0.6508444  3
   4242   4239   4237   4302     1  0.0000000  0.6508444  3
   4243   4241   4245   4246     1  0.0000000  3.3472000  1
   4243   4241   4245   4246     1  0.0000000  0.0000000  2
   4243   4241   4245   4246     1  180.0000771  0.3347200  3
   4243   4241   4245   4277     1  180.0000771  0.0000000  2
   4244   4241   4245   4246     1  0.0000000  3.3472000  1
   4244   4241   4245   4246     1  0.0000000  0.0000000  2
   4244   4241   4245   4246     1  180.0000771  0.3347200  3
   4244   4241   4245   4277     1  180.0000771  0.0000000  2
   4245   4277   4258   4260     1  0.0000000  1.2552000  3
   4246   4245   4277   4267     1  180.0000771  6.0668000  2
   4246   4245   4277   4267     1  180.0000771  1.4644000  4
   4247   4238   4249   4252     1  0.0000000  0.6508444  3
   4247   4238   4249   4250     1  0.0000000  0.6508444  3
   4247   4238   4249   4251     1  0.0000000  0.6508444  3
   4247   4238   4237   4302     1  0.0000000  0.6508444  3
   4248   4238   4249   4252     1  0.0000000  0.6508444  3
   4248   4238   4249   4250     1  0.0000000  0.6508444  3
   4248   4238   4249   4251     1  0.0000000  0.6508444  3
   4248   4238   4237   4302     1  0.0000000  0.6508444  3
   4249   4252   4301   4291     1  180.0000771  6.0668000  2
   4249   4252   4301   4291     1  180.0000771  1.4644000  4
   4249   4238   4237   4302     1  0.0000000  0.6508444  3
   4250   4249   4252   4253     1  0.0000000  3.3472000  1
   4250   4249   4252   4253     1  0.0000000  0.0000000  2
   4250   4249   4252   4253     1  180.0000771  0.3347200  3
   4250   4249   4252   4301     1  180.0000771  0.0000000  2
   4251   4249   4252   4253     1  0.0000000  3.3472000  1
   4251   4249   4252   4253     1  0.0000000  0.0000000  2
   4251   4249   4252   4253     1  180.0000771  0.3347200  3
   4251   4249   4252   4301     1  180.0000771  0.0000000  2
   4252   4301   4282   4284     1  0.0000000  1.2552000  3
   4253   4252   4301   4291     1  180.0000771  6.0668000  2
   4253   4252   4301   4291     1  180.0000771  1.4644000  4
   4254   4255   4257   4261     1  0.0000000  0.6508444  3
   4254   4255   4275   4276     1  0.0000000  1.0460000  1
   4254   4255   4275   4276     1  0.0000000  0.6694400  3
   4254   4265   4270   4271     1  0.0000000  1.0460000  1
   4254   4265   4270   4271     1  0.0000000  0.6694400  3
   4254   4272   4259   4262     1  0.0000000  1.6038667  3
   4255   4257   4258   4260     1  0.0000000  0.6508444  3
   4255   4257   4264   4266     1  0.0000000  1.0460000  1
   4255   4257   4264   4266     1  0.0000000  0.6694400  3
   4255   4254   4265   4268     1  0.0000000  0.6508444  3
   4255   4254   4265   4269     1  0.0000000  0.6508444  3
   4256   4254   4255   4257     1  0.0000000  0.6508444  3
   4256   4254   4255   4275     1  0.0000000  1.0460000  1
   4256   4254   4255   4275     1  0.0000000  0.0000000  3
   4256   4254   4255   4274     1  0.0000000  0.6508444  3
   4256   4254   4265   4270     1  0.0000000  1.0460000  1
   4256   4254   4265   4270     1  0.0000000  0.0000000  3
   4256   4254   4265   4268     1  0.0000000  0.6508444  3
   4256   4254   4265   4269     1  0.0000000  0.6508444  3
   4256   4254   4272   4259     1  0.0000000  1.6038667  3
   4257   4258   4259   4262     1  0.0000000  0.6508444  3
   4257   4258   4277   4267     1  0.0000000  1.2552000  3
   4257   4255   4275   4276     1  0.0000000  1.0460000  1
   4257   4255   4275   4276     1  0.0000000  0.6694400  3
   4258   4259   4263   4273     1  0.0000000  1.0460000  1
   4258   4259   4263   4273     1  0.0000000  0.6694400  3
   4258   4257   4264   4266     1  0.0000000  1.0460000  1
   4258   4257   4264   4266     1  0.0000000  0.6694400  3
   4258   4257   4255   4274     1  0.0000000  0.6508444  3
   4259   4258   4277   4267     1  0.0000000  1.2552000  3
   4259   4258   4257   4261     1  0.0000000  0.6508444  3
   4260   4258   4259   4263     1  0.0000000  1.0460000  1
   4260   4258   4259   4263     1  0.0000000  0.0000000  3
   4260   4258   4259   4272     1  0.0000000  1.0460000  1
   4260   4258   4259   4272     1  0.0000000  0.0000000  3
   4260   4258   4259   4262     1  0.0000000  0.6508444  3
   4260   4258   4277   4267     1  0.0000000  1.2552000  3
   4260   4258   4257   4264     1  0.0000000  1.0460000  1
   4260   4258   4257   4264     1  0.0000000  0.0000000  3
   4260   4258   4257   4261     1  0.0000000  0.6508444  3
   4261   4257   4258   4277     1  0.0000000  0.6508444  3
   4261   4257   4264   4266     1  0.0000000  0.6973333  3
   4261   4257   4255   4275     1  0.0000000  1.0460000  1
   4261   4257   4255   4275     1  0.0000000  0.0000000  3
   4261   4257   4255   4274     1  0.0000000  0.6508444  3
   4262   4259   4263   4273     1  0.0000000  0.6973333  3
   4262   4259   4258   4277     1  0.0000000  0.6508444  3
   4264   4257   4255   4274     1  0.0000000  1.0460000  1
   4264   4257   4255   4274     1  0.0000000  0.0000000  3
   4265   4254   4255   4274     1  0.0000000  0.6508444  3
   4268   4265   4270   4271     1  0.0000000  0.6973333  3
   4268   4265   4254   4272     1  0.0000000  1.0460000  1
   4268   4265   4254   4272     1  0.0000000  0.0000000  3
   4269   4265   4270   4271     1  0.0000000  0.6973333  3
   4269   4265   4254   4272     1  0.0000000  1.0460000  1
   4269   4265   4254   4272     1  0.0000000  0.0000000  3
   4272   4259   4263   4273     1  0.0000000  0.6973333  3
   4272   4254   4255   4274     1  0.0000000  1.0460000  1
   4272   4254   4255   4274     1  0.0000000  0.0000000  3
   4274   4255   4275   4276     1  0.0000000  0.6973333  3
   4278   4279   4281   4285     1  0.0000000  0.6508444  3
   4278   4279   4299   4300     1  0.0000000  1.0460000  1
   4278   4279   4299   4300     1  0.0000000  0.6694400  3
   4278   4289   4294   4295     1  0.0000000  1.0460000  1
   4278   4289   4294   4295     1  0.0000000  0.6694400  3
   4278   4296   4283   4286     1  0.0000000  1.6038667  3
   4279   4281   4282   4284     1  0.0000000  0.6508444  3
   4279   4281   4288   4290     1  0.0000000  1.0460000  1
   4279   4281   4288   4290     1  0.0000000  0.6694400  3
   4279   4278   4289   4292     1  0.0000000  0.6508444  3
   4279   4278   4289   4293     1  0.0000000  0.6508444  3
   4280   4278   4279   4281     1  0.0000000  0.6508444  3
   4280   4278   4279   4299     1  0.0000000  1.0460000  1
   4280   4278   4279   4299     1  0.0000000  0.0000000  3
   4280   4278   4279   4298     1  0.0000000  0.6508444  3
   4280   4278   4289   4294     1  0.0000000  1.0460000  1
   4280   4278   4289   4294     1  0.0000000  0.0000000  3
   4280   4278   4289   4292     1  0.0000000  0.6508444  3
   4280   4278   4289   4293     1  0.0000000  0.6508444  3
   4280   4278   4296   4283     1  0.0000000  1.6038667  3
   4281   4282   4283   4286     1  0.0000000  0.6508444  3
   4281   4282   4301   4291     1  0.0000000  1.2552000  3
   4281   4279   4299   4300     1  0.0000000  1.0460000  1
   4281   4279   4299   4300     1  0.0000000  0.6694400  3
   4282   4283   4287   4297     1  0.0000000  1.0460000  1
   4282   4283   4287   4297     1  0.0000000  0.6694400  3
   4282   4281   4288   4290     1  0.0000000  1.0460000  1
   4282   4281   4288   4290     1  0.0000000  0.6694400  3
   4282   4281   4279   4298     1  0.0000000  0.6508444  3
   4283   4282   4301   4291     1  0.0000000  1.2552000  3
   4283   4282   4281   4285     1  0.0000000  0.6508444  3
   4284   4282   4283   4287     1  0.0000000  1.0460000  1
   4284   4282   4283   4287     1  0.0000000  0.0000000  3
   4284   4282   4283   4296     1  0.0000000  1.0460000  1
   4284   4282   4283   4296     1  0.0000000  0.0000000  3
   4284   4282   4283   4286     1  0.0000000  0.6508444  3
   4284   4282   4301   4291     1  0.0000000  1.2552000  3
   4284   4282   4281   4288     1  0.0000000  1.0460000  1
   4284   4282   4281   4288     1  0.0000000  0.0000000  3
   4284   4282   4281   4285     1  0.0000000  0.6508444  3
   4285   4281   4282   4301     1  0.0000000  0.6508444  3
   4285   4281   4288   4290     1  0.0000000  0.6973333  3
   4285   4281   4279   4299     1  0.0000000  1.0460000  1
   4285   4281   4279   4299     1  0.0000000  0.0000000  3
   4285   4281   4279   4298     1  0.0000000  0.6508444  3
   4286   4283   4287   4297     1  0.0000000  0.6973333  3
   4286   4283   4282   4301     1  0.0000000  0.6508444  3
   4288   4281   4279   4298     1  0.0000000  1.0460000  1
   4288   4281   4279   4298     1  0.0000000  0.0000000  3
   4289   4278   4279   4298     1  0.0000000  0.6508444  3
   4292   4289   4294   4295     1  0.0000000  0.6973333  3
   4292   4289   4278   4296     1  0.0000000  1.0460000  1
   4292   4289   4278   4296     1  0.0000000  0.0000000  3
   4293   4289   4294   4295     1  0.0000000  0.6973333  3
   4293   4289   4278   4296     1  0.0000000  1.0460000  1
   4293   4289   4278   4296     1  0.0000000  0.0000000  3
   4296   4283   4287   4297     1  0.0000000  0.6973333  3
   4296   4278   4279   4298     1  0.0000000  1.0460000  1
   4296   4278   4279   4298     1  0.0000000  0.0000000  3
   4298   4279   4299   4300     1  0.0000000  0.6973333  3
   4303   4305   4307   4309     1  0.0000000  0.6508444  3
   4303   4305   4307   4310     1  0.0000000  0.6508444  3
   4304   4303   4305   4307     1  0.0000000  0.0000000  2
   4304   4303   4305   4306     1  0.0000000  0.0000000  2
   4304   4303   4305   4308     1  0.0000000  0.0000000  2
   4305   4307   4311   4376     1  0.0000000  0.6508444  3
   4306   4305   4307   4311     1  0.0000000  0.6508444  3
   4306   4305   4307   4309     1  0.0000000  0.6508444  3
   4306   4305   4307   4310     1  0.0000000  0.6508444  3
   4307   4311   4312   4321     1  0.0000000  0.6508444  3
   4307   4311   4312   4322     1  0.0000000  0.6508444  3
   4307   4311   4313   4314     1  0.0000000  0.6508444  3
   4307   4311   4313   4316     1  0.0000000  0.6508444  3
   4308   4305   4307   4311     1  0.0000000  0.6508444  3
   4308   4305   4307   4309     1  0.0000000  0.6508444  3
   4308   4305   4307   4310     1  0.0000000  0.6508444  3
   4309   4307   4311   4312     1  0.0000000  0.6508444  3
   4309   4307   4311   4313     1  0.0000000  0.6508444  3
   4309   4307   4311   4376     1  0.0000000  0.6508444  3
   4310   4307   4311   4312     1  0.0000000  0.6508444  3
   4310   4307   4311   4313     1  0.0000000  0.6508444  3
   4310   4307   4311   4376     1  0.0000000  0.6508444  3
   4311   4312   4323   4324     1  0.0000000  0.6508444  3
   4311   4312   4323   4325     1  0.0000000  0.6508444  3
   4311   4313   4315   4317     1  0.0000000  0.6508444  3
   4311   4313   4315   4318     1  0.0000000  0.6508444  3
   4312   4311   4313   4314     1  0.0000000  0.6508444  3
   4312   4311   4313   4316     1  0.0000000  0.6508444  3
   4313   4311   4312   4321     1  0.0000000  0.6508444  3
   4313   4311   4312   4322     1  0.0000000  0.6508444  3
   4314   4313   4311   4376     1  0.0000000  0.6508444  3
   4314   4313   4315   4319     1  0.0000000  0.6508444  3
   4314   4313   4315   4317     1  0.0000000  0.6508444  3
   4314   4313   4315   4318     1  0.0000000  0.6508444  3
   4315   4313   4311   4376     1  0.0000000  0.6508444  3
   4315   4319   4351   4341     1  180.0000771  6.0668000  2
   4315   4319   4351   4341     1  180.0000771  1.4644000  4
   4316   4313   4311   4376     1  0.0000000  0.6508444  3
   4316   4313   4315   4319     1  0.0000000  0.6508444  3
   4316   4313   4315   4317     1  0.0000000  0.6508444  3
   4316   4313   4315   4318     1  0.0000000  0.6508444  3
   4317   4315   4319   4320     1  0.0000000  3.3472000  1
   4317   4315   4319   4320     1  0.0000000  0.0000000  2
   4317   4315   4319   4320     1  180.0000771  0.3347200  3
   4317   4315   4319   4351     1  180.0000771  0.0000000  2
   4318   4315   4319   4320     1  0.0000000  3.3472000  1
   4318   4315   4319   4320     1  0.0000000  0.0000000  2
   4318   4315   4319   4320     1  180.0000771  0.3347200  3
   4318   4315   4319   4351     1  180.0000771  0.0000000  2
   4319   4351   4332   4334     1  0.0000000  1.2552000  3
   4320   4319   4351   4341     1  180.0000771  6.0668000  2
   4320   4319   4351   4341     1  180.0000771  1.4644000  4
   4321   4312   4311   4376     1  0.0000000  0.6508444  3
   4321   4312   4323   4326     1  0.0000000  0.6508444  3
   4321   4312   4323   4324     1  0.0000000  0.6508444  3
   4321   4312   4323   4325     1  0.0000000  0.6508444  3
   4322   4312   4311   4376     1  0.0000000  0.6508444  3
   4322   4312   4323   4326     1  0.0000000  0.6508444  3
   4322   4312   4323   4324     1  0.0000000  0.6508444  3
   4322   4312   4323   4325     1  0.0000000  0.6508444  3
   4323   4312   4311   4376     1  0.0000000  0.6508444  3
   4323   4326   4375   4365     1  180.0000771  6.0668000  2
   4323   4326   4375   4365     1  180.0000771  1.4644000  4
   4324   4323   4326   4327     1  0.0000000  3.3472000  1
   4324   4323   4326   4327     1  0.0000000  0.0000000  2
   4324   4323   4326   4327     1  180.0000771  0.3347200  3
   4324   4323   4326   4375     1  180.0000771  0.0000000  2
   4325   4323   4326   4327     1  0.0000000  3.3472000  1
   4325   4323   4326   4327     1  0.0000000  0.0000000  2
   4325   4323   4326   4327     1  180.0000771  0.3347200  3
   4325   4323   4326   4375     1  180.0000771  0.0000000  2
   4326   4375   4356   4358     1  0.0000000  1.2552000  3
   4327   4326   4375   4365     1  180.0000771  6.0668000  2
   4327   4326   4375   4365     1  180.0000771  1.4644000  4
   4328   4329   4331   4335     1  0.0000000  0.6508444  3
   4328   4329   4349   4350     1  0.0000000  1.0460000  1
   4328   4329   4349   4350     1  0.0000000  0.6694400  3
   4328   4339   4344   4345     1  0.0000000  1.0460000  1
   4328   4339   4344   4345     1  0.0000000  0.6694400  3
   4328   4346   4333   4336     1  0.0000000  1.6038667  3
   4329   4328   4339   4342     1  0.0000000  0.6508444  3
   4329   4328   4339   4343     1  0.0000000  0.6508444  3
   4329   4331   4332   4334     1  0.0000000  0.6508444  3
   4329   4331   4338   4340     1  0.0000000  1.0460000  1
   4329   4331   4338   4340     1  0.0000000  0.6694400  3
   4330   4328   4329   4331     1  0.0000000  0.6508444  3
   4330   4328   4329   4349     1  0.0000000  1.0460000  1
   4330   4328   4329   4349     1  0.0000000  0.0000000  3
   4330   4328   4329   4348     1  0.0000000  0.6508444  3
   4330   4328   4339   4344     1  0.0000000  1.0460000  1
   4330   4328   4339   4344     1  0.0000000  0.0000000  3
   4330   4328   4339   4342     1  0.0000000  0.6508444  3
   4330   4328   4339   4343     1  0.0000000  0.6508444  3
   4330   4328   4346   4333     1  0.0000000  1.6038667  3
   4331   4329   4349   4350     1  0.0000000  1.0460000  1
   4331   4329   4349   4350     1  0.0000000  0.6694400  3
   4331   4332   4333   4336     1  0.0000000  0.6508444  3
   4331   4332   4351   4341     1  0.0000000  1.2552000  3
   4332   4331   4329   4348     1  0.0000000  0.6508444  3
   4332   4331   4338   4340     1  0.0000000  1.0460000  1
   4332   4331   4338   4340     1  0.0000000  0.6694400  3
   4332   4333   4337   4347     1  0.0000000  1.0460000  1
   4332   4333   4337   4347     1  0.0000000  0.6694400  3
   4333   4332   4331   4335     1  0.0000000  0.6508444  3
   4333   4332   4351   4341     1  0.0000000  1.2552000  3
   4334   4332   4331   4338     1  0.0000000  1.0460000  1
   4334   4332   4331   4338     1  0.0000000  0.0000000  3
   4334   4332   4331   4335     1  0.0000000  0.6508444  3
   4334   4332   4333   4337     1  0.0000000  1.0460000  1
   4334   4332   4333   4337     1  0.0000000  0.0000000  3
   4334   4332   4333   4346     1  0.0000000  1.0460000  1
   4334   4332   4333   4346     1  0.0000000  0.0000000  3
   4334   4332   4333   4336     1  0.0000000  0.6508444  3
   4334   4332   4351   4341     1  0.0000000  1.2552000  3
   4335   4331   4329   4349     1  0.0000000  1.0460000  1
   4335   4331   4329   4349     1  0.0000000  0.0000000  3
   4335   4331   4329   4348     1  0.0000000  0.6508444  3
   4335   4331   4332   4351     1  0.0000000  0.6508444  3
   4335   4331   4338   4340     1  0.0000000  0.6973333  3
   4336   4333   4332   4351     1  0.0000000  0.6508444  3
   4336   4333   4337   4347     1  0.0000000  0.6973333  3
   4338   4331   4329   4348     1  0.0000000  1.0460000  1
   4338   4331   4329   4348     1  0.0000000  0.0000000  3
   4339   4328   4329   4348     1  0.0000000  0.6508444  3
   4342   4339   4328   4346     1  0.0000000  1.0460000  1
   4342   4339   4328   4346     1  0.0000000  0.0000000  3
   4342   4339   4344   4345     1  0.0000000  0.6973333  3
   4343   4339   4328   4346     1  0.0000000  1.0460000  1
   4343   4339   4328   4346     1  0.0000000  0.0000000  3
   4343   4339   4344   4345     1  0.0000000  0.6973333  3
   4346   4328   4329   4348     1  0.0000000  1.0460000  1
   4346   4328   4329   4348     1  0.0000000  0.0000000  3
   4346   4333   4337   4347     1  0.0000000  0.6973333  3
   4348   4329   4349   4350     1  0.0000000  0.6973333  3
   4352   4353   4355   4359     1  0.0000000  0.6508444  3
   4352   4353   4373   4374     1  0.0000000  1.0460000  1
   4352   4353   4373   4374     1  0.0000000  0.6694400  3
   4352   4363   4368   4369     1  0.0000000  1.0460000  1
   4352   4363   4368   4369     1  0.0000000  0.6694400  3
   4352   4370   4357   4360     1  0.0000000  1.6038667  3
   4353   4352   4363   4366     1  0.0000000  0.6508444  3
   4353   4352   4363   4367     1  0.0000000  0.6508444  3
   4353   4355   4356   4358     1  0.0000000  0.6508444  3
   4353   4355   4362   4364     1  0.0000000  1.0460000  1
   4353   4355   4362   4364     1  0.0000000  0.6694400  3
   4354   4352   4353   4355     1  0.0000000  0.6508444  3
   4354   4352   4353   4373     1  0.0000000  1.0460000  1
   4354   4352   4353   4373     1  0.0000000  0.0000000  3
   4354   4352   4353   4372     1  0.0000000  0.6508444  3
   4354   4352   4363   4368     1  0.0000000  1.0460000  1
   4354   4352   4363   4368     1  0.0000000  0.0000000  3
   4354   4352   4363   4366     1  0.0000000  0.6508444  3
   4354   4352   4363   4367     1  0.0000000  0.6508444  3
   4354   4352   4370   4357     1  0.0000000  1.6038667  3
   4355   4353   4373   4374     1  0.0000000  1.0460000  1
   4355   4353   4373   4374     1  0.0000000  0.6694400  3
   4355   4356   4357   4360     1  0.0000000  0.6508444  3
   4355   4356   4375   4365     1  0.0000000  1.2552000  3
   4356   4355   4353   4372     1  0.0000000  0.6508444  3
   4356   4355   4362   4364     1  0.0000000  1.0460000  1
   4356   4355   4362   4364     1  0.0000000  0.6694400  3
   4356   4357   4361   4371     1  0.0000000  1.0460000  1
   4356   4357   4361   4371     1  0.0000000  0.6694400  3
   4357   4356   4355   4359     1  0.0000000  0.6508444  3
   4357   4356   4375   4365     1  0.0000000  1.2552000  3
   4358   4356   4355   4362     1  0.0000000  1.0460000  1
   4358   4356   4355   4362     1  0.0000000  0.0000000  3
   4358   4356   4355   4359     1  0.0000000  0.6508444  3
   4358   4356   4357   4361     1  0.0000000  1.0460000  1
   4358   4356   4357   4361     1  0.0000000  0.0000000  3
   4358   4356   4357   4370     1  0.0000000  1.0460000  1
   4358   4356   4357   4370     1  0.0000000  0.0000000  3
   4358   4356   4357   4360     1  0.0000000  0.6508444  3
   4358   4356   4375   4365     1  0.0000000  1.2552000  3
   4359   4355   4353   4373     1  0.0000000  1.0460000  1
   4359   4355   4353   4373     1  0.0000000  0.0000000  3
   4359   4355   4353   4372     1  0.0000000  0.6508444  3
   4359   4355   4356   4375     1  0.0000000  0.6508444  3
   4359   4355   4362   4364     1  0.0000000  0.6973333  3
   4360   4357   4356   4375     1  0.0000000  0.6508444  3
   4360   4357   4361   4371     1  0.0000000  0.6973333  3
   4362   4355   4353   4372     1  0.0000000  1.0460000  1
   4362   4355   4353   4372     1  0.0000000  0.0000000  3
   4363   4352   4353   4372     1  0.0000000  0.6508444  3
   4366   4363   4352   4370     1  0.0000000  1.0460000  1
   4366   4363   4352   4370     1  0.0000000  0.0000000  3
   4366   4363   4368   4369     1  0.0000000  0.6973333  3
   4367   4363   4352   4370     1  0.0000000  1.0460000  1
   4367   4363   4352   4370     1  0.0000000  0.0000000  3
   4367   4363   4368   4369     1  0.0000000  0.6973333  3
   4370   4352   4353   4372     1  0.0000000  1.0460000  1
   4370   4352   4353   4372     1  0.0000000  0.0000000  3
   4370   4357   4361   4371     1  0.0000000  0.6973333  3
   4372   4353   4373   4374     1  0.0000000  0.6973333  3
   4377   4379   4381   4383     1  0.0000000  0.6508444  3
   4377   4379   4381   4384     1  0.0000000  0.6508444  3
   4378   4377   4379   4381     1  0.0000000  0.0000000  2
   4378   4377   4379   4380     1  0.0000000  0.0000000  2
   4378   4377   4379   4382     1  0.0000000  0.0000000  2
   4379   4381   4385   4450     1  0.0000000  0.6508444  3
   4380   4379   4381   4385     1  0.0000000  0.6508444  3
   4380   4379   4381   4383     1  0.0000000  0.6508444  3
   4380   4379   4381   4384     1  0.0000000  0.6508444  3
   4381   4385   4386   4395     1  0.0000000  0.6508444  3
   4381   4385   4386   4396     1  0.0000000  0.6508444  3
   4381   4385   4387   4388     1  0.0000000  0.6508444  3
   4381   4385   4387   4390     1  0.0000000  0.6508444  3
   4382   4379   4381   4385     1  0.0000000  0.6508444  3
   4382   4379   4381   4383     1  0.0000000  0.6508444  3
   4382   4379   4381   4384     1  0.0000000  0.6508444  3
   4383   4381   4385   4386     1  0.0000000  0.6508444  3
   4383   4381   4385   4387     1  0.0000000  0.6508444  3
   4383   4381   4385   4450     1  0.0000000  0.6508444  3
   4384   4381   4385   4386     1  0.0000000  0.6508444  3
   4384   4381   4385   4387     1  0.0000000  0.6508444  3
   4384   4381   4385   4450     1  0.0000000  0.6508444  3
   4385   4386   4397   4398     1  0.0000000  0.6508444  3
   4385   4386   4397   4399     1  0.0000000  0.6508444  3
   4385   4387   4389   4391     1  0.0000000  0.6508444  3
   4385   4387   4389   4392     1  0.0000000  0.6508444  3
   4386   4385   4387   4388     1  0.0000000  0.6508444  3
   4386   4385   4387   4390     1  0.0000000  0.6508444  3
   4387   4385   4386   4395     1  0.0000000  0.6508444  3
   4387   4385   4386   4396     1  0.0000000  0.6508444  3
   4388   4387   4389   4393     1  0.0000000  0.6508444  3
   4388   4387   4389   4391     1  0.0000000  0.6508444  3
   4388   4387   4389   4392     1  0.0000000  0.6508444  3
   4388   4387   4385   4450     1  0.0000000  0.6508444  3
   4389   4393   4425   4415     1  180.0000771  6.0668000  2
   4389   4393   4425   4415     1  180.0000771  1.4644000  4
   4389   4387   4385   4450     1  0.0000000  0.6508444  3
   4390   4387   4389   4393     1  0.0000000  0.6508444  3
   4390   4387   4389   4391     1  0.0000000  0.6508444  3
   4390   4387   4389   4392     1  0.0000000  0.6508444  3
   4390   4387   4385   4450     1  0.0000000  0.6508444  3
   4391   4389   4393   4394     1  0.0000000  3.3472000  1
   4391   4389   4393   4394     1  0.0000000  0.0000000  2
   4391   4389   4393   4394     1  180.0000771  0.3347200  3
   4391   4389   4393   4425     1  180.0000771  0.0000000  2
   4392   4389   4393   4394     1  0.0000000  3.3472000  1
   4392   4389   4393   4394     1  0.0000000  0.0000000  2
   4392   4389   4393   4394     1  180.0000771  0.3347200  3
   4392   4389   4393   4425     1  180.0000771  0.0000000  2
   4393   4425   4406   4408     1  0.0000000  1.2552000  3
   4394   4393   4425   4415     1  180.0000771  6.0668000  2
   4394   4393   4425   4415     1  180.0000771  1.4644000  4
   4395   4386   4397   4400     1  0.0000000  0.6508444  3
   4395   4386   4397   4398     1  0.0000000  0.6508444  3
   4395   4386   4397   4399     1  0.0000000  0.6508444  3
   4395   4386   4385   4450     1  0.0000000  0.6508444  3
   4396   4386   4397   4400     1  0.0000000  0.6508444  3
   4396   4386   4397   4398     1  0.0000000  0.6508444  3
   4396   4386   4397   4399     1  0.0000000  0.6508444  3
   4396   4386   4385   4450     1  0.0000000  0.6508444  3
   4397   4400   4449   4439     1  180.0000771  6.0668000  2
   4397   4400   4449   4439     1  180.0000771  1.4644000  4
   4397   4386   4385   4450     1  0.0000000  0.6508444  3
   4398   4397   4400   4401     1  0.0000000  3.3472000  1
   4398   4397   4400   4401     1  0.0000000  0.0000000  2
   4398   4397   4400   4401     1  180.0000771  0.3347200  3
   4398   4397   4400   4449     1  180.0000771  0.0000000  2
   4399   4397   4400   4401     1  0.0000000  3.3472000  1
   4399   4397   4400   4401     1  0.0000000  0.0000000  2
   4399   4397   4400   4401     1  180.0000771  0.3347200  3
   4399   4397   4400   4449     1  180.0000771  0.0000000  2
   4400   4449   4430   4432     1  0.0000000  1.2552000  3
   4401   4400   4449   4439     1  180.0000771  6.0668000  2
   4401   4400   4449   4439     1  180.0000771  1.4644000  4
   4402   4403   4405   4409     1  0.0000000  0.6508444  3
   4402   4403   4423   4424     1  0.0000000  1.0460000  1
   4402   4403   4423   4424     1  0.0000000  0.6694400  3
   4402   4413   4418   4419     1  0.0000000  1.0460000  1
   4402   4413   4418   4419     1  0.0000000  0.6694400  3
   4402   4420   4407   4410     1  0.0000000  1.6038667  3
   4403   4405   4406   4408     1  0.0000000  0.6508444  3
   4403   4405   4412   4414     1  0.0000000  1.0460000  1
   4403   4405   4412   4414     1  0.0000000  0.6694400  3
   4403   4402   4413   4416     1  0.0000000  0.6508444  3
   4403   4402   4413   4417     1  0.0000000  0.6508444  3
   4404   4402   4403   4405     1  0.0000000  0.6508444  3
   4404   4402   4403   4423     1  0.0000000  1.0460000  1
   4404   4402   4403   4423     1  0.0000000  0.0000000  3
   4404   4402   4403   4422     1  0.0000000  0.6508444  3
   4404   4402   4413   4418     1  0.0000000  1.0460000  1
   4404   4402   4413   4418     1  0.0000000  0.0000000  3
   4404   4402   4413   4416     1  0.0000000  0.6508444  3
   4404   4402   4413   4417     1  0.0000000  0.6508444  3
   4404   4402   4420   4407     1  0.0000000  1.6038667  3
   4405   4406   4407   4410     1  0.0000000  0.6508444  3
   4405   4406   4425   4415     1  0.0000000  1.2552000  3
   4405   4403   4423   4424     1  0.0000000  1.0460000  1
   4405   4403   4423   4424     1  0.0000000  0.6694400  3
   4406   4407   4411   4421     1  0.0000000  1.0460000  1
   4406   4407   4411   4421     1  0.0000000  0.6694400  3
   4406   4405   4412   4414     1  0.0000000  1.0460000  1
   4406   4405   4412   4414     1  0.0000000  0.6694400  3
   4406   4405   4403   4422     1  0.0000000  0.6508444  3
   4407   4406   4425   4415     1  0.0000000  1.2552000  3
   4407   4406   4405   4409     1  0.0000000  0.6508444  3
   4408   4406   4407   4411     1  0.0000000  1.0460000  1
   4408   4406   4407   4411     1  0.0000000  0.0000000  3
   4408   4406   4407   4420     1  0.0000000  1.0460000  1
   4408   4406   4407   4420     1  0.0000000  0.0000000  3
   4408   4406   4407   4410     1  0.0000000  0.6508444  3
   4408   4406   4425   4415     1  0.0000000  1.2552000  3
   4408   4406   4405   4412     1  0.0000000  1.0460000  1
   4408   4406   4405   4412     1  0.0000000  0.0000000  3
   4408   4406   4405   4409     1  0.0000000  0.6508444  3
   4409   4405   4406   4425     1  0.0000000  0.6508444  3
   4409   4405   4412   4414     1  0.0000000  0.6973333  3
   4409   4405   4403   4423     1  0.0000000  1.0460000  1
   4409   4405   4403   4423     1  0.0000000  0.0000000  3
   4409   4405   4403   4422     1  0.0000000  0.6508444  3
   4410   4407   4411   4421     1  0.0000000  0.6973333  3
   4410   4407   4406   4425     1  0.0000000  0.6508444  3
   4412   4405   4403   4422     1  0.0000000  1.0460000  1
   4412   4405   4403   4422     1  0.0000000  0.0000000  3
   4413   4402   4403   4422     1  0.0000000  0.6508444  3
   4416   4413   4418   4419     1  0.0000000  0.6973333  3
   4416   4413   4402   4420     1  0.0000000  1.0460000  1
   4416   4413   4402   4420     1  0.0000000  0.0000000  3
   4417   4413   4418   4419     1  0.0000000  0.6973333  3
   4417   4413   4402   4420     1  0.0000000  1.0460000  1
   4417   4413   4402   4420     1  0.0000000  0.0000000  3
   4420   4407   4411   4421     1  0.0000000  0.6973333  3
   4420   4402   4403   4422     1  0.0000000  1.0460000  1
   4420   4402   4403   4422     1  0.0000000  0.0000000  3
   4422   4403   4423   4424     1  0.0000000  0.6973333  3
   4426   4427   4429   4433     1  0.0000000  0.6508444  3
   4426   4427   4447   4448     1  0.0000000  1.0460000  1
   4426   4427   4447   4448     1  0.0000000  0.6694400  3
   4426   4437   4442   4443     1  0.0000000  1.0460000  1
   4426   4437   4442   4443     1  0.0000000  0.6694400  3
   4426   4444   4431   4434     1  0.0000000  1.6038667  3
   4427   4429   4430   4432     1  0.0000000  0.6508444  3
   4427   4429   4436   4438     1  0.0000000  1.0460000  1
   4427   4429   4436   4438     1  0.0000000  0.6694400  3
   4427   4426   4437   4440     1  0.0000000  0.6508444  3
   4427   4426   4437   4441     1  0.0000000  0.6508444  3
   4428   4426   4427   4429     1  0.0000000  0.6508444  3
   4428   4426   4427   4447     1  0.0000000  1.0460000  1
   4428   4426   4427   4447     1  0.0000000  0.0000000  3
   4428   4426   4427   4446     1  0.0000000  0.6508444  3
   4428   4426   4437   4442     1  0.0000000  1.0460000  1
   4428   4426   4437   4442     1  0.0000000  0.0000000  3
   4428   4426   4437   4440     1  0.0000000  0.6508444  3
   4428   4426   4437   4441     1  0.0000000  0.6508444  3
   4428   4426   4444   4431     1  0.0000000  1.6038667  3
   4429   4430   4431   4434     1  0.0000000  0.6508444  3
   4429   4430   4449   4439     1  0.0000000  1.2552000  3
   4429   4427   4447   4448     1  0.0000000  1.0460000  1
   4429   4427   4447   4448     1  0.0000000  0.6694400  3
   4430   4431   4435   4445     1  0.0000000  1.0460000  1
   4430   4431   4435   4445     1  0.0000000  0.6694400  3
   4430   4429   4436   4438     1  0.0000000  1.0460000  1
   4430   4429   4436   4438     1  0.0000000  0.6694400  3
   4430   4429   4427   4446     1  0.0000000  0.6508444  3
   4431   4430   4449   4439     1  0.0000000  1.2552000  3
   4431   4430   4429   4433     1  0.0000000  0.6508444  3
   4432   4430   4431   4435     1  0.0000000  1.0460000  1
   4432   4430   4431   4435     1  0.0000000  0.0000000  3
   4432   4430   4431   4444     1  0.0000000  1.0460000  1
   4432   4430   4431   4444     1  0.0000000  0.0000000  3
   4432   4430   4431   4434     1  0.0000000  0.6508444  3
   4432   4430   4449   4439     1  0.0000000  1.2552000  3
   4432   4430   4429   4436     1  0.0000000  1.0460000  1
   4432   4430   4429   4436     1  0.0000000  0.0000000  3
   4432   4430   4429   4433     1  0.0000000  0.6508444  3
   4433   4429   4430   4449     1  0.0000000  0.6508444  3
   4433   4429   4436   4438     1  0.0000000  0.6973333  3
   4433   4429   4427   4447     1  0.0000000  1.0460000  1
   4433   4429   4427   4447     1  0.0000000  0.0000000  3
   4433   4429   4427   4446     1  0.0000000  0.6508444  3
   4434   4431   4435   4445     1  0.0000000  0.6973333  3
   4434   4431   4430   4449     1  0.0000000  0.6508444  3
   4436   4429   4427   4446     1  0.0000000  1.0460000  1
   4436   4429   4427   4446     1  0.0000000  0.0000000  3
   4437   4426   4427   4446     1  0.0000000  0.6508444  3
   4440   4437   4442   4443     1  0.0000000  0.6973333  3
   4440   4437   4426   4444     1  0.0000000  1.0460000  1
   4440   4437   4426   4444     1  0.0000000  0.0000000  3
   4441   4437   4442   4443     1  0.0000000  0.6973333  3
   4441   4437   4426   4444     1  0.0000000  1.0460000  1
   4441   4437   4426   4444     1  0.0000000  0.0000000  3
   4444   4431   4435   4445     1  0.0000000  0.6973333  3
   4444   4426   4427   4446     1  0.0000000  1.0460000  1
   4444   4426   4427   4446     1  0.0000000  0.0000000  3
   4446   4427   4447   4448     1  0.0000000  0.6973333  3
   4451   4453   4455   4457     1  0.0000000  0.6508444  3
   4451   4453   4455   4458     1  0.0000000  0.6508444  3
   4452   4451   4453   4455     1  0.0000000  0.0000000  2
   4452   4451   4453   4454     1  0.0000000  0.0000000  2
   4452   4451   4453   4456     1  0.0000000  0.0000000  2
   4453   4455   4459   4524     1  0.0000000  0.6508444  3
   4454   4453   4455   4459     1  0.0000000  0.6508444  3
   4454   4453   4455   4457     1  0.0000000  0.6508444  3
   4454   4453   4455   4458     1  0.0000000  0.6508444  3
   4455   4459   4460   4469     1  0.0000000  0.6508444  3
   4455   4459   4460   4470     1  0.0000000  0.6508444  3
   4455   4459   4461   4462     1  0.0000000  0.6508444  3
   4455   4459   4461   4464     1  0.0000000  0.6508444  3
   4456   4453   4455   4459     1  0.0000000  0.6508444  3
   4456   4453   4455   4457     1  0.0000000  0.6508444  3
   4456   4453   4455   4458     1  0.0000000  0.6508444  3
   4457   4455   4459   4460     1  0.0000000  0.6508444  3
   4457   4455   4459   4461     1  0.0000000  0.6508444  3
   4457   4455   4459   4524     1  0.0000000  0.6508444  3
   4458   4455   4459   4460     1  0.0000000  0.6508444  3
   4458   4455   4459   4461     1  0.0000000  0.6508444  3
   4458   4455   4459   4524     1  0.0000000  0.6508444  3
   4459   4460   4471   4472     1  0.0000000  0.6508444  3
   4459   4460   4471   4473     1  0.0000000  0.6508444  3
   4459   4461   4463   4465     1  0.0000000  0.6508444  3
   4459   4461   4463   4466     1  0.0000000  0.6508444  3
   4460   4459   4461   4462     1  0.0000000  0.6508444  3
   4460   4459   4461   4464     1  0.0000000  0.6508444  3
   4461   4459   4460   4469     1  0.0000000  0.6508444  3
   4461   4459   4460   4470     1  0.0000000  0.6508444  3
   4462   4461   4459   4524     1  0.0000000  0.6508444  3
   4462   4461   4463   4467     1  0.0000000  0.6508444  3
   4462   4461   4463   4465     1  0.0000000  0.6508444  3
   4462   4461   4463   4466     1  0.0000000  0.6508444  3
   4463   4461   4459   4524     1  0.0000000  0.6508444  3
   4463   4467   4499   4489     1  180.0000771  6.0668000  2
   4463   4467   4499   4489     1  180.0000771  1.4644000  4
   4464   4461   4459   4524     1  0.0000000  0.6508444  3
   4464   4461   4463   4467     1  0.0000000  0.6508444  3
   4464   4461   4463   4465     1  0.0000000  0.6508444  3
   4464   4461   4463   4466     1  0.0000000  0.6508444  3
   4465   4463   4467   4468     1  0.0000000  3.3472000  1
   4465   4463   4467   4468     1  0.0000000  0.0000000  2
   4465   4463   4467   4468     1  180.0000771  0.3347200  3
   4465   4463   4467   4499     1  180.0000771  0.0000000  2
   4466   4463   4467   4468     1  0.0000000  3.3472000  1
   4466   4463   4467   4468     1  0.0000000  0.0000000  2
   4466   4463   4467   4468     1  180.0000771  0.3347200  3
   4466   4463   4467   4499     1  180.0000771  0.0000000  2
   4467   4499   4480   4482     1  0.0000000  1.2552000  3
   4468   4467   4499   4489     1  180.0000771  6.0668000  2
   4468   4467   4499   4489     1  180.0000771  1.4644000  4
   4469   4460   4459   4524     1  0.0000000  0.6508444  3
   4469   4460   4471   4474     1  0.0000000  0.6508444  3
   4469   4460   4471   4472     1  0.0000000  0.6508444  3
   4469   4460   4471   4473     1  0.0000000  0.6508444  3
   4470   4460   4459   4524     1  0.0000000  0.6508444  3
   4470   4460   4471   4474     1  0.0000000  0.6508444  3
   4470   4460   4471   4472     1  0.0000000  0.6508444  3
   4470   4460   4471   4473     1  0.0000000  0.6508444  3
   4471   4460   4459   4524     1  0.0000000  0.6508444  3
   4471   4474   4523   4513     1  180.0000771  6.0668000  2
   4471   4474   4523   4513     1  180.0000771  1.4644000  4
   4472   4471   4474   4475     1  0.0000000  3.3472000  1
   4472   4471   4474   4475     1  0.0000000  0.0000000  2
   4472   4471   4474   4475     1  180.0000771  0.3347200  3
   4472   4471   4474   4523     1  180.0000771  0.0000000  2
   4473   4471   4474   4475     1  0.0000000  3.3472000  1
   4473   4471   4474   4475     1  0.0000000  0.0000000  2
   4473   4471   4474   4475     1  180.0000771  0.3347200  3
   4473   4471   4474   4523     1  180.0000771  0.0000000  2
   4474   4523   4504   4506     1  0.0000000  1.2552000  3
   4475   4474   4523   4513     1  180.0000771  6.0668000  2
   4475   4474   4523   4513     1  180.0000771  1.4644000  4
   4476   4477   4479   4483     1  0.0000000  0.6508444  3
   4476   4477   4497   4498     1  0.0000000  1.0460000  1
   4476   4477   4497   4498     1  0.0000000  0.6694400  3
   4476   4487   4492   4493     1  0.0000000  1.0460000  1
   4476   4487   4492   4493     1  0.0000000  0.6694400  3
   4476   4494   4481   4484     1  0.0000000  1.6038667  3
   4477   4476   4487   4490     1  0.0000000  0.6508444  3
   4477   4476   4487   4491     1  0.0000000  0.6508444  3
   4477   4479   4480   4482     1  0.0000000  0.6508444  3
   4477   4479   4486   4488     1  0.0000000  1.0460000  1
   4477   4479   4486   4488     1  0.0000000  0.6694400  3
   4478   4476   4477   4479     1  0.0000000  0.6508444  3
   4478   4476   4477   4497     1  0.0000000  1.0460000  1
   4478   4476   4477   4497     1  0.0000000  0.0000000  3
   4478   4476   4477   4496     1  0.0000000  0.6508444  3
   4478   4476   4487   4492     1  0.0000000  1.0460000  1
   4478   4476   4487   4492     1  0.0000000  0.0000000  3
   4478   4476   4487   4490     1  0.0000000  0.6508444  3
   4478   4476   4487   4491     1  0.0000000  0.6508444  3
   4478   4476   4494   4481     1  0.0000000  1.6038667  3
   4479   4477   4497   4498     1  0.0000000  1.0460000  1
   4479   4477   4497   4498     1  0.0000000  0.6694400  3
   4479   4480   4481   4484     1  0.0000000  0.6508444  3
   4479   4480   4499   4489     1  0.0000000  1.2552000  3
   4480   4479   4477   4496     1  0.0000000  0.6508444  3
   4480   4479   4486   4488     1  0.0000000  1.0460000  1
   4480   4479   4486   4488     1  0.0000000  0.6694400  3
   4480   4481   4485   4495     1  0.0000000  1.0460000  1
   4480   4481   4485   4495     1  0.0000000  0.6694400  3
   4481   4480   4479   4483     1  0.0000000  0.6508444  3
   4481   4480   4499   4489     1  0.0000000  1.2552000  3
   4482   4480   4479   4486     1  0.0000000  1.0460000  1
   4482   4480   4479   4486     1  0.0000000  0.0000000  3
   4482   4480   4479   4483     1  0.0000000  0.6508444  3
   4482   4480   4481   4485     1  0.0000000  1.0460000  1
   4482   4480   4481   4485     1  0.0000000  0.0000000  3
   4482   4480   4481   4494     1  0.0000000  1.0460000  1
   4482   4480   4481   4494     1  0.0000000  0.0000000  3
   4482   4480   4481   4484     1  0.0000000  0.6508444  3
   4482   4480   4499   4489     1  0.0000000  1.2552000  3
   4483   4479   4477   4497     1  0.0000000  1.0460000  1
   4483   4479   4477   4497     1  0.0000000  0.0000000  3
   4483   4479   4477   4496     1  0.0000000  0.6508444  3
   4483   4479   4480   4499     1  0.0000000  0.6508444  3
   4483   4479   4486   4488     1  0.0000000  0.6973333  3
   4484   4481   4480   4499     1  0.0000000  0.6508444  3
   4484   4481   4485   4495     1  0.0000000  0.6973333  3
   4486   4479   4477   4496     1  0.0000000  1.0460000  1
   4486   4479   4477   4496     1  0.0000000  0.0000000  3
   4487   4476   4477   4496     1  0.0000000  0.6508444  3
   4490   4487   4476   4494     1  0.0000000  1.0460000  1
   4490   4487   4476   4494     1  0.0000000  0.0000000  3
   4490   4487   4492   4493     1  0.0000000  0.6973333  3
   4491   4487   4476   4494     1  0.0000000  1.0460000  1
   4491   4487   4476   4494     1  0.0000000  0.0000000  3
   4491   4487   4492   4493     1  0.0000000  0.6973333  3
   4494   4476   4477   4496     1  0.0000000  1.0460000  1
   4494   4476   4477   4496     1  0.0000000  0.0000000  3
   4494   4481   4485   4495     1  0.0000000  0.6973333  3
   4496   4477   4497   4498     1  0.0000000  0.6973333  3
   4500   4501   4503   4507     1  0.0000000  0.6508444  3
   4500   4501   4521   4522     1  0.0000000  1.0460000  1
   4500   4501   4521   4522     1  0.0000000  0.6694400  3
   4500   4511   4516   4517     1  0.0000000  1.0460000  1
   4500   4511   4516   4517     1  0.0000000  0.6694400  3
   4500   4518   4505   4508     1  0.0000000  1.6038667  3
   4501   4500   4511   4514     1  0.0000000  0.6508444  3
   4501   4500   4511   4515     1  0.0000000  0.6508444  3
   4501   4503   4504   4506     1  0.0000000  0.6508444  3
   4501   4503   4510   4512     1  0.0000000  1.0460000  1
   4501   4503   4510   4512     1  0.0000000  0.6694400  3
   4502   4500   4501   4503     1  0.0000000  0.6508444  3
   4502   4500   4501   4521     1  0.0000000  1.0460000  1
   4502   4500   4501   4521     1  0.0000000  0.0000000  3
   4502   4500   4501   4520     1  0.0000000  0.6508444  3
   4502   4500   4511   4516     1  0.0000000  1.0460000  1
   4502   4500   4511   4516     1  0.0000000  0.0000000  3
   4502   4500   4511   4514     1  0.0000000  0.6508444  3
   4502   4500   4511   4515     1  0.0000000  0.6508444  3
   4502   4500   4518   4505     1  0.0000000  1.6038667  3
   4503   4501   4521   4522     1  0.0000000  1.0460000  1
   4503   4501   4521   4522     1  0.0000000  0.6694400  3
   4503   4504   4505   4508     1  0.0000000  0.6508444  3
   4503   4504   4523   4513     1  0.0000000  1.2552000  3
   4504   4503   4501   4520     1  0.0000000  0.6508444  3
   4504   4503   4510   4512     1  0.0000000  1.0460000  1
   4504   4503   4510   4512     1  0.0000000  0.6694400  3
   4504   4505   4509   4519     1  0.0000000  1.0460000  1
   4504   4505   4509   4519     1  0.0000000  0.6694400  3
   4505   4504   4503   4507     1  0.0000000  0.6508444  3
   4505   4504   4523   4513     1  0.0000000  1.2552000  3
   4506   4504   4503   4510     1  0.0000000  1.0460000  1
   4506   4504   4503   4510     1  0.0000000  0.0000000  3
   4506   4504   4503   4507     1  0.0000000  0.6508444  3
   4506   4504   4505   4509     1  0.0000000  1.0460000  1
   4506   4504   4505   4509     1  0.0000000  0.0000000  3
   4506   4504   4505   4518     1  0.0000000  1.0460000  1
   4506   4504   4505   4518     1  0.0000000  0.0000000  3
   4506   4504   4505   4508     1  0.0000000  0.6508444  3
   4506   4504   4523   4513     1  0.0000000  1.2552000  3
   4507   4503   4501   4521     1  0.0000000  1.0460000  1
   4507   4503   4501   4521     1  0.0000000  0.0000000  3
   4507   4503   4501   4520     1  0.0000000  0.6508444  3
   4507   4503   4504   4523     1  0.0000000  0.6508444  3
   4507   4503   4510   4512     1  0.0000000  0.6973333  3
   4508   4505   4504   4523     1  0.0000000  0.6508444  3
   4508   4505   4509   4519     1  0.0000000  0.6973333  3
   4510   4503   4501   4520     1  0.0000000  1.0460000  1
   4510   4503   4501   4520     1  0.0000000  0.0000000  3
   4511   4500   4501   4520     1  0.0000000  0.6508444  3
   4514   4511   4500   4518     1  0.0000000  1.0460000  1
   4514   4511   4500   4518     1  0.0000000  0.0000000  3
   4514   4511   4516   4517     1  0.0000000  0.6973333  3
   4515   4511   4500   4518     1  0.0000000  1.0460000  1
   4515   4511   4500   4518     1  0.0000000  0.0000000  3
   4515   4511   4516   4517     1  0.0000000  0.6973333  3
   4518   4500   4501   4520     1  0.0000000  1.0460000  1
   4518   4500   4501   4520     1  0.0000000  0.0000000  3
   4518   4505   4509   4519     1  0.0000000  0.6973333  3
   4520   4501   4521   4522     1  0.0000000  0.6973333  3
   4525   4527   4529   4531     1  0.0000000  0.6508444  3
   4525   4527   4529   4532     1  0.0000000  0.6508444  3
   4526   4525   4527   4529     1  0.0000000  0.0000000  2
   4526   4525   4527   4528     1  0.0000000  0.0000000  2
   4526   4525   4527   4530     1  0.0000000  0.0000000  2
   4527   4529   4533   4598     1  0.0000000  0.6508444  3
   4528   4527   4529   4533     1  0.0000000  0.6508444  3
   4528   4527   4529   4531     1  0.0000000  0.6508444  3
   4528   4527   4529   4532     1  0.0000000  0.6508444  3
   4529   4533   4534   4543     1  0.0000000  0.6508444  3
   4529   4533   4534   4544     1  0.0000000  0.6508444  3
   4529   4533   4535   4536     1  0.0000000  0.6508444  3
   4529   4533   4535   4538     1  0.0000000  0.6508444  3
   4530   4527   4529   4533     1  0.0000000  0.6508444  3
   4530   4527   4529   4531     1  0.0000000  0.6508444  3
   4530   4527   4529   4532     1  0.0000000  0.6508444  3
   4531   4529   4533   4534     1  0.0000000  0.6508444  3
   4531   4529   4533   4535     1  0.0000000  0.6508444  3
   4531   4529   4533   4598     1  0.0000000  0.6508444  3
   4532   4529   4533   4534     1  0.0000000  0.6508444  3
   4532   4529   4533   4535     1  0.0000000  0.6508444  3
   4532   4529   4533   4598     1  0.0000000  0.6508444  3
   4533   4534   4545   4546     1  0.0000000  0.6508444  3
   4533   4534   4545   4547     1  0.0000000  0.6508444  3
   4533   4535   4537   4539     1  0.0000000  0.6508444  3
   4533   4535   4537   4540     1  0.0000000  0.6508444  3
   4534   4533   4535   4536     1  0.0000000  0.6508444  3
   4534   4533   4535   4538     1  0.0000000  0.6508444  3
   4535   4533   4534   4543     1  0.0000000  0.6508444  3
   4535   4533   4534   4544     1  0.0000000  0.6508444  3
   4536   4535   4537   4541     1  0.0000000  0.6508444  3
   4536   4535   4537   4539     1  0.0000000  0.6508444  3
   4536   4535   4537   4540     1  0.0000000  0.6508444  3
   4536   4535   4533   4598     1  0.0000000  0.6508444  3
   4537   4541   4573   4563     1  180.0000771  6.0668000  2
   4537   4541   4573   4563     1  180.0000771  1.4644000  4
   4537   4535   4533   4598     1  0.0000000  0.6508444  3
   4538   4535   4537   4541     1  0.0000000  0.6508444  3
   4538   4535   4537   4539     1  0.0000000  0.6508444  3
   4538   4535   4537   4540     1  0.0000000  0.6508444  3
   4538   4535   4533   4598     1  0.0000000  0.6508444  3
   4539   4537   4541   4542     1  0.0000000  3.3472000  1
   4539   4537   4541   4542     1  0.0000000  0.0000000  2
   4539   4537   4541   4542     1  180.0000771  0.3347200  3
   4539   4537   4541   4573     1  180.0000771  0.0000000  2
   4540   4537   4541   4542     1  0.0000000  3.3472000  1
   4540   4537   4541   4542     1  0.0000000  0.0000000  2
   4540   4537   4541   4542     1  180.0000771  0.3347200  3
   4540   4537   4541   4573     1  180.0000771  0.0000000  2
   4541   4573   4554   4556     1  0.0000000  1.2552000  3
   4542   4541   4573   4563     1  180.0000771  6.0668000  2
   4542   4541   4573   4563     1  180.0000771  1.4644000  4
   4543   4534   4545   4548     1  0.0000000  0.6508444  3
   4543   4534   4545   4546     1  0.0000000  0.6508444  3
   4543   4534   4545   4547     1  0.0000000  0.6508444  3
   4543   4534   4533   4598     1  0.0000000  0.6508444  3
   4544   4534   4545   4548     1  0.0000000  0.6508444  3
   4544   4534   4545   4546     1  0.0000000  0.6508444  3
   4544   4534   4545   4547     1  0.0000000  0.6508444  3
   4544   4534   4533   4598     1  0.0000000  0.6508444  3
   4545   4548   4597   4587     1  180.0000771  6.0668000  2
   4545   4548   4597   4587     1  180.0000771  1.4644000  4
   4545   4534   4533   4598     1  0.0000000  0.6508444  3
   4546   4545   4548   4549     1  0.0000000  3.3472000  1
   4546   4545   4548   4549     1  0.0000000  0.0000000  2
   4546   4545   4548   4549     1  180.0000771  0.3347200  3
   4546   4545   4548   4597     1  180.0000771  0.0000000  2
   4547   4545   4548   4549     1  0.0000000  3.3472000  1
   4547   4545   4548   4549     1  0.0000000  0.0000000  2
   4547   4545   4548   4549     1  180.0000771  0.3347200  3
   4547   4545   4548   4597     1  180.0000771  0.0000000  2
   4548   4597   4578   4580     1  0.0000000  1.2552000  3
   4549   4548   4597   4587     1  180.0000771  6.0668000  2
   4549   4548   4597   4587     1  180.0000771  1.4644000  4
   4550   4551   4553   4557     1  0.0000000  0.6508444  3
   4550   4551   4571   4572     1  0.0000000  1.0460000  1
   4550   4551   4571   4572     1  0.0000000  0.6694400  3
   4550   4561   4566   4567     1  0.0000000  1.0460000  1
   4550   4561   4566   4567     1  0.0000000  0.6694400  3
   4550   4568   4555   4558     1  0.0000000  1.6038667  3
   4551   4553   4554   4556     1  0.0000000  0.6508444  3
   4551   4553   4560   4562     1  0.0000000  1.0460000  1
   4551   4553   4560   4562     1  0.0000000  0.6694400  3
   4551   4550   4561   4564     1  0.0000000  0.6508444  3
   4551   4550   4561   4565     1  0.0000000  0.6508444  3
   4552   4550   4551   4553     1  0.0000000  0.6508444  3
   4552   4550   4551   4571     1  0.0000000  1.0460000  1
   4552   4550   4551   4571     1  0.0000000  0.0000000  3
   4552   4550   4551   4570     1  0.0000000  0.6508444  3
   4552   4550   4561   4566     1  0.0000000  1.0460000  1
   4552   4550   4561   4566     1  0.0000000  0.0000000  3
   4552   4550   4561   4564     1  0.0000000  0.6508444  3
   4552   4550   4561   4565     1  0.0000000  0.6508444  3
   4552   4550   4568   4555     1  0.0000000  1.6038667  3
   4553   4554   4555   4558     1  0.0000000  0.6508444  3
   4553   4554   4573   4563     1  0.0000000  1.2552000  3
   4553   4551   4571   4572     1  0.0000000  1.0460000  1
   4553   4551   4571   4572     1  0.0000000  0.6694400  3
   4554   4555   4559   4569     1  0.0000000  1.0460000  1
   4554   4555   4559   4569     1  0.0000000  0.6694400  3
   4554   4553   4560   4562     1  0.0000000  1.0460000  1
   4554   4553   4560   4562     1  0.0000000  0.6694400  3
   4554   4553   4551   4570     1  0.0000000  0.6508444  3
   4555   4554   4573   4563     1  0.0000000  1.2552000  3
   4555   4554   4553   4557     1  0.0000000  0.6508444  3
   4556   4554   4555   4559     1  0.0000000  1.0460000  1
   4556   4554   4555   4559     1  0.0000000  0.0000000  3
   4556   4554   4555   4568     1  0.0000000  1.0460000  1
   4556   4554   4555   4568     1  0.0000000  0.0000000  3
   4556   4554   4555   4558     1  0.0000000  0.6508444  3
   4556   4554   4573   4563     1  0.0000000  1.2552000  3
   4556   4554   4553   4560     1  0.0000000  1.0460000  1
   4556   4554   4553   4560     1  0.0000000  0.0000000  3
   4556   4554   4553   4557     1  0.0000000  0.6508444  3
   4557   4553   4554   4573     1  0.0000000  0.6508444  3
   4557   4553   4560   4562     1  0.0000000  0.6973333  3
   4557   4553   4551   4571     1  0.0000000  1.0460000  1
   4557   4553   4551   4571     1  0.0000000  0.0000000  3
   4557   4553   4551   4570     1  0.0000000  0.6508444  3
   4558   4555   4559   4569     1  0.0000000  0.6973333  3
   4558   4555   4554   4573     1  0.0000000  0.6508444  3
   4560   4553   4551   4570     1  0.0000000  1.0460000  1
   4560   4553   4551   4570     1  0.0000000  0.0000000  3
   4561   4550   4551   4570     1  0.0000000  0.6508444  3
   4564   4561   4566   4567     1  0.0000000  0.6973333  3
   4564   4561   4550   4568     1  0.0000000  1.0460000  1
   4564   4561   4550   4568     1  0.0000000  0.0000000  3
   4565   4561   4566   4567     1  0.0000000  0.6973333  3
   4565   4561   4550   4568     1  0.0000000  1.0460000  1
   4565   4561   4550   4568     1  0.0000000  0.0000000  3
   4568   4555   4559   4569     1  0.0000000  0.6973333  3
   4568   4550   4551   4570     1  0.0000000  1.0460000  1
   4568   4550   4551   4570     1  0.0000000  0.0000000  3
   4570   4551   4571   4572     1  0.0000000  0.6973333  3
   4574   4575   4577   4581     1  0.0000000  0.6508444  3
   4574   4575   4595   4596     1  0.0000000  1.0460000  1
   4574   4575   4595   4596     1  0.0000000  0.6694400  3
   4574   4585   4590   4591     1  0.0000000  1.0460000  1
   4574   4585   4590   4591     1  0.0000000  0.6694400  3
   4574   4592   4579   4582     1  0.0000000  1.6038667  3
   4575   4577   4578   4580     1  0.0000000  0.6508444  3
   4575   4577   4584   4586     1  0.0000000  1.0460000  1
   4575   4577   4584   4586     1  0.0000000  0.6694400  3
   4575   4574   4585   4588     1  0.0000000  0.6508444  3
   4575   4574   4585   4589     1  0.0000000  0.6508444  3
   4576   4574   4575   4577     1  0.0000000  0.6508444  3
   4576   4574   4575   4595     1  0.0000000  1.0460000  1
   4576   4574   4575   4595     1  0.0000000  0.0000000  3
   4576   4574   4575   4594     1  0.0000000  0.6508444  3
   4576   4574   4585   4590     1  0.0000000  1.0460000  1
   4576   4574   4585   4590     1  0.0000000  0.0000000  3
   4576   4574   4585   4588     1  0.0000000  0.6508444  3
   4576   4574   4585   4589     1  0.0000000  0.6508444  3
   4576   4574   4592   4579     1  0.0000000  1.6038667  3
   4577   4578   4579   4582     1  0.0000000  0.6508444  3
   4577   4578   4597   4587     1  0.0000000  1.2552000  3
   4577   4575   4595   4596     1  0.0000000  1.0460000  1
   4577   4575   4595   4596     1  0.0000000  0.6694400  3
   4578   4579   4583   4593     1  0.0000000  1.0460000  1
   4578   4579   4583   4593     1  0.0000000  0.6694400  3
   4578   4577   4584   4586     1  0.0000000  1.0460000  1
   4578   4577   4584   4586     1  0.0000000  0.6694400  3
   4578   4577   4575   4594     1  0.0000000  0.6508444  3
   4579   4578   4597   4587     1  0.0000000  1.2552000  3
   4579   4578   4577   4581     1  0.0000000  0.6508444  3
   4580   4578   4579   4583     1  0.0000000  1.0460000  1
   4580   4578   4579   4583     1  0.0000000  0.0000000  3
   4580   4578   4579   4592     1  0.0000000  1.0460000  1
   4580   4578   4579   4592     1  0.0000000  0.0000000  3
   4580   4578   4579   4582     1  0.0000000  0.6508444  3
   4580   4578   4597   4587     1  0.0000000  1.2552000  3
   4580   4578   4577   4584     1  0.0000000  1.0460000  1
   4580   4578   4577   4584     1  0.0000000  0.0000000  3
   4580   4578   4577   4581     1  0.0000000  0.6508444  3
   4581   4577   4578   4597     1  0.0000000  0.6508444  3
   4581   4577   4584   4586     1  0.0000000  0.6973333  3
   4581   4577   4575   4595     1  0.0000000  1.0460000  1
   4581   4577   4575   4595     1  0.0000000  0.0000000  3
   4581   4577   4575   4594     1  0.0000000  0.6508444  3
   4582   4579   4583   4593     1  0.0000000  0.6973333  3
   4582   4579   4578   4597     1  0.0000000  0.6508444  3
   4584   4577   4575   4594     1  0.0000000  1.0460000  1
   4584   4577   4575   4594     1  0.0000000  0.0000000  3
   4585   4574   4575   4594     1  0.0000000  0.6508444  3
   4588   4585   4590   4591     1  0.0000000  0.6973333  3
   4588   4585   4574   4592     1  0.0000000  1.0460000  1
   4588   4585   4574   4592     1  0.0000000  0.0000000  3
   4589   4585   4590   4591     1  0.0000000  0.6973333  3
   4589   4585   4574   4592     1  0.0000000  1.0460000  1
   4589   4585   4574   4592     1  0.0000000  0.0000000  3
   4592   4579   4583   4593     1  0.0000000  0.6973333  3
   4592   4574   4575   4594     1  0.0000000  1.0460000  1
   4592   4574   4575   4594     1  0.0000000  0.0000000  3
   4594   4575   4595   4596     1  0.0000000  0.6973333  3
   4599   4601   4603   4605     1  0.0000000  0.6508444  3
   4599   4601   4603   4606     1  0.0000000  0.6508444  3
   4600   4599   4601   4603     1  0.0000000  0.0000000  2
   4600   4599   4601   4602     1  0.0000000  0.0000000  2
   4600   4599   4601   4604     1  0.0000000  0.0000000  2
   4601   4603   4607   4672     1  0.0000000  0.6508444  3
   4602   4601   4603   4607     1  0.0000000  0.6508444  3
   4602   4601   4603   4605     1  0.0000000  0.6508444  3
   4602   4601   4603   4606     1  0.0000000  0.6508444  3
   4603   4607   4608   4617     1  0.0000000  0.6508444  3
   4603   4607   4608   4618     1  0.0000000  0.6508444  3
   4603   4607   4609   4610     1  0.0000000  0.6508444  3
   4603   4607   4609   4612     1  0.0000000  0.6508444  3
   4604   4601   4603   4607     1  0.0000000  0.6508444  3
   4604   4601   4603   4605     1  0.0000000  0.6508444  3
   4604   4601   4603   4606     1  0.0000000  0.6508444  3
   4605   4603   4607   4608     1  0.0000000  0.6508444  3
   4605   4603   4607   4609     1  0.0000000  0.6508444  3
   4605   4603   4607   4672     1  0.0000000  0.6508444  3
   4606   4603   4607   4608     1  0.0000000  0.6508444  3
   4606   4603   4607   4609     1  0.0000000  0.6508444  3
   4606   4603   4607   4672     1  0.0000000  0.6508444  3
   4607   4608   4619   4620     1  0.0000000  0.6508444  3
   4607   4608   4619   4621     1  0.0000000  0.6508444  3
   4607   4609   4611   4613     1  0.0000000  0.6508444  3
   4607   4609   4611   4614     1  0.0000000  0.6508444  3
   4608   4607   4609   4610     1  0.0000000  0.6508444  3
   4608   4607   4609   4612     1  0.0000000  0.6508444  3
   4609   4607   4608   4617     1  0.0000000  0.6508444  3
   4609   4607   4608   4618     1  0.0000000  0.6508444  3
   4610   4609   4607   4672     1  0.0000000  0.6508444  3
   4610   4609   4611   4615     1  0.0000000  0.6508444  3
   4610   4609   4611   4613     1  0.0000000  0.6508444  3
   4610   4609   4611   4614     1  0.0000000  0.6508444  3
   4611   4609   4607   4672     1  0.0000000  0.6508444  3
   4611   4615   4647   4637     1  180.0000771  6.0668000  2
   4611   4615   4647   4637     1  180.0000771  1.4644000  4
   4612   4609   4607   4672     1  0.0000000  0.6508444  3
   4612   4609   4611   4615     1  0.0000000  0.6508444  3
   4612   4609   4611   4613     1  0.0000000  0.6508444  3
   4612   4609   4611   4614     1  0.0000000  0.6508444  3
   4613   4611   4615   4616     1  0.0000000  3.3472000  1
   4613   4611   4615   4616     1  0.0000000  0.0000000  2
   4613   4611   4615   4616     1  180.0000771  0.3347200  3
   4613   4611   4615   4647     1  180.0000771  0.0000000  2
   4614   4611   4615   4616     1  0.0000000  3.3472000  1
   4614   4611   4615   4616     1  0.0000000  0.0000000  2
   4614   4611   4615   4616     1  180.0000771  0.3347200  3
   4614   4611   4615   4647     1  180.0000771  0.0000000  2
   4615   4647   4628   4630     1  0.0000000  1.2552000  3
   4616   4615   4647   4637     1  180.0000771  6.0668000  2
   4616   4615   4647   4637     1  180.0000771  1.4644000  4
   4617   4608   4607   4672     1  0.0000000  0.6508444  3
   4617   4608   4619   4622     1  0.0000000  0.6508444  3
   4617   4608   4619   4620     1  0.0000000  0.6508444  3
   4617   4608   4619   4621     1  0.0000000  0.6508444  3
   4618   4608   4607   4672     1  0.0000000  0.6508444  3
   4618   4608   4619   4622     1  0.0000000  0.6508444  3
   4618   4608   4619   4620     1  0.0000000  0.6508444  3
   4618   4608   4619   4621     1  0.0000000  0.6508444  3
   4619   4608   4607   4672     1  0.0000000  0.6508444  3
   4619   4622   4671   4661     1  180.0000771  6.0668000  2
   4619   4622   4671   4661     1  180.0000771  1.4644000  4
   4620   4619   4622   4623     1  0.0000000  3.3472000  1
   4620   4619   4622   4623     1  0.0000000  0.0000000  2
   4620   4619   4622   4623     1  180.0000771  0.3347200  3
   4620   4619   4622   4671     1  180.0000771  0.0000000  2
   4621   4619   4622   4623     1  0.0000000  3.3472000  1
   4621   4619   4622   4623     1  0.0000000  0.0000000  2
   4621   4619   4622   4623     1  180.0000771  0.3347200  3
   4621   4619   4622   4671     1  180.0000771  0.0000000  2
   4622   4671   4652   4654     1  0.0000000  1.2552000  3
   4623   4622   4671   4661     1  180.0000771  6.0668000  2
   4623   4622   4671   4661     1  180.0000771  1.4644000  4
   4624   4625   4627   4631     1  0.0000000  0.6508444  3
   4624   4625   4645   4646     1  0.0000000  1.0460000  1
   4624   4625   4645   4646     1  0.0000000  0.6694400  3
   4624   4635   4640   4641     1  0.0000000  1.0460000  1
   4624   4635   4640   4641     1  0.0000000  0.6694400  3
   4624   4642   4629   4632     1  0.0000000  1.6038667  3
   4625   4624   4635   4638     1  0.0000000  0.6508444  3
   4625   4624   4635   4639     1  0.0000000  0.6508444  3
   4625   4627   4628   4630     1  0.0000000  0.6508444  3
   4625   4627   4634   4636     1  0.0000000  1.0460000  1
   4625   4627   4634   4636     1  0.0000000  0.6694400  3
   4626   4624   4625   4627     1  0.0000000  0.6508444  3
   4626   4624   4625   4645     1  0.0000000  1.0460000  1
   4626   4624   4625   4645     1  0.0000000  0.0000000  3
   4626   4624   4625   4644     1  0.0000000  0.6508444  3
   4626   4624   4635   4640     1  0.0000000  1.0460000  1
   4626   4624   4635   4640     1  0.0000000  0.0000000  3
   4626   4624   4635   4638     1  0.0000000  0.6508444  3
   4626   4624   4635   4639     1  0.0000000  0.6508444  3
   4626   4624   4642   4629     1  0.0000000  1.6038667  3
   4627   4625   4645   4646     1  0.0000000  1.0460000  1
   4627   4625   4645   4646     1  0.0000000  0.6694400  3
   4627   4628   4629   4632     1  0.0000000  0.6508444  3
   4627   4628   4647   4637     1  0.0000000  1.2552000  3
   4628   4627   4625   4644     1  0.0000000  0.6508444  3
   4628   4627   4634   4636     1  0.0000000  1.0460000  1
   4628   4627   4634   4636     1  0.0000000  0.6694400  3
   4628   4629   4633   4643     1  0.0000000  1.0460000  1
   4628   4629   4633   4643     1  0.0000000  0.6694400  3
   4629   4628   4627   4631     1  0.0000000  0.6508444  3
   4629   4628   4647   4637     1  0.0000000  1.2552000  3
   4630   4628   4627   4634     1  0.0000000  1.0460000  1
   4630   4628   4627   4634     1  0.0000000  0.0000000  3
   4630   4628   4627   4631     1  0.0000000  0.6508444  3
   4630   4628   4629   4633     1  0.0000000  1.0460000  1
   4630   4628   4629   4633     1  0.0000000  0.0000000  3
   4630   4628   4629   4642     1  0.0000000  1.0460000  1
   4630   4628   4629   4642     1  0.0000000  0.0000000  3
   4630   4628   4629   4632     1  0.0000000  0.6508444  3
   4630   4628   4647   4637     1  0.0000000  1.2552000  3
   4631   4627   4625   4645     1  0.0000000  1.0460000  1
   4631   4627   4625   4645     1  0.0000000  0.0000000  3
   4631   4627   4625   4644     1  0.0000000  0.6508444  3
   4631   4627   4628   4647     1  0.0000000  0.6508444  3
   4631   4627   4634   4636     1  0.0000000  0.6973333  3
   4632   4629   4628   4647     1  0.0000000  0.6508444  3
   4632   4629   4633   4643     1  0.0000000  0.6973333  3
   4634   4627   4625   4644     1  0.0000000  1.0460000  1
   4634   4627   4625   4644     1  0.0000000  0.0000000  3
   4635   4624   4625   4644     1  0.0000000  0.6508444  3
   4638   4635   4624   4642     1  0.0000000  1.0460000  1
   4638   4635   4624   4642     1  0.0000000  0.0000000  3
   4638   4635   4640   4641     1  0.0000000  0.6973333  3
   4639   4635   4624   4642     1  0.0000000  1.0460000  1
   4639   4635   4624   4642     1  0.0000000  0.0000000  3
   4639   4635   4640   4641     1  0.0000000  0.6973333  3
   4642   4624   4625   4644     1  0.0000000  1.0460000  1
   4642   4624   4625   4644     1  0.0000000  0.0000000  3
   4642   4629   4633   4643     1  0.0000000  0.6973333  3
   4644   4625   4645   4646     1  0.0000000  0.6973333  3
   4648   4649   4651   4655     1  0.0000000  0.6508444  3
   4648   4649   4669   4670     1  0.0000000  1.0460000  1
   4648   4649   4669   4670     1  0.0000000  0.6694400  3
   4648   4659   4664   4665     1  0.0000000  1.0460000  1
   4648   4659   4664   4665     1  0.0000000  0.6694400  3
   4648   4666   4653   4656     1  0.0000000  1.6038667  3
   4649   4648   4659   4662     1  0.0000000  0.6508444  3
   4649   4648   4659   4663     1  0.0000000  0.6508444  3
   4649   4651   4652   4654     1  0.0000000  0.6508444  3
   4649   4651   4658   4660     1  0.0000000  1.0460000  1
   4649   4651   4658   4660     1  0.0000000  0.6694400  3
   4650   4648   4649   4651     1  0.0000000  0.6508444  3
   4650   4648   4649   4669     1  0.0000000  1.0460000  1
   4650   4648   4649   4669     1  0.0000000  0.0000000  3
   4650   4648   4649   4668     1  0.0000000  0.6508444  3
   4650   4648   4659   4664     1  0.0000000  1.0460000  1
   4650   4648   4659   4664     1  0.0000000  0.0000000  3
   4650   4648   4659   4662     1  0.0000000  0.6508444  3
   4650   4648   4659   4663     1  0.0000000  0.6508444  3
   4650   4648   4666   4653     1  0.0000000  1.6038667  3
   4651   4649   4669   4670     1  0.0000000  1.0460000  1
   4651   4649   4669   4670     1  0.0000000  0.6694400  3
   4651   4652   4653   4656     1  0.0000000  0.6508444  3
   4651   4652   4671   4661     1  0.0000000  1.2552000  3
   4652   4651   4649   4668     1  0.0000000  0.6508444  3
   4652   4651   4658   4660     1  0.0000000  1.0460000  1
   4652   4651   4658   4660     1  0.0000000  0.6694400  3
   4652   4653   4657   4667     1  0.0000000  1.0460000  1
   4652   4653   4657   4667     1  0.0000000  0.6694400  3
   4653   4652   4651   4655     1  0.0000000  0.6508444  3
   4653   4652   4671   4661     1  0.0000000  1.2552000  3
   4654   4652   4651   4658     1  0.0000000  1.0460000  1
   4654   4652   4651   4658     1  0.0000000  0.0000000  3
   4654   4652   4651   4655     1  0.0000000  0.6508444  3
   4654   4652   4653   4657     1  0.0000000  1.0460000  1
   4654   4652   4653   4657     1  0.0000000  0.0000000  3
   4654   4652   4653   4666     1  0.0000000  1.0460000  1
   4654   4652   4653   4666     1  0.0000000  0.0000000  3
   4654   4652   4653   4656     1  0.0000000  0.6508444  3
   4654   4652   4671   4661     1  0.0000000  1.2552000  3
   4655   4651   4649   4669     1  0.0000000  1.0460000  1
   4655   4651   4649   4669     1  0.0000000  0.0000000  3
   4655   4651   4649   4668     1  0.0000000  0.6508444  3
   4655   4651   4652   4671     1  0.0000000  0.6508444  3
   4655   4651   4658   4660     1  0.0000000  0.6973333  3
   4656   4653   4652   4671     1  0.0000000  0.6508444  3
   4656   4653   4657   4667     1  0.0000000  0.6973333  3
   4658   4651   4649   4668     1  0.0000000  1.0460000  1
   4658   4651   4649   4668     1  0.0000000  0.0000000  3
   4659   4648   4649   4668     1  0.0000000  0.6508444  3
   4662   4659   4648   4666     1  0.0000000  1.0460000  1
   4662   4659   4648   4666     1  0.0000000  0.0000000  3
   4662   4659   4664   4665     1  0.0000000  0.6973333  3
   4663   4659   4648   4666     1  0.0000000  1.0460000  1
   4663   4659   4648   4666     1  0.0000000  0.0000000  3
   4663   4659   4664   4665     1  0.0000000  0.6973333  3
   4666   4648   4649   4668     1  0.0000000  1.0460000  1
   4666   4648   4649   4668     1  0.0000000  0.0000000  3
   4666   4653   4657   4667     1  0.0000000  0.6973333  3
   4668   4649   4669   4670     1  0.0000000  0.6973333  3
   4673   4675   4677   4679     1  0.0000000  0.6508444  3
   4673   4675   4677   4680     1  0.0000000  0.6508444  3
   4674   4673   4675   4677     1  0.0000000  0.0000000  2
   4674   4673   4675   4676     1  0.0000000  0.0000000  2
   4674   4673   4675   4678     1  0.0000000  0.0000000  2
   4675   4677   4681   4746     1  0.0000000  0.6508444  3
   4676   4675   4677   4681     1  0.0000000  0.6508444  3
   4676   4675   4677   4679     1  0.0000000  0.6508444  3
   4676   4675   4677   4680     1  0.0000000  0.6508444  3
   4677   4681   4682   4691     1  0.0000000  0.6508444  3
   4677   4681   4682   4692     1  0.0000000  0.6508444  3
   4677   4681   4683   4684     1  0.0000000  0.6508444  3
   4677   4681   4683   4686     1  0.0000000  0.6508444  3
   4678   4675   4677   4681     1  0.0000000  0.6508444  3
   4678   4675   4677   4679     1  0.0000000  0.6508444  3
   4678   4675   4677   4680     1  0.0000000  0.6508444  3
   4679   4677   4681   4682     1  0.0000000  0.6508444  3
   4679   4677   4681   4683     1  0.0000000  0.6508444  3
   4679   4677   4681   4746     1  0.0000000  0.6508444  3
   4680   4677   4681   4682     1  0.0000000  0.6508444  3
   4680   4677   4681   4683     1  0.0000000  0.6508444  3
   4680   4677   4681   4746     1  0.0000000  0.6508444  3
   4681   4682   4693   4694     1  0.0000000  0.6508444  3
   4681   4682   4693   4695     1  0.0000000  0.6508444  3
   4681   4683   4685   4687     1  0.0000000  0.6508444  3
   4681   4683   4685   4688     1  0.0000000  0.6508444  3
   4682   4681   4683   4684     1  0.0000000  0.6508444  3
   4682   4681   4683   4686     1  0.0000000  0.6508444  3
   4683   4681   4682   4691     1  0.0000000  0.6508444  3
   4683   4681   4682   4692     1  0.0000000  0.6508444  3
   4684   4683   4685   4689     1  0.0000000  0.6508444  3
   4684   4683   4685   4687     1  0.0000000  0.6508444  3
   4684   4683   4685   4688     1  0.0000000  0.6508444  3
   4684   4683   4681   4746     1  0.0000000  0.6508444  3
   4685   4689   4721   4711     1  180.0000771  6.0668000  2
   4685   4689   4721   4711     1  180.0000771  1.4644000  4
   4685   4683   4681   4746     1  0.0000000  0.6508444  3
   4686   4683   4685   4689     1  0.0000000  0.6508444  3
   4686   4683   4685   4687     1  0.0000000  0.6508444  3
   4686   4683   4685   4688     1  0.0000000  0.6508444  3
   4686   4683   4681   4746     1  0.0000000  0.6508444  3
   4687   4685   4689   4690     1  0.0000000  3.3472000  1
   4687   4685   4689   4690     1  0.0000000  0.0000000  2
   4687   4685   4689   4690     1  180.0000771  0.3347200  3
   4687   4685   4689   4721     1  180.0000771  0.0000000  2
   4688   4685   4689   4690     1  0.0000000  3.3472000  1
   4688   4685   4689   4690     1  0.0000000  0.0000000  2
   4688   4685   4689   4690     1  180.0000771  0.3347200  3
   4688   4685   4689   4721     1  180.0000771  0.0000000  2
   4689   4721   4702   4704     1  0.0000000  1.2552000  3
   4690   4689   4721   4711     1  180.0000771  6.0668000  2
   4690   4689   4721   4711     1  180.0000771  1.4644000  4
   4691   4682   4693   4696     1  0.0000000  0.6508444  3
   4691   4682   4693   4694     1  0.0000000  0.6508444  3
   4691   4682   4693   4695     1  0.0000000  0.6508444  3
   4691   4682   4681   4746     1  0.0000000  0.6508444  3
   4692   4682   4693   4696     1  0.0000000  0.6508444  3
   4692   4682   4693   4694     1  0.0000000  0.6508444  3
   4692   4682   4693   4695     1  0.0000000  0.6508444  3
   4692   4682   4681   4746     1  0.0000000  0.6508444  3
   4693   4696   4745   4735     1  180.0000771  6.0668000  2
   4693   4696   4745   4735     1  180.0000771  1.4644000  4
   4693   4682   4681   4746     1  0.0000000  0.6508444  3
   4694   4693   4696   4697     1  0.0000000  3.3472000  1
   4694   4693   4696   4697     1  0.0000000  0.0000000  2
   4694   4693   4696   4697     1  180.0000771  0.3347200  3
   4694   4693   4696   4745     1  180.0000771  0.0000000  2
   4695   4693   4696   4697     1  0.0000000  3.3472000  1
   4695   4693   4696   4697     1  0.0000000  0.0000000  2
   4695   4693   4696   4697     1  180.0000771  0.3347200  3
   4695   4693   4696   4745     1  180.0000771  0.0000000  2
   4696   4745   4726   4728     1  0.0000000  1.2552000  3
   4697   4696   4745   4735     1  180.0000771  6.0668000  2
   4697   4696   4745   4735     1  180.0000771  1.4644000  4
   4698   4699   4701   4705     1  0.0000000  0.6508444  3
   4698   4699   4719   4720     1  0.0000000  1.0460000  1
   4698   4699   4719   4720     1  0.0000000  0.6694400  3
   4698   4709   4714   4715     1  0.0000000  1.0460000  1
   4698   4709   4714   4715     1  0.0000000  0.6694400  3
   4698   4716   4703   4706     1  0.0000000  1.6038667  3
   4699   4701   4702   4704     1  0.0000000  0.6508444  3
   4699   4701   4708   4710     1  0.0000000  1.0460000  1
   4699   4701   4708   4710     1  0.0000000  0.6694400  3
   4699   4698   4709   4712     1  0.0000000  0.6508444  3
   4699   4698   4709   4713     1  0.0000000  0.6508444  3
   4700   4698   4699   4701     1  0.0000000  0.6508444  3
   4700   4698   4699   4719     1  0.0000000  1.0460000  1
   4700   4698   4699   4719     1  0.0000000  0.0000000  3
   4700   4698   4699   4718     1  0.0000000  0.6508444  3
   4700   4698   4709   4714     1  0.0000000  1.0460000  1
   4700   4698   4709   4714     1  0.0000000  0.0000000  3
   4700   4698   4709   4712     1  0.0000000  0.6508444  3
   4700   4698   4709   4713     1  0.0000000  0.6508444  3
   4700   4698   4716   4703     1  0.0000000  1.6038667  3
   4701   4702   4703   4706     1  0.0000000  0.6508444  3
   4701   4702   4721   4711     1  0.0000000  1.2552000  3
   4701   4699   4719   4720     1  0.0000000  1.0460000  1
   4701   4699   4719   4720     1  0.0000000  0.6694400  3
   4702   4703   4707   4717     1  0.0000000  1.0460000  1
   4702   4703   4707   4717     1  0.0000000  0.6694400  3
   4702   4701   4708   4710     1  0.0000000  1.0460000  1
   4702   4701   4708   4710     1  0.0000000  0.6694400  3
   4702   4701   4699   4718     1  0.0000000  0.6508444  3
   4703   4702   4721   4711     1  0.0000000  1.2552000  3
   4703   4702   4701   4705     1  0.0000000  0.6508444  3
   4704   4702   4703   4707     1  0.0000000  1.0460000  1
   4704   4702   4703   4707     1  0.0000000  0.0000000  3
   4704   4702   4703   4716     1  0.0000000  1.0460000  1
   4704   4702   4703   4716     1  0.0000000  0.0000000  3
   4704   4702   4703   4706     1  0.0000000  0.6508444  3
   4704   4702   4721   4711     1  0.0000000  1.2552000  3
   4704   4702   4701   4708     1  0.0000000  1.0460000  1
   4704   4702   4701   4708     1  0.0000000  0.0000000  3
   4704   4702   4701   4705     1  0.0000000  0.6508444  3
   4705   4701   4702   4721     1  0.0000000  0.6508444  3
   4705   4701   4708   4710     1  0.0000000  0.6973333  3
   4705   4701   4699   4719     1  0.0000000  1.0460000  1
   4705   4701   4699   4719     1  0.0000000  0.0000000  3
   4705   4701   4699   4718     1  0.0000000  0.6508444  3
   4706   4703   4707   4717     1  0.0000000  0.6973333  3
   4706   4703   4702   4721     1  0.0000000  0.6508444  3
   4708   4701   4699   4718     1  0.0000000  1.0460000  1
   4708   4701   4699   4718     1  0.0000000  0.0000000  3
   4709   4698   4699   4718     1  0.0000000  0.6508444  3
   4712   4709   4714   4715     1  0.0000000  0.6973333  3
   4712   4709   4698   4716     1  0.0000000  1.0460000  1
   4712   4709   4698   4716     1  0.0000000  0.0000000  3
   4713   4709   4714   4715     1  0.0000000  0.6973333  3
   4713   4709   4698   4716     1  0.0000000  1.0460000  1
   4713   4709   4698   4716     1  0.0000000  0.0000000  3
   4716   4703   4707   4717     1  0.0000000  0.6973333  3
   4716   4698   4699   4718     1  0.0000000  1.0460000  1
   4716   4698   4699   4718     1  0.0000000  0.0000000  3
   4718   4699   4719   4720     1  0.0000000  0.6973333  3
   4722   4723   4725   4729     1  0.0000000  0.6508444  3
   4722   4723   4743   4744     1  0.0000000  1.0460000  1
   4722   4723   4743   4744     1  0.0000000  0.6694400  3
   4722   4733   4738   4739     1  0.0000000  1.0460000  1
   4722   4733   4738   4739     1  0.0000000  0.6694400  3
   4722   4740   4727   4730     1  0.0000000  1.6038667  3
   4723   4725   4726   4728     1  0.0000000  0.6508444  3
   4723   4725   4732   4734     1  0.0000000  1.0460000  1
   4723   4725   4732   4734     1  0.0000000  0.6694400  3
   4723   4722   4733   4736     1  0.0000000  0.6508444  3
   4723   4722   4733   4737     1  0.0000000  0.6508444  3
   4724   4722   4723   4725     1  0.0000000  0.6508444  3
   4724   4722   4723   4743     1  0.0000000  1.0460000  1
   4724   4722   4723   4743     1  0.0000000  0.0000000  3
   4724   4722   4723   4742     1  0.0000000  0.6508444  3
   4724   4722   4733   4738     1  0.0000000  1.0460000  1
   4724   4722   4733   4738     1  0.0000000  0.0000000  3
   4724   4722   4733   4736     1  0.0000000  0.6508444  3
   4724   4722   4733   4737     1  0.0000000  0.6508444  3
   4724   4722   4740   4727     1  0.0000000  1.6038667  3
   4725   4726   4727   4730     1  0.0000000  0.6508444  3
   4725   4726   4745   4735     1  0.0000000  1.2552000  3
   4725   4723   4743   4744     1  0.0000000  1.0460000  1
   4725   4723   4743   4744     1  0.0000000  0.6694400  3
   4726   4727   4731   4741     1  0.0000000  1.0460000  1
   4726   4727   4731   4741     1  0.0000000  0.6694400  3
   4726   4725   4732   4734     1  0.0000000  1.0460000  1
   4726   4725   4732   4734     1  0.0000000  0.6694400  3
   4726   4725   4723   4742     1  0.0000000  0.6508444  3
   4727   4726   4745   4735     1  0.0000000  1.2552000  3
   4727   4726   4725   4729     1  0.0000000  0.6508444  3
   4728   4726   4727   4731     1  0.0000000  1.0460000  1
   4728   4726   4727   4731     1  0.0000000  0.0000000  3
   4728   4726   4727   4740     1  0.0000000  1.0460000  1
   4728   4726   4727   4740     1  0.0000000  0.0000000  3
   4728   4726   4727   4730     1  0.0000000  0.6508444  3
   4728   4726   4745   4735     1  0.0000000  1.2552000  3
   4728   4726   4725   4732     1  0.0000000  1.0460000  1
   4728   4726   4725   4732     1  0.0000000  0.0000000  3
   4728   4726   4725   4729     1  0.0000000  0.6508444  3
   4729   4725   4726   4745     1  0.0000000  0.6508444  3
   4729   4725   4732   4734     1  0.0000000  0.6973333  3
   4729   4725   4723   4743     1  0.0000000  1.0460000  1
   4729   4725   4723   4743     1  0.0000000  0.0000000  3
   4729   4725   4723   4742     1  0.0000000  0.6508444  3
   4730   4727   4731   4741     1  0.0000000  0.6973333  3
   4730   4727   4726   4745     1  0.0000000  0.6508444  3
   4732   4725   4723   4742     1  0.0000000  1.0460000  1
   4732   4725   4723   4742     1  0.0000000  0.0000000  3
   4733   4722   4723   4742     1  0.0000000  0.6508444  3
   4736   4733   4738   4739     1  0.0000000  0.6973333  3
   4736   4733   4722   4740     1  0.0000000  1.0460000  1
   4736   4733   4722   4740     1  0.0000000  0.0000000  3
   4737   4733   4738   4739     1  0.0000000  0.6973333  3
   4737   4733   4722   4740     1  0.0000000  1.0460000  1
   4737   4733   4722   4740     1  0.0000000  0.0000000  3
   4740   4727   4731   4741     1  0.0000000  0.6973333  3
   4740   4722   4723   4742     1  0.0000000  1.0460000  1
   4740   4722   4723   4742     1  0.0000000  0.0000000  3
   4742   4723   4743   4744     1  0.0000000  0.6973333  3
   4747   4749   4751   4753     1  0.0000000  0.6508444  3
   4747   4749   4751   4754     1  0.0000000  0.6508444  3
   4748   4747   4749   4751     1  0.0000000  0.0000000  2
   4748   4747   4749   4750     1  0.0000000  0.0000000  2
   4748   4747   4749   4752     1  0.0000000  0.0000000  2
   4749   4751   4755   4820     1  0.0000000  0.6508444  3
   4750   4749   4751   4755     1  0.0000000  0.6508444  3
   4750   4749   4751   4753     1  0.0000000  0.6508444  3
   4750   4749   4751   4754     1  0.0000000  0.6508444  3
   4751   4755   4756   4765     1  0.0000000  0.6508444  3
   4751   4755   4756   4766     1  0.0000000  0.6508444  3
   4751   4755   4757   4758     1  0.0000000  0.6508444  3
   4751   4755   4757   4760     1  0.0000000  0.6508444  3
   4752   4749   4751   4755     1  0.0000000  0.6508444  3
   4752   4749   4751   4753     1  0.0000000  0.6508444  3
   4752   4749   4751   4754     1  0.0000000  0.6508444  3
   4753   4751   4755   4756     1  0.0000000  0.6508444  3
   4753   4751   4755   4757     1  0.0000000  0.6508444  3
   4753   4751   4755   4820     1  0.0000000  0.6508444  3
   4754   4751   4755   4756     1  0.0000000  0.6508444  3
   4754   4751   4755   4757     1  0.0000000  0.6508444  3
   4754   4751   4755   4820     1  0.0000000  0.6508444  3
   4755   4756   4767   4768     1  0.0000000  0.6508444  3
   4755   4756   4767   4769     1  0.0000000  0.6508444  3
   4755   4757   4759   4761     1  0.0000000  0.6508444  3
   4755   4757   4759   4762     1  0.0000000  0.6508444  3
   4756   4755   4757   4758     1  0.0000000  0.6508444  3
   4756   4755   4757   4760     1  0.0000000  0.6508444  3
   4757   4755   4756   4765     1  0.0000000  0.6508444  3
   4757   4755   4756   4766     1  0.0000000  0.6508444  3
   4758   4757   4755   4820     1  0.0000000  0.6508444  3
   4758   4757   4759   4763     1  0.0000000  0.6508444  3
   4758   4757   4759   4761     1  0.0000000  0.6508444  3
   4758   4757   4759   4762     1  0.0000000  0.6508444  3
   4759   4757   4755   4820     1  0.0000000  0.6508444  3
   4759   4763   4795   4785     1  180.0000771  6.0668000  2
   4759   4763   4795   4785     1  180.0000771  1.4644000  4
   4760   4757   4755   4820     1  0.0000000  0.6508444  3
   4760   4757   4759   4763     1  0.0000000  0.6508444  3
   4760   4757   4759   4761     1  0.0000000  0.6508444  3
   4760   4757   4759   4762     1  0.0000000  0.6508444  3
   4761   4759   4763   4764     1  0.0000000  3.3472000  1
   4761   4759   4763   4764     1  0.0000000  0.0000000  2
   4761   4759   4763   4764     1  180.0000771  0.3347200  3
   4761   4759   4763   4795     1  180.0000771  0.0000000  2
   4762   4759   4763   4764     1  0.0000000  3.3472000  1
   4762   4759   4763   4764     1  0.0000000  0.0000000  2
   4762   4759   4763   4764     1  180.0000771  0.3347200  3
   4762   4759   4763   4795     1  180.0000771  0.0000000  2
   4763   4795   4776   4778     1  0.0000000  1.2552000  3
   4764   4763   4795   4785     1  180.0000771  6.0668000  2
   4764   4763   4795   4785     1  180.0000771  1.4644000  4
   4765   4756   4755   4820     1  0.0000000  0.6508444  3
   4765   4756   4767   4770     1  0.0000000  0.6508444  3
   4765   4756   4767   4768     1  0.0000000  0.6508444  3
   4765   4756   4767   4769     1  0.0000000  0.6508444  3
   4766   4756   4755   4820     1  0.0000000  0.6508444  3
   4766   4756   4767   4770     1  0.0000000  0.6508444  3
   4766   4756   4767   4768     1  0.0000000  0.6508444  3
   4766   4756   4767   4769     1  0.0000000  0.6508444  3
   4767   4756   4755   4820     1  0.0000000  0.6508444  3
   4767   4770   4819   4809     1  180.0000771  6.0668000  2
   4767   4770   4819   4809     1  180.0000771  1.4644000  4
   4768   4767   4770   4771     1  0.0000000  3.3472000  1
   4768   4767   4770   4771     1  0.0000000  0.0000000  2
   4768   4767   4770   4771     1  180.0000771  0.3347200  3
   4768   4767   4770   4819     1  180.0000771  0.0000000  2
   4769   4767   4770   4771     1  0.0000000  3.3472000  1
   4769   4767   4770   4771     1  0.0000000  0.0000000  2
   4769   4767   4770   4771     1  180.0000771  0.3347200  3
   4769   4767   4770   4819     1  180.0000771  0.0000000  2
   4770   4819   4800   4802     1  0.0000000  1.2552000  3
   4771   4770   4819   4809     1  180.0000771  6.0668000  2
   4771   4770   4819   4809     1  180.0000771  1.4644000  4
   4772   4773   4775   4779     1  0.0000000  0.6508444  3
   4772   4773   4793   4794     1  0.0000000  1.0460000  1
   4772   4773   4793   4794     1  0.0000000  0.6694400  3
   4772   4783   4788   4789     1  0.0000000  1.0460000  1
   4772   4783   4788   4789     1  0.0000000  0.6694400  3
   4772   4790   4777   4780     1  0.0000000  1.6038667  3
   4773   4772   4783   4786     1  0.0000000  0.6508444  3
   4773   4772   4783   4787     1  0.0000000  0.6508444  3
   4773   4775   4776   4778     1  0.0000000  0.6508444  3
   4773   4775   4782   4784     1  0.0000000  1.0460000  1
   4773   4775   4782   4784     1  0.0000000  0.6694400  3
   4774   4772   4773   4775     1  0.0000000  0.6508444  3
   4774   4772   4773   4793     1  0.0000000  1.0460000  1
   4774   4772   4773   4793     1  0.0000000  0.0000000  3
   4774   4772   4773   4792     1  0.0000000  0.6508444  3
   4774   4772   4783   4788     1  0.0000000  1.0460000  1
   4774   4772   4783   4788     1  0.0000000  0.0000000  3
   4774   4772   4783   4786     1  0.0000000  0.6508444  3
   4774   4772   4783   4787     1  0.0000000  0.6508444  3
   4774   4772   4790   4777     1  0.0000000  1.6038667  3
   4775   4773   4793   4794     1  0.0000000  1.0460000  1
   4775   4773   4793   4794     1  0.0000000  0.6694400  3
   4775   4776   4777   4780     1  0.0000000  0.6508444  3
   4775   4776   4795   4785     1  0.0000000  1.2552000  3
   4776   4775   4773   4792     1  0.0000000  0.6508444  3
   4776   4775   4782   4784     1  0.0000000  1.0460000  1
   4776   4775   4782   4784     1  0.0000000  0.6694400  3
   4776   4777   4781   4791     1  0.0000000  1.0460000  1
   4776   4777   4781   4791     1  0.0000000  0.6694400  3
   4777   4776   4775   4779     1  0.0000000  0.6508444  3
   4777   4776   4795   4785     1  0.0000000  1.2552000  3
   4778   4776   4775   4782     1  0.0000000  1.0460000  1
   4778   4776   4775   4782     1  0.0000000  0.0000000  3
   4778   4776   4775   4779     1  0.0000000  0.6508444  3
   4778   4776   4777   4781     1  0.0000000  1.0460000  1
   4778   4776   4777   4781     1  0.0000000  0.0000000  3
   4778   4776   4777   4790     1  0.0000000  1.0460000  1
   4778   4776   4777   4790     1  0.0000000  0.0000000  3
   4778   4776   4777   4780     1  0.0000000  0.6508444  3
   4778   4776   4795   4785     1  0.0000000  1.2552000  3
   4779   4775   4773   4793     1  0.0000000  1.0460000  1
   4779   4775   4773   4793     1  0.0000000  0.0000000  3
   4779   4775   4773   4792     1  0.0000000  0.6508444  3
   4779   4775   4776   4795     1  0.0000000  0.6508444  3
   4779   4775   4782   4784     1  0.0000000  0.6973333  3
   4780   4777   4776   4795     1  0.0000000  0.6508444  3
   4780   4777   4781   4791     1  0.0000000  0.6973333  3
   4782   4775   4773   4792     1  0.0000000  1.0460000  1
   4782   4775   4773   4792     1  0.0000000  0.0000000  3
   4783   4772   4773   4792     1  0.0000000  0.6508444  3
   4786   4783   4772   4790     1  0.0000000  1.0460000  1
   4786   4783   4772   4790     1  0.0000000  0.0000000  3
   4786   4783   4788   4789     1  0.0000000  0.6973333  3
   4787   4783   4772   4790     1  0.0000000  1.0460000  1
   4787   4783   4772   4790     1  0.0000000  0.0000000  3
   4787   4783   4788   4789     1  0.0000000  0.6973333  3
   4790   4772   4773   4792     1  0.0000000  1.0460000  1
   4790   4772   4773   4792     1  0.0000000  0.0000000  3
   4790   4777   4781   4791     1  0.0000000  0.6973333  3
   4792   4773   4793   4794     1  0.0000000  0.6973333  3
   4796   4797   4799   4803     1  0.0000000  0.6508444  3
   4796   4797   4817   4818     1  0.0000000  1.0460000  1
   4796   4797   4817   4818     1  0.0000000  0.6694400  3
   4796   4807   4812   4813     1  0.0000000  1.0460000  1
   4796   4807   4812   4813     1  0.0000000  0.6694400  3
   4796   4814   4801   4804     1  0.0000000  1.6038667  3
   4797   4796   4807   4810     1  0.0000000  0.6508444  3
   4797   4796   4807   4811     1  0.0000000  0.6508444  3
   4797   4799   4800   4802     1  0.0000000  0.6508444  3
   4797   4799   4806   4808     1  0.0000000  1.0460000  1
   4797   4799   4806   4808     1  0.0000000  0.6694400  3
   4798   4796   4797   4799     1  0.0000000  0.6508444  3
   4798   4796   4797   4817     1  0.0000000  1.0460000  1
   4798   4796   4797   4817     1  0.0000000  0.0000000  3
   4798   4796   4797   4816     1  0.0000000  0.6508444  3
   4798   4796   4807   4812     1  0.0000000  1.0460000  1
   4798   4796   4807   4812     1  0.0000000  0.0000000  3
   4798   4796   4807   4810     1  0.0000000  0.6508444  3
   4798   4796   4807   4811     1  0.0000000  0.6508444  3
   4798   4796   4814   4801     1  0.0000000  1.6038667  3
   4799   4797   4817   4818     1  0.0000000  1.0460000  1
   4799   4797   4817   4818     1  0.0000000  0.6694400  3
   4799   4800   4801   4804     1  0.0000000  0.6508444  3
   4799   4800   4819   4809     1  0.0000000  1.2552000  3
   4800   4799   4797   4816     1  0.0000000  0.6508444  3
   4800   4799   4806   4808     1  0.0000000  1.0460000  1
   4800   4799   4806   4808     1  0.0000000  0.6694400  3
   4800   4801   4805   4815     1  0.0000000  1.0460000  1
   4800   4801   4805   4815     1  0.0000000  0.6694400  3
   4801   4800   4799   4803     1  0.0000000  0.6508444  3
   4801   4800   4819   4809     1  0.0000000  1.2552000  3
   4802   4800   4799   4806     1  0.0000000  1.0460000  1
   4802   4800   4799   4806     1  0.0000000  0.0000000  3
   4802   4800   4799   4803     1  0.0000000  0.6508444  3
   4802   4800   4801   4805     1  0.0000000  1.0460000  1
   4802   4800   4801   4805     1  0.0000000  0.0000000  3
   4802   4800   4801   4814     1  0.0000000  1.0460000  1
   4802   4800   4801   4814     1  0.0000000  0.0000000  3
   4802   4800   4801   4804     1  0.0000000  0.6508444  3
   4802   4800   4819   4809     1  0.0000000  1.2552000  3
   4803   4799   4797   4817     1  0.0000000  1.0460000  1
   4803   4799   4797   4817     1  0.0000000  0.0000000  3
   4803   4799   4797   4816     1  0.0000000  0.6508444  3
   4803   4799   4800   4819     1  0.0000000  0.6508444  3
   4803   4799   4806   4808     1  0.0000000  0.6973333  3
   4804   4801   4800   4819     1  0.0000000  0.6508444  3
   4804   4801   4805   4815     1  0.0000000  0.6973333  3
   4806   4799   4797   4816     1  0.0000000  1.0460000  1
   4806   4799   4797   4816     1  0.0000000  0.0000000  3
   4807   4796   4797   4816     1  0.0000000  0.6508444  3
   4810   4807   4796   4814     1  0.0000000  1.0460000  1
   4810   4807   4796   4814     1  0.0000000  0.0000000  3
   4810   4807   4812   4813     1  0.0000000  0.6973333  3
   4811   4807   4796   4814     1  0.0000000  1.0460000  1
   4811   4807   4796   4814     1  0.0000000  0.0000000  3
   4811   4807   4812   4813     1  0.0000000  0.6973333  3
   4814   4796   4797   4816     1  0.0000000  1.0460000  1
   4814   4796   4797   4816     1  0.0000000  0.0000000  3
   4814   4801   4805   4815     1  0.0000000  0.6973333  3
   4816   4797   4817   4818     1  0.0000000  0.6973333  3
   4821   4823   4825   4827     1  0.0000000  0.6508444  3
   4821   4823   4825   4828     1  0.0000000  0.6508444  3
   4822   4821   4823   4825     1  0.0000000  0.0000000  2
   4822   4821   4823   4824     1  0.0000000  0.0000000  2
   4822   4821   4823   4826     1  0.0000000  0.0000000  2
   4823   4825   4829   4894     1  0.0000000  0.6508444  3
   4824   4823   4825   4829     1  0.0000000  0.6508444  3
   4824   4823   4825   4827     1  0.0000000  0.6508444  3
   4824   4823   4825   4828     1  0.0000000  0.6508444  3
   4825   4829   4830   4839     1  0.0000000  0.6508444  3
   4825   4829   4830   4840     1  0.0000000  0.6508444  3
   4825   4829   4831   4832     1  0.0000000  0.6508444  3
   4825   4829   4831   4834     1  0.0000000  0.6508444  3
   4826   4823   4825   4829     1  0.0000000  0.6508444  3
   4826   4823   4825   4827     1  0.0000000  0.6508444  3
   4826   4823   4825   4828     1  0.0000000  0.6508444  3
   4827   4825   4829   4830     1  0.0000000  0.6508444  3
   4827   4825   4829   4831     1  0.0000000  0.6508444  3
   4827   4825   4829   4894     1  0.0000000  0.6508444  3
   4828   4825   4829   4830     1  0.0000000  0.6508444  3
   4828   4825   4829   4831     1  0.0000000  0.6508444  3
   4828   4825   4829   4894     1  0.0000000  0.6508444  3
   4829   4830   4841   4842     1  0.0000000  0.6508444  3
   4829   4830   4841   4843     1  0.0000000  0.6508444  3
   4829   4831   4833   4835     1  0.0000000  0.6508444  3
   4829   4831   4833   4836     1  0.0000000  0.6508444  3
   4830   4829   4831   4832     1  0.0000000  0.6508444  3
   4830   4829   4831   4834     1  0.0000000  0.6508444  3
   4831   4829   4830   4839     1  0.0000000  0.6508444  3
   4831   4829   4830   4840     1  0.0000000  0.6508444  3
   4832   4831   4833   4837     1  0.0000000  0.6508444  3
   4832   4831   4833   4835     1  0.0000000  0.6508444  3
   4832   4831   4833   4836     1  0.0000000  0.6508444  3
   4832   4831   4829   4894     1  0.0000000  0.6508444  3
   4833   4837   4869   4859     1  180.0000771  6.0668000  2
   4833   4837   4869   4859     1  180.0000771  1.4644000  4
   4833   4831   4829   4894     1  0.0000000  0.6508444  3
   4834   4831   4833   4837     1  0.0000000  0.6508444  3
   4834   4831   4833   4835     1  0.0000000  0.6508444  3
   4834   4831   4833   4836     1  0.0000000  0.6508444  3
   4834   4831   4829   4894     1  0.0000000  0.6508444  3
   4835   4833   4837   4838     1  0.0000000  3.3472000  1
   4835   4833   4837   4838     1  0.0000000  0.0000000  2
   4835   4833   4837   4838     1  180.0000771  0.3347200  3
   4835   4833   4837   4869     1  180.0000771  0.0000000  2
   4836   4833   4837   4838     1  0.0000000  3.3472000  1
   4836   4833   4837   4838     1  0.0000000  0.0000000  2
   4836   4833   4837   4838     1  180.0000771  0.3347200  3
   4836   4833   4837   4869     1  180.0000771  0.0000000  2
   4837   4869   4850   4852     1  0.0000000  1.2552000  3
   4838   4837   4869   4859     1  180.0000771  6.0668000  2
   4838   4837   4869   4859     1  180.0000771  1.4644000  4
   4839   4830   4841   4844     1  0.0000000  0.6508444  3
   4839   4830   4841   4842     1  0.0000000  0.6508444  3
   4839   4830   4841   4843     1  0.0000000  0.6508444  3
   4839   4830   4829   4894     1  0.0000000  0.6508444  3
   4840   4830   4841   4844     1  0.0000000  0.6508444  3
   4840   4830   4841   4842     1  0.0000000  0.6508444  3
   4840   4830   4841   4843     1  0.0000000  0.6508444  3
   4840   4830   4829   4894     1  0.0000000  0.6508444  3
   4841   4844   4893   4883     1  180.0000771  6.0668000  2
   4841   4844   4893   4883     1  180.0000771  1.4644000  4
   4841   4830   4829   4894     1  0.0000000  0.6508444  3
   4842   4841   4844   4845     1  0.0000000  3.3472000  1
   4842   4841   4844   4845     1  0.0000000  0.0000000  2
   4842   4841   4844   4845     1  180.0000771  0.3347200  3
   4842   4841   4844   4893     1  180.0000771  0.0000000  2
   4843   4841   4844   4845     1  0.0000000  3.3472000  1
   4843   4841   4844   4845     1  0.0000000  0.0000000  2
   4843   4841   4844   4845     1  180.0000771  0.3347200  3
   4843   4841   4844   4893     1  180.0000771  0.0000000  2
   4844   4893   4874   4876     1  0.0000000  1.2552000  3
   4845   4844   4893   4883     1  180.0000771  6.0668000  2
   4845   4844   4893   4883     1  180.0000771  1.4644000  4
   4846   4847   4849   4853     1  0.0000000  0.6508444  3
   4846   4847   4867   4868     1  0.0000000  1.0460000  1
   4846   4847   4867   4868     1  0.0000000  0.6694400  3
   4846   4857   4862   4863     1  0.0000000  1.0460000  1
   4846   4857   4862   4863     1  0.0000000  0.6694400  3
   4846   4864   4851   4854     1  0.0000000  1.6038667  3
   4847   4849   4850   4852     1  0.0000000  0.6508444  3
   4847   4849   4856   4858     1  0.0000000  1.0460000  1
   4847   4849   4856   4858     1  0.0000000  0.6694400  3
   4847   4846   4857   4860     1  0.0000000  0.6508444  3
   4847   4846   4857   4861     1  0.0000000  0.6508444  3
   4848   4846   4847   4849     1  0.0000000  0.6508444  3
   4848   4846   4847   4867     1  0.0000000  1.0460000  1
   4848   4846   4847   4867     1  0.0000000  0.0000000  3
   4848   4846   4847   4866     1  0.0000000  0.6508444  3
   4848   4846   4857   4862     1  0.0000000  1.0460000  1
   4848   4846   4857   4862     1  0.0000000  0.0000000  3
   4848   4846   4857   4860     1  0.0000000  0.6508444  3
   4848   4846   4857   4861     1  0.0000000  0.6508444  3
   4848   4846   4864   4851     1  0.0000000  1.6038667  3
   4849   4850   4851   4854     1  0.0000000  0.6508444  3
   4849   4850   4869   4859     1  0.0000000  1.2552000  3
   4849   4847   4867   4868     1  0.0000000  1.0460000  1
   4849   4847   4867   4868     1  0.0000000  0.6694400  3
   4850   4851   4855   4865     1  0.0000000  1.0460000  1
   4850   4851   4855   4865     1  0.0000000  0.6694400  3
   4850   4849   4856   4858     1  0.0000000  1.0460000  1
   4850   4849   4856   4858     1  0.0000000  0.6694400  3
   4850   4849   4847   4866     1  0.0000000  0.6508444  3
   4851   4850   4869   4859     1  0.0000000  1.2552000  3
   4851   4850   4849   4853     1  0.0000000  0.6508444  3
   4852   4850   4851   4855     1  0.0000000  1.0460000  1
   4852   4850   4851   4855     1  0.0000000  0.0000000  3
   4852   4850   4851   4864     1  0.0000000  1.0460000  1
   4852   4850   4851   4864     1  0.0000000  0.0000000  3
   4852   4850   4851   4854     1  0.0000000  0.6508444  3
   4852   4850   4869   4859     1  0.0000000  1.2552000  3
   4852   4850   4849   4856     1  0.0000000  1.0460000  1
   4852   4850   4849   4856     1  0.0000000  0.0000000  3
   4852   4850   4849   4853     1  0.0000000  0.6508444  3
   4853   4849   4850   4869     1  0.0000000  0.6508444  3
   4853   4849   4856   4858     1  0.0000000  0.6973333  3
   4853   4849   4847   4867     1  0.0000000  1.0460000  1
   4853   4849   4847   4867     1  0.0000000  0.0000000  3
   4853   4849   4847   4866     1  0.0000000  0.6508444  3
   4854   4851   4855   4865     1  0.0000000  0.6973333  3
   4854   4851   4850   4869     1  0.0000000  0.6508444  3
   4856   4849   4847   4866     1  0.0000000  1.0460000  1
   4856   4849   4847   4866     1  0.0000000  0.0000000  3
   4857   4846   4847   4866     1  0.0000000  0.6508444  3
   4860   4857   4862   4863     1  0.0000000  0.6973333  3
   4860   4857   4846   4864     1  0.0000000  1.0460000  1
   4860   4857   4846   4864     1  0.0000000  0.0000000  3
   4861   4857   4862   4863     1  0.0000000  0.6973333  3
   4861   4857   4846   4864     1  0.0000000  1.0460000  1
   4861   4857   4846   4864     1  0.0000000  0.0000000  3
   4864   4851   4855   4865     1  0.0000000  0.6973333  3
   4864   4846   4847   4866     1  0.0000000  1.0460000  1
   4864   4846   4847   4866     1  0.0000000  0.0000000  3
   4866   4847   4867   4868     1  0.0000000  0.6973333  3
   4870   4871   4873   4877     1  0.0000000  0.6508444  3
   4870   4871   4891   4892     1  0.0000000  1.0460000  1
   4870   4871   4891   4892     1  0.0000000  0.6694400  3
   4870   4881   4886   4887     1  0.0000000  1.0460000  1
   4870   4881   4886   4887     1  0.0000000  0.6694400  3
   4870   4888   4875   4878     1  0.0000000  1.6038667  3
   4871   4873   4874   4876     1  0.0000000  0.6508444  3
   4871   4873   4880   4882     1  0.0000000  1.0460000  1
   4871   4873   4880   4882     1  0.0000000  0.6694400  3
   4871   4870   4881   4884     1  0.0000000  0.6508444  3
   4871   4870   4881   4885     1  0.0000000  0.6508444  3
   4872   4870   4871   4873     1  0.0000000  0.6508444  3
   4872   4870   4871   4891     1  0.0000000  1.0460000  1
   4872   4870   4871   4891     1  0.0000000  0.0000000  3
   4872   4870   4871   4890     1  0.0000000  0.6508444  3
   4872   4870   4881   4886     1  0.0000000  1.0460000  1
   4872   4870   4881   4886     1  0.0000000  0.0000000  3
   4872   4870   4881   4884     1  0.0000000  0.6508444  3
   4872   4870   4881   4885     1  0.0000000  0.6508444  3
   4872   4870   4888   4875     1  0.0000000  1.6038667  3
   4873   4874   4875   4878     1  0.0000000  0.6508444  3
   4873   4874   4893   4883     1  0.0000000  1.2552000  3
   4873   4871   4891   4892     1  0.0000000  1.0460000  1
   4873   4871   4891   4892     1  0.0000000  0.6694400  3
   4874   4875   4879   4889     1  0.0000000  1.0460000  1
   4874   4875   4879   4889     1  0.0000000  0.6694400  3
   4874   4873   4880   4882     1  0.0000000  1.0460000  1
   4874   4873   4880   4882     1  0.0000000  0.6694400  3
   4874   4873   4871   4890     1  0.0000000  0.6508444  3
   4875   4874   4893   4883     1  0.0000000  1.2552000  3
   4875   4874   4873   4877     1  0.0000000  0.6508444  3
   4876   4874   4875   4879     1  0.0000000  1.0460000  1
   4876   4874   4875   4879     1  0.0000000  0.0000000  3
   4876   4874   4875   4888     1  0.0000000  1.0460000  1
   4876   4874   4875   4888     1  0.0000000  0.0000000  3
   4876   4874   4875   4878     1  0.0000000  0.6508444  3
   4876   4874   4893   4883     1  0.0000000  1.2552000  3
   4876   4874   4873   4880     1  0.0000000  1.0460000  1
   4876   4874   4873   4880     1  0.0000000  0.0000000  3
   4876   4874   4873   4877     1  0.0000000  0.6508444  3
   4877   4873   4874   4893     1  0.0000000  0.6508444  3
   4877   4873   4880   4882     1  0.0000000  0.6973333  3
   4877   4873   4871   4891     1  0.0000000  1.0460000  1
   4877   4873   4871   4891     1  0.0000000  0.0000000  3
   4877   4873   4871   4890     1  0.0000000  0.6508444  3
   4878   4875   4879   4889     1  0.0000000  0.6973333  3
   4878   4875   4874   4893     1  0.0000000  0.6508444  3
   4880   4873   4871   4890     1  0.0000000  1.0460000  1
   4880   4873   4871   4890     1  0.0000000  0.0000000  3
   4881   4870   4871   4890     1  0.0000000  0.6508444  3
   4884   4881   4886   4887     1  0.0000000  0.6973333  3
   4884   4881   4870   4888     1  0.0000000  1.0460000  1
   4884   4881   4870   4888     1  0.0000000  0.0000000  3
   4885   4881   4886   4887     1  0.0000000  0.6973333  3
   4885   4881   4870   4888     1  0.0000000  1.0460000  1
   4885   4881   4870   4888     1  0.0000000  0.0000000  3
   4888   4875   4879   4889     1  0.0000000  0.6973333  3
   4888   4870   4871   4890     1  0.0000000  1.0460000  1
   4888   4870   4871   4890     1  0.0000000  0.0000000  3
   4890   4871   4891   4892     1  0.0000000  0.6973333  3
   4895   4897   4899   4901     1  0.0000000  0.6508444  3
   4895   4897   4899   4902     1  0.0000000  0.6508444  3
   4896   4895   4897   4899     1  0.0000000  0.0000000  2
   4896   4895   4897   4898     1  0.0000000  0.0000000  2
   4896   4895   4897   4900     1  0.0000000  0.0000000  2
   4897   4899   4903   4968     1  0.0000000  0.6508444  3
   4898   4897   4899   4903     1  0.0000000  0.6508444  3
   4898   4897   4899   4901     1  0.0000000  0.6508444  3
   4898   4897   4899   4902     1  0.0000000  0.6508444  3
   4899   4903   4904   4913     1  0.0000000  0.6508444  3
   4899   4903   4904   4914     1  0.0000000  0.6508444  3
   4899   4903   4905   4906     1  0.0000000  0.6508444  3
   4899   4903   4905   4908     1  0.0000000  0.6508444  3
   4900   4897   4899   4903     1  0.0000000  0.6508444  3
   4900   4897   4899   4901     1  0.0000000  0.6508444  3
   4900   4897   4899   4902     1  0.0000000  0.6508444  3
   4901   4899   4903   4904     1  0.0000000  0.6508444  3
   4901   4899   4903   4905     1  0.0000000  0.6508444  3
   4901   4899   4903   4968     1  0.0000000  0.6508444  3
   4902   4899   4903   4904     1  0.0000000  0.6508444  3
   4902   4899   4903   4905     1  0.0000000  0.6508444  3
   4902   4899   4903   4968     1  0.0000000  0.6508444  3
   4903   4904   4915   4916     1  0.0000000  0.6508444  3
   4903   4904   4915   4917     1  0.0000000  0.6508444  3
   4903   4905   4907   4909     1  0.0000000  0.6508444  3
   4903   4905   4907   4910     1  0.0000000  0.6508444  3
   4904   4903   4905   4906     1  0.0000000  0.6508444  3
   4904   4903   4905   4908     1  0.0000000  0.6508444  3
   4905   4903   4904   4913     1  0.0000000  0.6508444  3
   4905   4903   4904   4914     1  0.0000000  0.6508444  3
   4906   4905   4903   4968     1  0.0000000  0.6508444  3
   4906   4905   4907   4911     1  0.0000000  0.6508444  3
   4906   4905   4907   4909     1  0.0000000  0.6508444  3
   4906   4905   4907   4910     1  0.0000000  0.6508444  3
   4907   4905   4903   4968     1  0.0000000  0.6508444  3
   4907   4911   4943   4933     1  180.0000771  6.0668000  2
   4907   4911   4943   4933     1  180.0000771  1.4644000  4
   4908   4905   4903   4968     1  0.0000000  0.6508444  3
   4908   4905   4907   4911     1  0.0000000  0.6508444  3
   4908   4905   4907   4909     1  0.0000000  0.6508444  3
   4908   4905   4907   4910     1  0.0000000  0.6508444  3
   4909   4907   4911   4912     1  0.0000000  3.3472000  1
   4909   4907   4911   4912     1  0.0000000  0.0000000  2
   4909   4907   4911   4912     1  180.0000771  0.3347200  3
   4909   4907   4911   4943     1  180.0000771  0.0000000  2
   4910   4907   4911   4912     1  0.0000000  3.3472000  1
   4910   4907   4911   4912     1  0.0000000  0.0000000  2
   4910   4907   4911   4912     1  180.0000771  0.3347200  3
   4910   4907   4911   4943     1  180.0000771  0.0000000  2
   4911   4943   4924   4926     1  0.0000000  1.2552000  3
   4912   4911   4943   4933     1  180.0000771  6.0668000  2
   4912   4911   4943   4933     1  180.0000771  1.4644000  4
   4913   4904   4903   4968     1  0.0000000  0.6508444  3
   4913   4904   4915   4918     1  0.0000000  0.6508444  3
   4913   4904   4915   4916     1  0.0000000  0.6508444  3
   4913   4904   4915   4917     1  0.0000000  0.6508444  3
   4914   4904   4903   4968     1  0.0000000  0.6508444  3
   4914   4904   4915   4918     1  0.0000000  0.6508444  3
   4914   4904   4915   4916     1  0.0000000  0.6508444  3
   4914   4904   4915   4917     1  0.0000000  0.6508444  3
   4915   4904   4903   4968     1  0.0000000  0.6508444  3
   4915   4918   4967   4957     1  180.0000771  6.0668000  2
   4915   4918   4967   4957     1  180.0000771  1.4644000  4
   4916   4915   4918   4919     1  0.0000000  3.3472000  1
   4916   4915   4918   4919     1  0.0000000  0.0000000  2
   4916   4915   4918   4919     1  180.0000771  0.3347200  3
   4916   4915   4918   4967     1  180.0000771  0.0000000  2
   4917   4915   4918   4919     1  0.0000000  3.3472000  1
   4917   4915   4918   4919     1  0.0000000  0.0000000  2
   4917   4915   4918   4919     1  180.0000771  0.3347200  3
   4917   4915   4918   4967     1  180.0000771  0.0000000  2
   4918   4967   4948   4950     1  0.0000000  1.2552000  3
   4919   4918   4967   4957     1  180.0000771  6.0668000  2
   4919   4918   4967   4957     1  180.0000771  1.4644000  4
   4920   4921   4923   4927     1  0.0000000  0.6508444  3
   4920   4921   4941   4942     1  0.0000000  1.0460000  1
   4920   4921   4941   4942     1  0.0000000  0.6694400  3
   4920   4931   4936   4937     1  0.0000000  1.0460000  1
   4920   4931   4936   4937     1  0.0000000  0.6694400  3
   4920   4938   4925   4928     1  0.0000000  1.6038667  3
   4921   4920   4931   4934     1  0.0000000  0.6508444  3
   4921   4920   4931   4935     1  0.0000000  0.6508444  3
   4921   4923   4924   4926     1  0.0000000  0.6508444  3
   4921   4923   4930   4932     1  0.0000000  1.0460000  1
   4921   4923   4930   4932     1  0.0000000  0.6694400  3
   4922   4920   4921   4923     1  0.0000000  0.6508444  3
   4922   4920   4921   4941     1  0.0000000  1.0460000  1
   4922   4920   4921   4941     1  0.0000000  0.0000000  3
   4922   4920   4921   4940     1  0.0000000  0.6508444  3
   4922   4920   4931   4936     1  0.0000000  1.0460000  1
   4922   4920   4931   4936     1  0.0000000  0.0000000  3
   4922   4920   4931   4934     1  0.0000000  0.6508444  3
   4922   4920   4931   4935     1  0.0000000  0.6508444  3
   4922   4920   4938   4925     1  0.0000000  1.6038667  3
   4923   4921   4941   4942     1  0.0000000  1.0460000  1
   4923   4921   4941   4942     1  0.0000000  0.6694400  3
   4923   4924   4925   4928     1  0.0000000  0.6508444  3
   4923   4924   4943   4933     1  0.0000000  1.2552000  3
   4924   4923   4921   4940     1  0.0000000  0.6508444  3
   4924   4923   4930   4932     1  0.0000000  1.0460000  1
   4924   4923   4930   4932     1  0.0000000  0.6694400  3
   4924   4925   4929   4939     1  0.0000000  1.0460000  1
   4924   4925   4929   4939     1  0.0000000  0.6694400  3
   4925   4924   4923   4927     1  0.0000000  0.6508444  3
   4925   4924   4943   4933     1  0.0000000  1.2552000  3
   4926   4924   4923   4930     1  0.0000000  1.0460000  1
   4926   4924   4923   4930     1  0.0000000  0.0000000  3
   4926   4924   4923   4927     1  0.0000000  0.6508444  3
   4926   4924   4925   4929     1  0.0000000  1.0460000  1
   4926   4924   4925   4929     1  0.0000000  0.0000000  3
   4926   4924   4925   4938     1  0.0000000  1.0460000  1
   4926   4924   4925   4938     1  0.0000000  0.0000000  3
   4926   4924   4925   4928     1  0.0000000  0.6508444  3
   4926   4924   4943   4933     1  0.0000000  1.2552000  3
   4927   4923   4921   4941     1  0.0000000  1.0460000  1
   4927   4923   4921   4941     1  0.0000000  0.0000000  3
   4927   4923   4921   4940     1  0.0000000  0.6508444  3
   4927   4923   4924   4943     1  0.0000000  0.6508444  3
   4927   4923   4930   4932     1  0.0000000  0.6973333  3
   4928   4925   4924   4943     1  0.0000000  0.6508444  3
   4928   4925   4929   4939     1  0.0000000  0.6973333  3
   4930   4923   4921   4940     1  0.0000000  1.0460000  1
   4930   4923   4921   4940     1  0.0000000  0.0000000  3
   4931   4920   4921   4940     1  0.0000000  0.6508444  3
   4934   4931   4920   4938     1  0.0000000  1.0460000  1
   4934   4931   4920   4938     1  0.0000000  0.0000000  3
   4934   4931   4936   4937     1  0.0000000  0.6973333  3
   4935   4931   4920   4938     1  0.0000000  1.0460000  1
   4935   4931   4920   4938     1  0.0000000  0.0000000  3
   4935   4931   4936   4937     1  0.0000000  0.6973333  3
   4938   4920   4921   4940     1  0.0000000  1.0460000  1
   4938   4920   4921   4940     1  0.0000000  0.0000000  3
   4938   4925   4929   4939     1  0.0000000  0.6973333  3
   4940   4921   4941   4942     1  0.0000000  0.6973333  3
   4944   4945   4947   4951     1  0.0000000  0.6508444  3
   4944   4945   4965   4966     1  0.0000000  1.0460000  1
   4944   4945   4965   4966     1  0.0000000  0.6694400  3
   4944   4955   4960   4961     1  0.0000000  1.0460000  1
   4944   4955   4960   4961     1  0.0000000  0.6694400  3
   4944   4962   4949   4952     1  0.0000000  1.6038667  3
   4945   4944   4955   4958     1  0.0000000  0.6508444  3
   4945   4944   4955   4959     1  0.0000000  0.6508444  3
   4945   4947   4948   4950     1  0.0000000  0.6508444  3
   4945   4947   4954   4956     1  0.0000000  1.0460000  1
   4945   4947   4954   4956     1  0.0000000  0.6694400  3
   4946   4944   4945   4947     1  0.0000000  0.6508444  3
   4946   4944   4945   4965     1  0.0000000  1.0460000  1
   4946   4944   4945   4965     1  0.0000000  0.0000000  3
   4946   4944   4945   4964     1  0.0000000  0.6508444  3
   4946   4944   4955   4960     1  0.0000000  1.0460000  1
   4946   4944   4955   4960     1  0.0000000  0.0000000  3
   4946   4944   4955   4958     1  0.0000000  0.6508444  3
   4946   4944   4955   4959     1  0.0000000  0.6508444  3
   4946   4944   4962   4949     1  0.0000000  1.6038667  3
   4947   4945   4965   4966     1  0.0000000  1.0460000  1
   4947   4945   4965   4966     1  0.0000000  0.6694400  3
   4947   4948   4949   4952     1  0.0000000  0.6508444  3
   4947   4948   4967   4957     1  0.0000000  1.2552000  3
   4948   4947   4945   4964     1  0.0000000  0.6508444  3
   4948   4947   4954   4956     1  0.0000000  1.0460000  1
   4948   4947   4954   4956     1  0.0000000  0.6694400  3
   4948   4949   4953   4963     1  0.0000000  1.0460000  1
   4948   4949   4953   4963     1  0.0000000  0.6694400  3
   4949   4948   4947   4951     1  0.0000000  0.6508444  3
   4949   4948   4967   4957     1  0.0000000  1.2552000  3
   4950   4948   4947   4954     1  0.0000000  1.0460000  1
   4950   4948   4947   4954     1  0.0000000  0.0000000  3
   4950   4948   4947   4951     1  0.0000000  0.6508444  3
   4950   4948   4949   4953     1  0.0000000  1.0460000  1
   4950   4948   4949   4953     1  0.0000000  0.0000000  3
   4950   4948   4949   4962     1  0.0000000  1.0460000  1
   4950   4948   4949   4962     1  0.0000000  0.0000000  3
   4950   4948   4949   4952     1  0.0000000  0.6508444  3
   4950   4948   4967   4957     1  0.0000000  1.2552000  3
   4951   4947   4945   4965     1  0.0000000  1.0460000  1
   4951   4947   4945   4965     1  0.0000000  0.0000000  3
   4951   4947   4945   4964     1  0.0000000  0.6508444  3
   4951   4947   4948   4967     1  0.0000000  0.6508444  3
   4951   4947   4954   4956     1  0.0000000  0.6973333  3
   4952   4949   4948   4967     1  0.0000000  0.6508444  3
   4952   4949   4953   4963     1  0.0000000  0.6973333  3
   4954   4947   4945   4964     1  0.0000000  1.0460000  1
   4954   4947   4945   4964     1  0.0000000  0.0000000  3
   4955   4944   4945   4964     1  0.0000000  0.6508444  3
   4958   4955   4944   4962     1  0.0000000  1.0460000  1
   4958   4955   4944   4962     1  0.0000000  0.0000000  3
   4958   4955   4960   4961     1  0.0000000  0.6973333  3
   4959   4955   4944   4962     1  0.0000000  1.0460000  1
   4959   4955   4944   4962     1  0.0000000  0.0000000  3
   4959   4955   4960   4961     1  0.0000000  0.6973333  3
   4962   4944   4945   4964     1  0.0000000  1.0460000  1
   4962   4944   4945   4964     1  0.0000000  0.0000000  3
   4962   4949   4953   4963     1  0.0000000  0.6973333  3
   4964   4945   4965   4966     1  0.0000000  0.6973333  3
   4969   4971   4973   4975     1  0.0000000  0.6508444  3
   4969   4971   4973   4976     1  0.0000000  0.6508444  3
   4970   4969   4971   4973     1  0.0000000  0.0000000  2
   4970   4969   4971   4972     1  0.0000000  0.0000000  2
   4970   4969   4971   4974     1  0.0000000  0.0000000  2
   4971   4973   4977   5042     1  0.0000000  0.6508444  3
   4972   4971   4973   4977     1  0.0000000  0.6508444  3
   4972   4971   4973   4975     1  0.0000000  0.6508444  3
   4972   4971   4973   4976     1  0.0000000  0.6508444  3
   4973   4977   4978   4987     1  0.0000000  0.6508444  3
   4973   4977   4978   4988     1  0.0000000  0.6508444  3
   4973   4977   4979   4980     1  0.0000000  0.6508444  3
   4973   4977   4979   4982     1  0.0000000  0.6508444  3
   4974   4971   4973   4977     1  0.0000000  0.6508444  3
   4974   4971   4973   4975     1  0.0000000  0.6508444  3
   4974   4971   4973   4976     1  0.0000000  0.6508444  3
   4975   4973   4977   4978     1  0.0000000  0.6508444  3
   4975   4973   4977   4979     1  0.0000000  0.6508444  3
   4975   4973   4977   5042     1  0.0000000  0.6508444  3
   4976   4973   4977   4978     1  0.0000000  0.6508444  3
   4976   4973   4977   4979     1  0.0000000  0.6508444  3
   4976   4973   4977   5042     1  0.0000000  0.6508444  3
   4977   4978   4989   4990     1  0.0000000  0.6508444  3
   4977   4978   4989   4991     1  0.0000000  0.6508444  3
   4977   4979   4981   4983     1  0.0000000  0.6508444  3
   4977   4979   4981   4984     1  0.0000000  0.6508444  3
   4978   4977   4979   4980     1  0.0000000  0.6508444  3
   4978   4977   4979   4982     1  0.0000000  0.6508444  3
   4979   4977   4978   4987     1  0.0000000  0.6508444  3
   4979   4977   4978   4988     1  0.0000000  0.6508444  3
   4980   4979   4981   4985     1  0.0000000  0.6508444  3
   4980   4979   4981   4983     1  0.0000000  0.6508444  3
   4980   4979   4981   4984     1  0.0000000  0.6508444  3
   4980   4979   4977   5042     1  0.0000000  0.6508444  3
   4981   4985   5017   5007     1  180.0000771  6.0668000  2
   4981   4985   5017   5007     1  180.0000771  1.4644000  4
   4981   4979   4977   5042     1  0.0000000  0.6508444  3
   4982   4979   4981   4985     1  0.0000000  0.6508444  3
   4982   4979   4981   4983     1  0.0000000  0.6508444  3
   4982   4979   4981   4984     1  0.0000000  0.6508444  3
   4982   4979   4977   5042     1  0.0000000  0.6508444  3
   4983   4981   4985   4986     1  0.0000000  3.3472000  1
   4983   4981   4985   4986     1  0.0000000  0.0000000  2
   4983   4981   4985   4986     1  180.0000771  0.3347200  3
   4983   4981   4985   5017     1  180.0000771  0.0000000  2
   4984   4981   4985   4986     1  0.0000000  3.3472000  1
   4984   4981   4985   4986     1  0.0000000  0.0000000  2
   4984   4981   4985   4986     1  180.0000771  0.3347200  3
   4984   4981   4985   5017     1  180.0000771  0.0000000  2
   4985   5017   4998   5000     1  0.0000000  1.2552000  3
   4986   4985   5017   5007     1  180.0000771  6.0668000  2
   4986   4985   5017   5007     1  180.0000771  1.4644000  4
   4987   4978   4989   4992     1  0.0000000  0.6508444  3
   4987   4978   4989   4990     1  0.0000000  0.6508444  3
   4987   4978   4989   4991     1  0.0000000  0.6508444  3
   4987   4978   4977   5042     1  0.0000000  0.6508444  3
   4988   4978   4989   4992     1  0.0000000  0.6508444  3
   4988   4978   4989   4990     1  0.0000000  0.6508444  3
   4988   4978   4989   4991     1  0.0000000  0.6508444  3
   4988   4978   4977   5042     1  0.0000000  0.6508444  3
   4989   4992   5041   5031     1  180.0000771  6.0668000  2
   4989   4992   5041   5031     1  180.0000771  1.4644000  4
   4989   4978   4977   5042     1  0.0000000  0.6508444  3
   4990   4989   4992   4993     1  0.0000000  3.3472000  1
   4990   4989   4992   4993     1  0.0000000  0.0000000  2
   4990   4989   4992   4993     1  180.0000771  0.3347200  3
   4990   4989   4992   5041     1  180.0000771  0.0000000  2
   4991   4989   4992   4993     1  0.0000000  3.3472000  1
   4991   4989   4992   4993     1  0.0000000  0.0000000  2
   4991   4989   4992   4993     1  180.0000771  0.3347200  3
   4991   4989   4992   5041     1  180.0000771  0.0000000  2
   4992   5041   5022   5024     1  0.0000000  1.2552000  3
   4993   4992   5041   5031     1  180.0000771  6.0668000  2
   4993   4992   5041   5031     1  180.0000771  1.4644000  4
   4994   4995   4997   5001     1  0.0000000  0.6508444  3
   4994   4995   5015   5016     1  0.0000000  1.0460000  1
   4994   4995   5015   5016     1  0.0000000  0.6694400  3
   4994   5005   5010   5011     1  0.0000000  1.0460000  1
   4994   5005   5010   5011     1  0.0000000  0.6694400  3
   4994   5012   4999   5002     1  0.0000000  1.6038667  3
   4995   4997   4998   5000     1  0.0000000  0.6508444  3
   4995   4997   5004   5006     1  0.0000000  1.0460000  1
   4995   4997   5004   5006     1  0.0000000  0.6694400  3
   4995   4994   5005   5008     1  0.0000000  0.6508444  3
   4995   4994   5005   5009     1  0.0000000  0.6508444  3
   4996   4994   4995   4997     1  0.0000000  0.6508444  3
   4996   4994   4995   5015     1  0.0000000  1.0460000  1
   4996   4994   4995   5015     1  0.0000000  0.0000000  3
   4996   4994   4995   5014     1  0.0000000  0.6508444  3
   4996   4994   5005   5010     1  0.0000000  1.0460000  1
   4996   4994   5005   5010     1  0.0000000  0.0000000  3
   4996   4994   5005   5008     1  0.0000000  0.6508444  3
   4996   4994   5005   5009     1  0.0000000  0.6508444  3
   4996   4994   5012   4999     1  0.0000000  1.6038667  3
   4997   4998   4999   5002     1  0.0000000  0.6508444  3
   4997   4998   5017   5007     1  0.0000000  1.2552000  3
   4997   4995   5015   5016     1  0.0000000  1.0460000  1
   4997   4995   5015   5016     1  0.0000000  0.6694400  3
   4998   4999   5003   5013     1  0.0000000  1.0460000  1
   4998   4999   5003   5013     1  0.0000000  0.6694400  3
   4998   4997   5004   5006     1  0.0000000  1.0460000  1
   4998   4997   5004   5006     1  0.0000000  0.6694400  3
   4998   4997   4995   5014     1  0.0000000  0.6508444  3
   4999   4998   5017   5007     1  0.0000000  1.2552000  3
   4999   4998   4997   5001     1  0.0000000  0.6508444  3
   5000   4998   4999   5003     1  0.0000000  1.0460000  1
   5000   4998   4999   5003     1  0.0000000  0.0000000  3
   5000   4998   4999   5012     1  0.0000000  1.0460000  1
   5000   4998   4999   5012     1  0.0000000  0.0000000  3
   5000   4998   4999   5002     1  0.0000000  0.6508444  3
   5000   4998   5017   5007     1  0.0000000  1.2552000  3
   5000   4998   4997   5004     1  0.0000000  1.0460000  1
   5000   4998   4997   5004     1  0.0000000  0.0000000  3
   5000   4998   4997   5001     1  0.0000000  0.6508444  3
   5001   4997   4998   5017     1  0.0000000  0.6508444  3
   5001   4997   5004   5006     1  0.0000000  0.6973333  3
   5001   4997   4995   5015     1  0.0000000  1.0460000  1
   5001   4997   4995   5015     1  0.0000000  0.0000000  3
   5001   4997   4995   5014     1  0.0000000  0.6508444  3
   5002   4999   5003   5013     1  0.0000000  0.6973333  3
   5002   4999   4998   5017     1  0.0000000  0.6508444  3
   5004   4997   4995   5014     1  0.0000000  1.0460000  1
   5004   4997   4995   5014     1  0.0000000  0.0000000  3
   5005   4994   4995   5014     1  0.0000000  0.6508444  3
   5008   5005   5010   5011     1  0.0000000  0.6973333  3
   5008   5005   4994   5012     1  0.0000000  1.0460000  1
   5008   5005   4994   5012     1  0.0000000  0.0000000  3
   5009   5005   5010   5011     1  0.0000000  0.6973333  3
   5009   5005   4994   5012     1  0.0000000  1.0460000  1
   5009   5005   4994   5012     1  0.0000000  0.0000000  3
   5012   4999   5003   5013     1  0.0000000  0.6973333  3
   5012   4994   4995   5014     1  0.0000000  1.0460000  1
   5012   4994   4995   5014     1  0.0000000  0.0000000  3
   5014   4995   5015   5016     1  0.0000000  0.6973333  3
   5018   5019   5021   5025     1  0.0000000  0.6508444  3
   5018   5019   5039   5040     1  0.0000000  1.0460000  1
   5018   5019   5039   5040     1  0.0000000  0.6694400  3
   5018   5029   5034   5035     1  0.0000000  1.0460000  1
   5018   5029   5034   5035     1  0.0000000  0.6694400  3
   5018   5036   5023   5026     1  0.0000000  1.6038667  3
   5019   5021   5022   5024     1  0.0000000  0.6508444  3
   5019   5021   5028   5030     1  0.0000000  1.0460000  1
   5019   5021   5028   5030     1  0.0000000  0.6694400  3
   5019   5018   5029   5032     1  0.0000000  0.6508444  3
   5019   5018   5029   5033     1  0.0000000  0.6508444  3
   5020   5018   5019   5021     1  0.0000000  0.6508444  3
   5020   5018   5019   5039     1  0.0000000  1.0460000  1
   5020   5018   5019   5039     1  0.0000000  0.0000000  3
   5020   5018   5019   5038     1  0.0000000  0.6508444  3
   5020   5018   5029   5034     1  0.0000000  1.0460000  1
   5020   5018   5029   5034     1  0.0000000  0.0000000  3
   5020   5018   5029   5032     1  0.0000000  0.6508444  3
   5020   5018   5029   5033     1  0.0000000  0.6508444  3
   5020   5018   5036   5023     1  0.0000000  1.6038667  3
   5021   5022   5023   5026     1  0.0000000  0.6508444  3
   5021   5022   5041   5031     1  0.0000000  1.2552000  3
   5021   5019   5039   5040     1  0.0000000  1.0460000  1
   5021   5019   5039   5040     1  0.0000000  0.6694400  3
   5022   5023   5027   5037     1  0.0000000  1.0460000  1
   5022   5023   5027   5037     1  0.0000000  0.6694400  3
   5022   5021   5028   5030     1  0.0000000  1.0460000  1
   5022   5021   5028   5030     1  0.0000000  0.6694400  3
   5022   5021   5019   5038     1  0.0000000  0.6508444  3
   5023   5022   5041   5031     1  0.0000000  1.2552000  3
   5023   5022   5021   5025     1  0.0000000  0.6508444  3
   5024   5022   5023   5027     1  0.0000000  1.0460000  1
   5024   5022   5023   5027     1  0.0000000  0.0000000  3
   5024   5022   5023   5036     1  0.0000000  1.0460000  1
   5024   5022   5023   5036     1  0.0000000  0.0000000  3
   5024   5022   5023   5026     1  0.0000000  0.6508444  3
   5024   5022   5041   5031     1  0.0000000  1.2552000  3
   5024   5022   5021   5028     1  0.0000000  1.0460000  1
   5024   5022   5021   5028     1  0.0000000  0.0000000  3
   5024   5022   5021   5025     1  0.0000000  0.6508444  3
   5025   5021   5022   5041     1  0.0000000  0.6508444  3
   5025   5021   5028   5030     1  0.0000000  0.6973333  3
   5025   5021   5019   5039     1  0.0000000  1.0460000  1
   5025   5021   5019   5039     1  0.0000000  0.0000000  3
   5025   5021   5019   5038     1  0.0000000  0.6508444  3
   5026   5023   5027   5037     1  0.0000000  0.6973333  3
   5026   5023   5022   5041     1  0.0000000  0.6508444  3
   5028   5021   5019   5038     1  0.0000000  1.0460000  1
   5028   5021   5019   5038     1  0.0000000  0.0000000  3
   5029   5018   5019   5038     1  0.0000000  0.6508444  3
   5032   5029   5034   5035     1  0.0000000  0.6973333  3
   5032   5029   5018   5036     1  0.0000000  1.0460000  1
   5032   5029   5018   5036     1  0.0000000  0.0000000  3
   5033   5029   5034   5035     1  0.0000000  0.6973333  3
   5033   5029   5018   5036     1  0.0000000  1.0460000  1
   5033   5029   5018   5036     1  0.0000000  0.0000000  3
   5036   5023   5027   5037     1  0.0000000  0.6973333  3
   5036   5018   5019   5038     1  0.0000000  1.0460000  1
   5036   5018   5019   5038     1  0.0000000  0.0000000  3
   5038   5019   5039   5040     1  0.0000000  0.6973333  3
   5043   5045   5047   5049     1  0.0000000  0.6508444  3
   5043   5045   5047   5050     1  0.0000000  0.6508444  3
   5044   5043   5045   5047     1  0.0000000  0.0000000  2
   5044   5043   5045   5046     1  0.0000000  0.0000000  2
   5044   5043   5045   5048     1  0.0000000  0.0000000  2
   5045   5047   5051   5116     1  0.0000000  0.6508444  3
   5046   5045   5047   5051     1  0.0000000  0.6508444  3
   5046   5045   5047   5049     1  0.0000000  0.6508444  3
   5046   5045   5047   5050     1  0.0000000  0.6508444  3
   5047   5051   5052   5061     1  0.0000000  0.6508444  3
   5047   5051   5052   5062     1  0.0000000  0.6508444  3
   5047   5051   5053   5054     1  0.0000000  0.6508444  3
   5047   5051   5053   5056     1  0.0000000  0.6508444  3
   5048   5045   5047   5051     1  0.0000000  0.6508444  3
   5048   5045   5047   5049     1  0.0000000  0.6508444  3
   5048   5045   5047   5050     1  0.0000000  0.6508444  3
   5049   5047   5051   5052     1  0.0000000  0.6508444  3
   5049   5047   5051   5053     1  0.0000000  0.6508444  3
   5049   5047   5051   5116     1  0.0000000  0.6508444  3
   5050   5047   5051   5052     1  0.0000000  0.6508444  3
   5050   5047   5051   5053     1  0.0000000  0.6508444  3
   5050   5047   5051   5116     1  0.0000000  0.6508444  3
   5051   5052   5063   5064     1  0.0000000  0.6508444  3
   5051   5052   5063   5065     1  0.0000000  0.6508444  3
   5051   5053   5055   5057     1  0.0000000  0.6508444  3
   5051   5053   5055   5058     1  0.0000000  0.6508444  3
   5052   5051   5053   5054     1  0.0000000  0.6508444  3
   5052   5051   5053   5056     1  0.0000000  0.6508444  3
   5053   5051   5052   5061     1  0.0000000  0.6508444  3
   5053   5051   5052   5062     1  0.0000000  0.6508444  3
   5054   5053   5051   5116     1  0.0000000  0.6508444  3
   5054   5053   5055   5059     1  0.0000000  0.6508444  3
   5054   5053   5055   5057     1  0.0000000  0.6508444  3
   5054   5053   5055   5058     1  0.0000000  0.6508444  3
   5055   5053   5051   5116     1  0.0000000  0.6508444  3
   5055   5059   5091   5081     1  180.0000771  6.0668000  2
   5055   5059   5091   5081     1  180.0000771  1.4644000  4
   5056   5053   5051   5116     1  0.0000000  0.6508444  3
   5056   5053   5055   5059     1  0.0000000  0.6508444  3
   5056   5053   5055   5057     1  0.0000000  0.6508444  3
   5056   5053   5055   5058     1  0.0000000  0.6508444  3
   5057   5055   5059   5060     1  0.0000000  3.3472000  1
   5057   5055   5059   5060     1  0.0000000  0.0000000  2
   5057   5055   5059   5060     1  180.0000771  0.3347200  3
   5057   5055   5059   5091     1  180.0000771  0.0000000  2
   5058   5055   5059   5060     1  0.0000000  3.3472000  1
   5058   5055   5059   5060     1  0.0000000  0.0000000  2
   5058   5055   5059   5060     1  180.0000771  0.3347200  3
   5058   5055   5059   5091     1  180.0000771  0.0000000  2
   5059   5091   5072   5074     1  0.0000000  1.2552000  3
   5060   5059   5091   5081     1  180.0000771  6.0668000  2
   5060   5059   5091   5081     1  180.0000771  1.4644000  4
   5061   5052   5051   5116     1  0.0000000  0.6508444  3
   5061   5052   5063   5066     1  0.0000000  0.6508444  3
   5061   5052   5063   5064     1  0.0000000  0.6508444  3
   5061   5052   5063   5065     1  0.0000000  0.6508444  3
   5062   5052   5051   5116     1  0.0000000  0.6508444  3
   5062   5052   5063   5066     1  0.0000000  0.6508444  3
   5062   5052   5063   5064     1  0.0000000  0.6508444  3
   5062   5052   5063   5065     1  0.0000000  0.6508444  3
   5063   5052   5051   5116     1  0.0000000  0.6508444  3
   5063   5066   5115   5105     1  180.0000771  6.0668000  2
   5063   5066   5115   5105     1  180.0000771  1.4644000  4
   5064   5063   5066   5067     1  0.0000000  3.3472000  1
   5064   5063   5066   5067     1  0.0000000  0.0000000  2
   5064   5063   5066   5067     1  180.0000771  0.3347200  3
   5064   5063   5066   5115     1  180.0000771  0.0000000  2
   5065   5063   5066   5067     1  0.0000000  3.3472000  1
   5065   5063   5066   5067     1  0.0000000  0.0000000  2
   5065   5063   5066   5067     1  180.0000771  0.3347200  3
   5065   5063   5066   5115     1  180.0000771  0.0000000  2
   5066   5115   5096   5098     1  0.0000000  1.2552000  3
   5067   5066   5115   5105     1  180.0000771  6.0668000  2
   5067   5066   5115   5105     1  180.0000771  1.4644000  4
   5068   5069   5071   5075     1  0.0000000  0.6508444  3
   5068   5069   5089   5090     1  0.0000000  1.0460000  1
   5068   5069   5089   5090     1  0.0000000  0.6694400  3
   5068   5079   5084   5085     1  0.0000000  1.0460000  1
   5068   5079   5084   5085     1  0.0000000  0.6694400  3
   5068   5086   5073   5076     1  0.0000000  1.6038667  3
   5069   5068   5079   5082     1  0.0000000  0.6508444  3
   5069   5068   5079   5083     1  0.0000000  0.6508444  3
   5069   5071   5072   5074     1  0.0000000  0.6508444  3
   5069   5071   5078   5080     1  0.0000000  1.0460000  1
   5069   5071   5078   5080     1  0.0000000  0.6694400  3
   5070   5068   5069   5071     1  0.0000000  0.6508444  3
   5070   5068   5069   5089     1  0.0000000  1.0460000  1
   5070   5068   5069   5089     1  0.0000000  0.0000000  3
   5070   5068   5069   5088     1  0.0000000  0.6508444  3
   5070   5068   5079   5084     1  0.0000000  1.0460000  1
   5070   5068   5079   5084     1  0.0000000  0.0000000  3
   5070   5068   5079   5082     1  0.0000000  0.6508444  3
   5070   5068   5079   5083     1  0.0000000  0.6508444  3
   5070   5068   5086   5073     1  0.0000000  1.6038667  3
   5071   5069   5089   5090     1  0.0000000  1.0460000  1
   5071   5069   5089   5090     1  0.0000000  0.6694400  3
   5071   5072   5073   5076     1  0.0000000  0.6508444  3
   5071   5072   5091   5081     1  0.0000000  1.2552000  3
   5072   5071   5069   5088     1  0.0000000  0.6508444  3
   5072   5071   5078   5080     1  0.0000000  1.0460000  1
   5072   5071   5078   5080     1  0.0000000  0.6694400  3
   5072   5073   5077   5087     1  0.0000000  1.0460000  1
   5072   5073   5077   5087     1  0.0000000  0.6694400  3
   5073   5072   5071   5075     1  0.0000000  0.6508444  3
   5073   5072   5091   5081     1  0.0000000  1.2552000  3
   5074   5072   5071   5078     1  0.0000000  1.0460000  1
   5074   5072   5071   5078     1  0.0000000  0.0000000  3
   5074   5072   5071   5075     1  0.0000000  0.6508444  3
   5074   5072   5073   5077     1  0.0000000  1.0460000  1
   5074   5072   5073   5077     1  0.0000000  0.0000000  3
   5074   5072   5073   5086     1  0.0000000  1.0460000  1
   5074   5072   5073   5086     1  0.0000000  0.0000000  3
   5074   5072   5073   5076     1  0.0000000  0.6508444  3
   5074   5072   5091   5081     1  0.0000000  1.2552000  3
   5075   5071   5069   5089     1  0.0000000  1.0460000  1
   5075   5071   5069   5089     1  0.0000000  0.0000000  3
   5075   5071   5069   5088     1  0.0000000  0.6508444  3
   5075   5071   5072   5091     1  0.0000000  0.6508444  3
   5075   5071   5078   5080     1  0.0000000  0.6973333  3
   5076   5073   5072   5091     1  0.0000000  0.6508444  3
   5076   5073   5077   5087     1  0.0000000  0.6973333  3
   5078   5071   5069   5088     1  0.0000000  1.0460000  1
   5078   5071   5069   5088     1  0.0000000  0.0000000  3
   5079   5068   5069   5088     1  0.0000000  0.6508444  3
   5082   5079   5068   5086     1  0.0000000  1.0460000  1
   5082   5079   5068   5086     1  0.0000000  0.0000000  3
   5082   5079   5084   5085     1  0.0000000  0.6973333  3
   5083   5079   5068   5086     1  0.0000000  1.0460000  1
   5083   5079   5068   5086     1  0.0000000  0.0000000  3
   5083   5079   5084   5085     1  0.0000000  0.6973333  3
   5086   5068   5069   5088     1  0.0000000  1.0460000  1
   5086   5068   5069   5088     1  0.0000000  0.0000000  3
   5086   5073   5077   5087     1  0.0000000  0.6973333  3
   5088   5069   5089   5090     1  0.0000000  0.6973333  3
   5092   5093   5095   5099     1  0.0000000  0.6508444  3
   5092   5093   5113   5114     1  0.0000000  1.0460000  1
   5092   5093   5113   5114     1  0.0000000  0.6694400  3
   5092   5103   5108   5109     1  0.0000000  1.0460000  1
   5092   5103   5108   5109     1  0.0000000  0.6694400  3
   5092   5110   5097   5100     1  0.0000000  1.6038667  3
   5093   5092   5103   5106     1  0.0000000  0.6508444  3
   5093   5092   5103   5107     1  0.0000000  0.6508444  3
   5093   5095   5096   5098     1  0.0000000  0.6508444  3
   5093   5095   5102   5104     1  0.0000000  1.0460000  1
   5093   5095   5102   5104     1  0.0000000  0.6694400  3
   5094   5092   5093   5095     1  0.0000000  0.6508444  3
   5094   5092   5093   5113     1  0.0000000  1.0460000  1
   5094   5092   5093   5113     1  0.0000000  0.0000000  3
   5094   5092   5093   5112     1  0.0000000  0.6508444  3
   5094   5092   5103   5108     1  0.0000000  1.0460000  1
   5094   5092   5103   5108     1  0.0000000  0.0000000  3
   5094   5092   5103   5106     1  0.0000000  0.6508444  3
   5094   5092   5103   5107     1  0.0000000  0.6508444  3
   5094   5092   5110   5097     1  0.0000000  1.6038667  3
   5095   5093   5113   5114     1  0.0000000  1.0460000  1
   5095   5093   5113   5114     1  0.0000000  0.6694400  3
   5095   5096   5097   5100     1  0.0000000  0.6508444  3
   5095   5096   5115   5105     1  0.0000000  1.2552000  3
   5096   5095   5093   5112     1  0.0000000  0.6508444  3
   5096   5095   5102   5104     1  0.0000000  1.0460000  1
   5096   5095   5102   5104     1  0.0000000  0.6694400  3
   5096   5097   5101   5111     1  0.0000000  1.0460000  1
   5096   5097   5101   5111     1  0.0000000  0.6694400  3
   5097   5096   5095   5099     1  0.0000000  0.6508444  3
   5097   5096   5115   5105     1  0.0000000  1.2552000  3
   5098   5096   5095   5102     1  0.0000000  1.0460000  1
   5098   5096   5095   5102     1  0.0000000  0.0000000  3
   5098   5096   5095   5099     1  0.0000000  0.6508444  3
   5098   5096   5097   5101     1  0.0000000  1.0460000  1
   5098   5096   5097   5101     1  0.0000000  0.0000000  3
   5098   5096   5097   5110     1  0.0000000  1.0460000  1
   5098   5096   5097   5110     1  0.0000000  0.0000000  3
   5098   5096   5097   5100     1  0.0000000  0.6508444  3
   5098   5096   5115   5105     1  0.0000000  1.2552000  3
   5099   5095   5093   5113     1  0.0000000  1.0460000  1
   5099   5095   5093   5113     1  0.0000000  0.0000000  3
   5099   5095   5093   5112     1  0.0000000  0.6508444  3
   5099   5095   5096   5115     1  0.0000000  0.6508444  3
   5099   5095   5102   5104     1  0.0000000  0.6973333  3
   5100   5097   5096   5115     1  0.0000000  0.6508444  3
   5100   5097   5101   5111     1  0.0000000  0.6973333  3
   5102   5095   5093   5112     1  0.0000000  1.0460000  1
   5102   5095   5093   5112     1  0.0000000  0.0000000  3
   5103   5092   5093   5112     1  0.0000000  0.6508444  3
   5106   5103   5092   5110     1  0.0000000  1.0460000  1
   5106   5103   5092   5110     1  0.0000000  0.0000000  3
   5106   5103   5108   5109     1  0.0000000  0.6973333  3
   5107   5103   5092   5110     1  0.0000000  1.0460000  1
   5107   5103   5092   5110     1  0.0000000  0.0000000  3
   5107   5103   5108   5109     1  0.0000000  0.6973333  3
   5110   5092   5093   5112     1  0.0000000  1.0460000  1
   5110   5092   5093   5112     1  0.0000000  0.0000000  3
   5110   5097   5101   5111     1  0.0000000  0.6973333  3
   5112   5093   5113   5114     1  0.0000000  0.6973333  3
   5117   5119   5121   5123     1  0.0000000  0.6508444  3
   5117   5119   5121   5124     1  0.0000000  0.6508444  3
   5118   5117   5119   5121     1  0.0000000  0.0000000  2
   5118   5117   5119   5120     1  0.0000000  0.0000000  2
   5118   5117   5119   5122     1  0.0000000  0.0000000  2
   5119   5121   5125   5190     1  0.0000000  0.6508444  3
   5120   5119   5121   5125     1  0.0000000  0.6508444  3
   5120   5119   5121   5123     1  0.0000000  0.6508444  3
   5120   5119   5121   5124     1  0.0000000  0.6508444  3
   5121   5125   5126   5135     1  0.0000000  0.6508444  3
   5121   5125   5126   5136     1  0.0000000  0.6508444  3
   5121   5125   5127   5128     1  0.0000000  0.6508444  3
   5121   5125   5127   5130     1  0.0000000  0.6508444  3
   5122   5119   5121   5125     1  0.0000000  0.6508444  3
   5122   5119   5121   5123     1  0.0000000  0.6508444  3
   5122   5119   5121   5124     1  0.0000000  0.6508444  3
   5123   5121   5125   5126     1  0.0000000  0.6508444  3
   5123   5121   5125   5127     1  0.0000000  0.6508444  3
   5123   5121   5125   5190     1  0.0000000  0.6508444  3
   5124   5121   5125   5126     1  0.0000000  0.6508444  3
   5124   5121   5125   5127     1  0.0000000  0.6508444  3
   5124   5121   5125   5190     1  0.0000000  0.6508444  3
   5125   5126   5137   5138     1  0.0000000  0.6508444  3
   5125   5126   5137   5139     1  0.0000000  0.6508444  3
   5125   5127   5129   5131     1  0.0000000  0.6508444  3
   5125   5127   5129   5132     1  0.0000000  0.6508444  3
   5126   5125   5127   5128     1  0.0000000  0.6508444  3
   5126   5125   5127   5130     1  0.0000000  0.6508444  3
   5127   5125   5126   5135     1  0.0000000  0.6508444  3
   5127   5125   5126   5136     1  0.0000000  0.6508444  3
   5128   5127   5129   5133     1  0.0000000  0.6508444  3
   5128   5127   5129   5131     1  0.0000000  0.6508444  3
   5128   5127   5129   5132     1  0.0000000  0.6508444  3
   5128   5127   5125   5190     1  0.0000000  0.6508444  3
   5129   5133   5165   5155     1  180.0000771  6.0668000  2
   5129   5133   5165   5155     1  180.0000771  1.4644000  4
   5129   5127   5125   5190     1  0.0000000  0.6508444  3
   5130   5127   5129   5133     1  0.0000000  0.6508444  3
   5130   5127   5129   5131     1  0.0000000  0.6508444  3
   5130   5127   5129   5132     1  0.0000000  0.6508444  3
   5130   5127   5125   5190     1  0.0000000  0.6508444  3
   5131   5129   5133   5134     1  0.0000000  3.3472000  1
   5131   5129   5133   5134     1  0.0000000  0.0000000  2
   5131   5129   5133   5134     1  180.0000771  0.3347200  3
   5131   5129   5133   5165     1  180.0000771  0.0000000  2
   5132   5129   5133   5134     1  0.0000000  3.3472000  1
   5132   5129   5133   5134     1  0.0000000  0.0000000  2
   5132   5129   5133   5134     1  180.0000771  0.3347200  3
   5132   5129   5133   5165     1  180.0000771  0.0000000  2
   5133   5165   5146   5148     1  0.0000000  1.2552000  3
   5134   5133   5165   5155     1  180.0000771  6.0668000  2
   5134   5133   5165   5155     1  180.0000771  1.4644000  4
   5135   5126   5137   5140     1  0.0000000  0.6508444  3
   5135   5126   5137   5138     1  0.0000000  0.6508444  3
   5135   5126   5137   5139     1  0.0000000  0.6508444  3
   5135   5126   5125   5190     1  0.0000000  0.6508444  3
   5136   5126   5137   5140     1  0.0000000  0.6508444  3
   5136   5126   5137   5138     1  0.0000000  0.6508444  3
   5136   5126   5137   5139     1  0.0000000  0.6508444  3
   5136   5126   5125   5190     1  0.0000000  0.6508444  3
   5137   5140   5189   5179     1  180.0000771  6.0668000  2
   5137   5140   5189   5179     1  180.0000771  1.4644000  4
   5137   5126   5125   5190     1  0.0000000  0.6508444  3
   5138   5137   5140   5141     1  0.0000000  3.3472000  1
   5138   5137   5140   5141     1  0.0000000  0.0000000  2
   5138   5137   5140   5141     1  180.0000771  0.3347200  3
   5138   5137   5140   5189     1  180.0000771  0.0000000  2
   5139   5137   5140   5141     1  0.0000000  3.3472000  1
   5139   5137   5140   5141     1  0.0000000  0.0000000  2
   5139   5137   5140   5141     1  180.0000771  0.3347200  3
   5139   5137   5140   5189     1  180.0000771  0.0000000  2
   5140   5189   5170   5172     1  0.0000000  1.2552000  3
   5141   5140   5189   5179     1  180.0000771  6.0668000  2
   5141   5140   5189   5179     1  180.0000771  1.4644000  4
   5142   5143   5145   5149     1  0.0000000  0.6508444  3
   5142   5143   5163   5164     1  0.0000000  1.0460000  1
   5142   5143   5163   5164     1  0.0000000  0.6694400  3
   5142   5153   5158   5159     1  0.0000000  1.0460000  1
   5142   5153   5158   5159     1  0.0000000  0.6694400  3
   5142   5160   5147   5150     1  0.0000000  1.6038667  3
   5143   5145   5146   5148     1  0.0000000  0.6508444  3
   5143   5145   5152   5154     1  0.0000000  1.0460000  1
   5143   5145   5152   5154     1  0.0000000  0.6694400  3
   5143   5142   5153   5156     1  0.0000000  0.6508444  3
   5143   5142   5153   5157     1  0.0000000  0.6508444  3
   5144   5142   5143   5145     1  0.0000000  0.6508444  3
   5144   5142   5143   5163     1  0.0000000  1.0460000  1
   5144   5142   5143   5163     1  0.0000000  0.0000000  3
   5144   5142   5143   5162     1  0.0000000  0.6508444  3
   5144   5142   5153   5158     1  0.0000000  1.0460000  1
   5144   5142   5153   5158     1  0.0000000  0.0000000  3
   5144   5142   5153   5156     1  0.0000000  0.6508444  3
   5144   5142   5153   5157     1  0.0000000  0.6508444  3
   5144   5142   5160   5147     1  0.0000000  1.6038667  3
   5145   5146   5147   5150     1  0.0000000  0.6508444  3
   5145   5146   5165   5155     1  0.0000000  1.2552000  3
   5145   5143   5163   5164     1  0.0000000  1.0460000  1
   5145   5143   5163   5164     1  0.0000000  0.6694400  3
   5146   5147   5151   5161     1  0.0000000  1.0460000  1
   5146   5147   5151   5161     1  0.0000000  0.6694400  3
   5146   5145   5152   5154     1  0.0000000  1.0460000  1
   5146   5145   5152   5154     1  0.0000000  0.6694400  3
   5146   5145   5143   5162     1  0.0000000  0.6508444  3
   5147   5146   5165   5155     1  0.0000000  1.2552000  3
   5147   5146   5145   5149     1  0.0000000  0.6508444  3
   5148   5146   5147   5151     1  0.0000000  1.0460000  1
   5148   5146   5147   5151     1  0.0000000  0.0000000  3
   5148   5146   5147   5160     1  0.0000000  1.0460000  1
   5148   5146   5147   5160     1  0.0000000  0.0000000  3
   5148   5146   5147   5150     1  0.0000000  0.6508444  3
   5148   5146   5165   5155     1  0.0000000  1.2552000  3
   5148   5146   5145   5152     1  0.0000000  1.0460000  1
   5148   5146   5145   5152     1  0.0000000  0.0000000  3
   5148   5146   5145   5149     1  0.0000000  0.6508444  3
   5149   5145   5146   5165     1  0.0000000  0.6508444  3
   5149   5145   5152   5154     1  0.0000000  0.6973333  3
   5149   5145   5143   5163     1  0.0000000  1.0460000  1
   5149   5145   5143   5163     1  0.0000000  0.0000000  3
   5149   5145   5143   5162     1  0.0000000  0.6508444  3
   5150   5147   5151   5161     1  0.0000000  0.6973333  3
   5150   5147   5146   5165     1  0.0000000  0.6508444  3
   5152   5145   5143   5162     1  0.0000000  1.0460000  1
   5152   5145   5143   5162     1  0.0000000  0.0000000  3
   5153   5142   5143   5162     1  0.0000000  0.6508444  3
   5156   5153   5158   5159     1  0.0000000  0.6973333  3
   5156   5153   5142   5160     1  0.0000000  1.0460000  1
   5156   5153   5142   5160     1  0.0000000  0.0000000  3
   5157   5153   5158   5159     1  0.0000000  0.6973333  3
   5157   5153   5142   5160     1  0.0000000  1.0460000  1
   5157   5153   5142   5160     1  0.0000000  0.0000000  3
   5160   5147   5151   5161     1  0.0000000  0.6973333  3
   5160   5142   5143   5162     1  0.0000000  1.0460000  1
   5160   5142   5143   5162     1  0.0000000  0.0000000  3
   5162   5143   5163   5164     1  0.0000000  0.6973333  3
   5166   5167   5169   5173     1  0.0000000  0.6508444  3
   5166   5167   5187   5188     1  0.0000000  1.0460000  1
   5166   5167   5187   5188     1  0.0000000  0.6694400  3
   5166   5177   5182   5183     1  0.0000000  1.0460000  1
   5166   5177   5182   5183     1  0.0000000  0.6694400  3
   5166   5184   5171   5174     1  0.0000000  1.6038667  3
   5167   5169   5170   5172     1  0.0000000  0.6508444  3
   5167   5169   5176   5178     1  0.0000000  1.0460000  1
   5167   5169   5176   5178     1  0.0000000  0.6694400  3
   5167   5166   5177   5180     1  0.0000000  0.6508444  3
   5167   5166   5177   5181     1  0.0000000  0.6508444  3
   5168   5166   5167   5169     1  0.0000000  0.6508444  3
   5168   5166   5167   5187     1  0.0000000  1.0460000  1
   5168   5166   5167   5187     1  0.0000000  0.0000000  3
   5168   5166   5167   5186     1  0.0000000  0.6508444  3
   5168   5166   5177   5182     1  0.0000000  1.0460000  1
   5168   5166   5177   5182     1  0.0000000  0.0000000  3
   5168   5166   5177   5180     1  0.0000000  0.6508444  3
   5168   5166   5177   5181     1  0.0000000  0.6508444  3
   5168   5166   5184   5171     1  0.0000000  1.6038667  3
   5169   5170   5171   5174     1  0.0000000  0.6508444  3
   5169   5170   5189   5179     1  0.0000000  1.2552000  3
   5169   5167   5187   5188     1  0.0000000  1.0460000  1
   5169   5167   5187   5188     1  0.0000000  0.6694400  3
   5170   5171   5175   5185     1  0.0000000  1.0460000  1
   5170   5171   5175   5185     1  0.0000000  0.6694400  3
   5170   5169   5176   5178     1  0.0000000  1.0460000  1
   5170   5169   5176   5178     1  0.0000000  0.6694400  3
   5170   5169   5167   5186     1  0.0000000  0.6508444  3
   5171   5170   5189   5179     1  0.0000000  1.2552000  3
   5171   5170   5169   5173     1  0.0000000  0.6508444  3
   5172   5170   5171   5175     1  0.0000000  1.0460000  1
   5172   5170   5171   5175     1  0.0000000  0.0000000  3
   5172   5170   5171   5184     1  0.0000000  1.0460000  1
   5172   5170   5171   5184     1  0.0000000  0.0000000  3
   5172   5170   5171   5174     1  0.0000000  0.6508444  3
   5172   5170   5189   5179     1  0.0000000  1.2552000  3
   5172   5170   5169   5176     1  0.0000000  1.0460000  1
   5172   5170   5169   5176     1  0.0000000  0.0000000  3
   5172   5170   5169   5173     1  0.0000000  0.6508444  3
   5173   5169   5170   5189     1  0.0000000  0.6508444  3
   5173   5169   5176   5178     1  0.0000000  0.6973333  3
   5173   5169   5167   5187     1  0.0000000  1.0460000  1
   5173   5169   5167   5187     1  0.0000000  0.0000000  3
   5173   5169   5167   5186     1  0.0000000  0.6508444  3
   5174   5171   5175   5185     1  0.0000000  0.6973333  3
   5174   5171   5170   5189     1  0.0000000  0.6508444  3
   5176   5169   5167   5186     1  0.0000000  1.0460000  1
   5176   5169   5167   5186     1  0.0000000  0.0000000  3
   5177   5166   5167   5186     1  0.0000000  0.6508444  3
   5180   5177   5182   5183     1  0.0000000  0.6973333  3
   5180   5177   5166   5184     1  0.0000000  1.0460000  1
   5180   5177   5166   5184     1  0.0000000  0.0000000  3
   5181   5177   5182   5183     1  0.0000000  0.6973333  3
   5181   5177   5166   5184     1  0.0000000  1.0460000  1
   5181   5177   5166   5184     1  0.0000000  0.0000000  3
   5184   5171   5175   5185     1  0.0000000  0.6973333  3
   5184   5166   5167   5186     1  0.0000000  1.0460000  1
   5184   5166   5167   5186     1  0.0000000  0.0000000  3
   5186   5167   5187   5188     1  0.0000000  0.6973333  3
   5191   5193   5195   5197     1  0.0000000  0.6508444  3
   5191   5193   5195   5198     1  0.0000000  0.6508444  3
   5192   5191   5193   5195     1  0.0000000  0.0000000  2
   5192   5191   5193   5194     1  0.0000000  0.0000000  2
   5192   5191   5193   5196     1  0.0000000  0.0000000  2
   5193   5195   5199   5264     1  0.0000000  0.6508444  3
   5194   5193   5195   5199     1  0.0000000  0.6508444  3
   5194   5193   5195   5197     1  0.0000000  0.6508444  3
   5194   5193   5195   5198     1  0.0000000  0.6508444  3
   5195   5199   5200   5209     1  0.0000000  0.6508444  3
   5195   5199   5200   5210     1  0.0000000  0.6508444  3
   5195   5199   5201   5202     1  0.0000000  0.6508444  3
   5195   5199   5201   5204     1  0.0000000  0.6508444  3
   5196   5193   5195   5199     1  0.0000000  0.6508444  3
   5196   5193   5195   5197     1  0.0000000  0.6508444  3
   5196   5193   5195   5198     1  0.0000000  0.6508444  3
   5197   5195   5199   5200     1  0.0000000  0.6508444  3
   5197   5195   5199   5201     1  0.0000000  0.6508444  3
   5197   5195   5199   5264     1  0.0000000  0.6508444  3
   5198   5195   5199   5200     1  0.0000000  0.6508444  3
   5198   5195   5199   5201     1  0.0000000  0.6508444  3
   5198   5195   5199   5264     1  0.0000000  0.6508444  3
   5199   5200   5211   5212     1  0.0000000  0.6508444  3
   5199   5200   5211   5213     1  0.0000000  0.6508444  3
   5199   5201   5203   5205     1  0.0000000  0.6508444  3
   5199   5201   5203   5206     1  0.0000000  0.6508444  3
   5200   5199   5201   5202     1  0.0000000  0.6508444  3
   5200   5199   5201   5204     1  0.0000000  0.6508444  3
   5201   5199   5200   5209     1  0.0000000  0.6508444  3
   5201   5199   5200   5210     1  0.0000000  0.6508444  3
   5202   5201   5199   5264     1  0.0000000  0.6508444  3
   5202   5201   5203   5207     1  0.0000000  0.6508444  3
   5202   5201   5203   5205     1  0.0000000  0.6508444  3
   5202   5201   5203   5206     1  0.0000000  0.6508444  3
   5203   5201   5199   5264     1  0.0000000  0.6508444  3
   5203   5207   5239   5229     1  180.0000771  6.0668000  2
   5203   5207   5239   5229     1  180.0000771  1.4644000  4
   5204   5201   5199   5264     1  0.0000000  0.6508444  3
   5204   5201   5203   5207     1  0.0000000  0.6508444  3
   5204   5201   5203   5205     1  0.0000000  0.6508444  3
   5204   5201   5203   5206     1  0.0000000  0.6508444  3
   5205   5203   5207   5208     1  0.0000000  3.3472000  1
   5205   5203   5207   5208     1  0.0000000  0.0000000  2
   5205   5203   5207   5208     1  180.0000771  0.3347200  3
   5205   5203   5207   5239     1  180.0000771  0.0000000  2
   5206   5203   5207   5208     1  0.0000000  3.3472000  1
   5206   5203   5207   5208     1  0.0000000  0.0000000  2
   5206   5203   5207   5208     1  180.0000771  0.3347200  3
   5206   5203   5207   5239     1  180.0000771  0.0000000  2
   5207   5239   5220   5222     1  0.0000000  1.2552000  3
   5208   5207   5239   5229     1  180.0000771  6.0668000  2
   5208   5207   5239   5229     1  180.0000771  1.4644000  4
   5209   5200   5199   5264     1  0.0000000  0.6508444  3
   5209   5200   5211   5214     1  0.0000000  0.6508444  3
   5209   5200   5211   5212     1  0.0000000  0.6508444  3
   5209   5200   5211   5213     1  0.0000000  0.6508444  3
   5210   5200   5199   5264     1  0.0000000  0.6508444  3
   5210   5200   5211   5214     1  0.0000000  0.6508444  3
   5210   5200   5211   5212     1  0.0000000  0.6508444  3
   5210   5200   5211   5213     1  0.0000000  0.6508444  3
   5211   5200   5199   5264     1  0.0000000  0.6508444  3
   5211   5214   5263   5253     1  180.0000771  6.0668000  2
   5211   5214   5263   5253     1  180.0000771  1.4644000  4
   5212   5211   5214   5215     1  0.0000000  3.3472000  1
   5212   5211   5214   5215     1  0.0000000  0.0000000  2
   5212   5211   5214   5215     1  180.0000771  0.3347200  3
   5212   5211   5214   5263     1  180.0000771  0.0000000  2
   5213   5211   5214   5215     1  0.0000000  3.3472000  1
   5213   5211   5214   5215     1  0.0000000  0.0000000  2
   5213   5211   5214   5215     1  180.0000771  0.3347200  3
   5213   5211   5214   5263     1  180.0000771  0.0000000  2
   5214   5263   5244   5246     1  0.0000000  1.2552000  3
   5215   5214   5263   5253     1  180.0000771  6.0668000  2
   5215   5214   5263   5253     1  180.0000771  1.4644000  4
   5216   5217   5219   5223     1  0.0000000  0.6508444  3
   5216   5217   5237   5238     1  0.0000000  1.0460000  1
   5216   5217   5237   5238     1  0.0000000  0.6694400  3
   5216   5227   5232   5233     1  0.0000000  1.0460000  1
   5216   5227   5232   5233     1  0.0000000  0.6694400  3
   5216   5234   5221   5224     1  0.0000000  1.6038667  3
   5217   5216   5227   5230     1  0.0000000  0.6508444  3
   5217   5216   5227   5231     1  0.0000000  0.6508444  3
   5217   5219   5220   5222     1  0.0000000  0.6508444  3
   5217   5219   5226   5228     1  0.0000000  1.0460000  1
   5217   5219   5226   5228     1  0.0000000  0.6694400  3
   5218   5216   5217   5219     1  0.0000000  0.6508444  3
   5218   5216   5217   5237     1  0.0000000  1.0460000  1
   5218   5216   5217   5237     1  0.0000000  0.0000000  3
   5218   5216   5217   5236     1  0.0000000  0.6508444  3
   5218   5216   5227   5232     1  0.0000000  1.0460000  1
   5218   5216   5227   5232     1  0.0000000  0.0000000  3
   5218   5216   5227   5230     1  0.0000000  0.6508444  3
   5218   5216   5227   5231     1  0.0000000  0.6508444  3
   5218   5216   5234   5221     1  0.0000000  1.6038667  3
   5219   5217   5237   5238     1  0.0000000  1.0460000  1
   5219   5217   5237   5238     1  0.0000000  0.6694400  3
   5219   5220   5221   5224     1  0.0000000  0.6508444  3
   5219   5220   5239   5229     1  0.0000000  1.2552000  3
   5220   5219   5217   5236     1  0.0000000  0.6508444  3
   5220   5219   5226   5228     1  0.0000000  1.0460000  1
   5220   5219   5226   5228     1  0.0000000  0.6694400  3
   5220   5221   5225   5235     1  0.0000000  1.0460000  1
   5220   5221   5225   5235     1  0.0000000  0.6694400  3
   5221   5220   5219   5223     1  0.0000000  0.6508444  3
   5221   5220   5239   5229     1  0.0000000  1.2552000  3
   5222   5220   5219   5226     1  0.0000000  1.0460000  1
   5222   5220   5219   5226     1  0.0000000  0.0000000  3
   5222   5220   5219   5223     1  0.0000000  0.6508444  3
   5222   5220   5221   5225     1  0.0000000  1.0460000  1
   5222   5220   5221   5225     1  0.0000000  0.0000000  3
   5222   5220   5221   5234     1  0.0000000  1.0460000  1
   5222   5220   5221   5234     1  0.0000000  0.0000000  3
   5222   5220   5221   5224     1  0.0000000  0.6508444  3
   5222   5220   5239   5229     1  0.0000000  1.2552000  3
   5223   5219   5217   5237     1  0.0000000  1.0460000  1
   5223   5219   5217   5237     1  0.0000000  0.0000000  3
   5223   5219   5217   5236     1  0.0000000  0.6508444  3
   5223   5219   5220   5239     1  0.0000000  0.6508444  3
   5223   5219   5226   5228     1  0.0000000  0.6973333  3
   5224   5221   5220   5239     1  0.0000000  0.6508444  3
   5224   5221   5225   5235     1  0.0000000  0.6973333  3
   5226   5219   5217   5236     1  0.0000000  1.0460000  1
   5226   5219   5217   5236     1  0.0000000  0.0000000  3
   5227   5216   5217   5236     1  0.0000000  0.6508444  3
   5230   5227   5216   5234     1  0.0000000  1.0460000  1
   5230   5227   5216   5234     1  0.0000000  0.0000000  3
   5230   5227   5232   5233     1  0.0000000  0.6973333  3
   5231   5227   5216   5234     1  0.0000000  1.0460000  1
   5231   5227   5216   5234     1  0.0000000  0.0000000  3
   5231   5227   5232   5233     1  0.0000000  0.6973333  3
   5234   5216   5217   5236     1  0.0000000  1.0460000  1
   5234   5216   5217   5236     1  0.0000000  0.0000000  3
   5234   5221   5225   5235     1  0.0000000  0.6973333  3
   5236   5217   5237   5238     1  0.0000000  0.6973333  3
   5240   5241   5243   5247     1  0.0000000  0.6508444  3
   5240   5241   5261   5262     1  0.0000000  1.0460000  1
   5240   5241   5261   5262     1  0.0000000  0.6694400  3
   5240   5251   5256   5257     1  0.0000000  1.0460000  1
   5240   5251   5256   5257     1  0.0000000  0.6694400  3
   5240   5258   5245   5248     1  0.0000000  1.6038667  3
   5241   5240   5251   5254     1  0.0000000  0.6508444  3
   5241   5240   5251   5255     1  0.0000000  0.6508444  3
   5241   5243   5244   5246     1  0.0000000  0.6508444  3
   5241   5243   5250   5252     1  0.0000000  1.0460000  1
   5241   5243   5250   5252     1  0.0000000  0.6694400  3
   5242   5240   5241   5243     1  0.0000000  0.6508444  3
   5242   5240   5241   5261     1  0.0000000  1.0460000  1
   5242   5240   5241   5261     1  0.0000000  0.0000000  3
   5242   5240   5241   5260     1  0.0000000  0.6508444  3
   5242   5240   5251   5256     1  0.0000000  1.0460000  1
   5242   5240   5251   5256     1  0.0000000  0.0000000  3
   5242   5240   5251   5254     1  0.0000000  0.6508444  3
   5242   5240   5251   5255     1  0.0000000  0.6508444  3
   5242   5240   5258   5245     1  0.0000000  1.6038667  3
   5243   5241   5261   5262     1  0.0000000  1.0460000  1
   5243   5241   5261   5262     1  0.0000000  0.6694400  3
   5243   5244   5245   5248     1  0.0000000  0.6508444  3
   5243   5244   5263   5253     1  0.0000000  1.2552000  3
   5244   5243   5241   5260     1  0.0000000  0.6508444  3
   5244   5243   5250   5252     1  0.0000000  1.0460000  1
   5244   5243   5250   5252     1  0.0000000  0.6694400  3
   5244   5245   5249   5259     1  0.0000000  1.0460000  1
   5244   5245   5249   5259     1  0.0000000  0.6694400  3
   5245   5244   5243   5247     1  0.0000000  0.6508444  3
   5245   5244   5263   5253     1  0.0000000  1.2552000  3
   5246   5244   5243   5250     1  0.0000000  1.0460000  1
   5246   5244   5243   5250     1  0.0000000  0.0000000  3
   5246   5244   5243   5247     1  0.0000000  0.6508444  3
   5246   5244   5245   5249     1  0.0000000  1.0460000  1
   5246   5244   5245   5249     1  0.0000000  0.0000000  3
   5246   5244   5245   5258     1  0.0000000  1.0460000  1
   5246   5244   5245   5258     1  0.0000000  0.0000000  3
   5246   5244   5245   5248     1  0.0000000  0.6508444  3
   5246   5244   5263   5253     1  0.0000000  1.2552000  3
   5247   5243   5241   5261     1  0.0000000  1.0460000  1
   5247   5243   5241   5261     1  0.0000000  0.0000000  3
   5247   5243   5241   5260     1  0.0000000  0.6508444  3
   5247   5243   5244   5263     1  0.0000000  0.6508444  3
   5247   5243   5250   5252     1  0.0000000  0.6973333  3
   5248   5245   5244   5263     1  0.0000000  0.6508444  3
   5248   5245   5249   5259     1  0.0000000  0.6973333  3
   5250   5243   5241   5260     1  0.0000000  1.0460000  1
   5250   5243   5241   5260     1  0.0000000  0.0000000  3
   5251   5240   5241   5260     1  0.0000000  0.6508444  3
   5254   5251   5240   5258     1  0.0000000  1.0460000  1
   5254   5251   5240   5258     1  0.0000000  0.0000000  3
   5254   5251   5256   5257     1  0.0000000  0.6973333  3
   5255   5251   5240   5258     1  0.0000000  1.0460000  1
   5255   5251   5240   5258     1  0.0000000  0.0000000  3
   5255   5251   5256   5257     1  0.0000000  0.6973333  3
   5258   5240   5241   5260     1  0.0000000  1.0460000  1
   5258   5240   5241   5260     1  0.0000000  0.0000000  3
   5258   5245   5249   5259     1  0.0000000  0.6973333  3
   5260   5241   5261   5262     1  0.0000000  0.6973333  3
   5265   5267   5269   5271     1  0.0000000  0.6508444  3
   5265   5267   5269   5272     1  0.0000000  0.6508444  3
   5266   5265   5267   5269     1  0.0000000  0.0000000  2
   5266   5265   5267   5268     1  0.0000000  0.0000000  2
   5266   5265   5267   5270     1  0.0000000  0.0000000  2
   5267   5269   5273   5338     1  0.0000000  0.6508444  3
   5268   5267   5269   5273     1  0.0000000  0.6508444  3
   5268   5267   5269   5271     1  0.0000000  0.6508444  3
   5268   5267   5269   5272     1  0.0000000  0.6508444  3
   5269   5273   5274   5283     1  0.0000000  0.6508444  3
   5269   5273   5274   5284     1  0.0000000  0.6508444  3
   5269   5273   5275   5276     1  0.0000000  0.6508444  3
   5269   5273   5275   5278     1  0.0000000  0.6508444  3
   5270   5267   5269   5273     1  0.0000000  0.6508444  3
   5270   5267   5269   5271     1  0.0000000  0.6508444  3
   5270   5267   5269   5272     1  0.0000000  0.6508444  3
   5271   5269   5273   5274     1  0.0000000  0.6508444  3
   5271   5269   5273   5275     1  0.0000000  0.6508444  3
   5271   5269   5273   5338     1  0.0000000  0.6508444  3
   5272   5269   5273   5274     1  0.0000000  0.6508444  3
   5272   5269   5273   5275     1  0.0000000  0.6508444  3
   5272   5269   5273   5338     1  0.0000000  0.6508444  3
   5273   5274   5285   5286     1  0.0000000  0.6508444  3
   5273   5274   5285   5287     1  0.0000000  0.6508444  3
   5273   5275   5277   5279     1  0.0000000  0.6508444  3
   5273   5275   5277   5280     1  0.0000000  0.6508444  3
   5274   5273   5275   5276     1  0.0000000  0.6508444  3
   5274   5273   5275   5278     1  0.0000000  0.6508444  3
   5275   5273   5274   5283     1  0.0000000  0.6508444  3
   5275   5273   5274   5284     1  0.0000000  0.6508444  3
   5276   5275   5277   5281     1  0.0000000  0.6508444  3
   5276   5275   5277   5279     1  0.0000000  0.6508444  3
   5276   5275   5277   5280     1  0.0000000  0.6508444  3
   5276   5275   5273   5338     1  0.0000000  0.6508444  3
   5277   5281   5313   5303     1  180.0000771  6.0668000  2
   5277   5281   5313   5303     1  180.0000771  1.4644000  4
   5277   5275   5273   5338     1  0.0000000  0.6508444  3
   5278   5275   5277   5281     1  0.0000000  0.6508444  3
   5278   5275   5277   5279     1  0.0000000  0.6508444  3
   5278   5275   5277   5280     1  0.0000000  0.6508444  3
   5278   5275   5273   5338     1  0.0000000  0.6508444  3
   5279   5277   5281   5282     1  0.0000000  3.3472000  1
   5279   5277   5281   5282     1  0.0000000  0.0000000  2
   5279   5277   5281   5282     1  180.0000771  0.3347200  3
   5279   5277   5281   5313     1  180.0000771  0.0000000  2
   5280   5277   5281   5282     1  0.0000000  3.3472000  1
   5280   5277   5281   5282     1  0.0000000  0.0000000  2
   5280   5277   5281   5282     1  180.0000771  0.3347200  3
   5280   5277   5281   5313     1  180.0000771  0.0000000  2
   5281   5313   5294   5296     1  0.0000000  1.2552000  3
   5282   5281   5313   5303     1  180.0000771  6.0668000  2
   5282   5281   5313   5303     1  180.0000771  1.4644000  4
   5283   5274   5285   5288     1  0.0000000  0.6508444  3
   5283   5274   5285   5286     1  0.0000000  0.6508444  3
   5283   5274   5285   5287     1  0.0000000  0.6508444  3
   5283   5274   5273   5338     1  0.0000000  0.6508444  3
   5284   5274   5285   5288     1  0.0000000  0.6508444  3
   5284   5274   5285   5286     1  0.0000000  0.6508444  3
   5284   5274   5285   5287     1  0.0000000  0.6508444  3
   5284   5274   5273   5338     1  0.0000000  0.6508444  3
   5285   5288   5337   5327     1  180.0000771  6.0668000  2
   5285   5288   5337   5327     1  180.0000771  1.4644000  4
   5285   5274   5273   5338     1  0.0000000  0.6508444  3
   5286   5285   5288   5289     1  0.0000000  3.3472000  1
   5286   5285   5288   5289     1  0.0000000  0.0000000  2
   5286   5285   5288   5289     1  180.0000771  0.3347200  3
   5286   5285   5288   5337     1  180.0000771  0.0000000  2
   5287   5285   5288   5289     1  0.0000000  3.3472000  1
   5287   5285   5288   5289     1  0.0000000  0.0000000  2
   5287   5285   5288   5289     1  180.0000771  0.3347200  3
   5287   5285   5288   5337     1  180.0000771  0.0000000  2
   5288   5337   5318   5320     1  0.0000000  1.2552000  3
   5289   5288   5337   5327     1  180.0000771  6.0668000  2
   5289   5288   5337   5327     1  180.0000771  1.4644000  4
   5290   5291   5293   5297     1  0.0000000  0.6508444  3
   5290   5291   5311   5312     1  0.0000000  1.0460000  1
   5290   5291   5311   5312     1  0.0000000  0.6694400  3
   5290   5301   5306   5307     1  0.0000000  1.0460000  1
   5290   5301   5306   5307     1  0.0000000  0.6694400  3
   5290   5308   5295   5298     1  0.0000000  1.6038667  3
   5291   5293   5294   5296     1  0.0000000  0.6508444  3
   5291   5293   5300   5302     1  0.0000000  1.0460000  1
   5291   5293   5300   5302     1  0.0000000  0.6694400  3
   5291   5290   5301   5304     1  0.0000000  0.6508444  3
   5291   5290   5301   5305     1  0.0000000  0.6508444  3
   5292   5290   5291   5293     1  0.0000000  0.6508444  3
   5292   5290   5291   5311     1  0.0000000  1.0460000  1
   5292   5290   5291   5311     1  0.0000000  0.0000000  3
   5292   5290   5291   5310     1  0.0000000  0.6508444  3
   5292   5290   5301   5306     1  0.0000000  1.0460000  1
   5292   5290   5301   5306     1  0.0000000  0.0000000  3
   5292   5290   5301   5304     1  0.0000000  0.6508444  3
   5292   5290   5301   5305     1  0.0000000  0.6508444  3
   5292   5290   5308   5295     1  0.0000000  1.6038667  3
   5293   5294   5295   5298     1  0.0000000  0.6508444  3
   5293   5294   5313   5303     1  0.0000000  1.2552000  3
   5293   5291   5311   5312     1  0.0000000  1.0460000  1
   5293   5291   5311   5312     1  0.0000000  0.6694400  3
   5294   5295   5299   5309     1  0.0000000  1.0460000  1
   5294   5295   5299   5309     1  0.0000000  0.6694400  3
   5294   5293   5300   5302     1  0.0000000  1.0460000  1
   5294   5293   5300   5302     1  0.0000000  0.6694400  3
   5294   5293   5291   5310     1  0.0000000  0.6508444  3
   5295   5294   5313   5303     1  0.0000000  1.2552000  3
   5295   5294   5293   5297     1  0.0000000  0.6508444  3
   5296   5294   5295   5299     1  0.0000000  1.0460000  1
   5296   5294   5295   5299     1  0.0000000  0.0000000  3
   5296   5294   5295   5308     1  0.0000000  1.0460000  1
   5296   5294   5295   5308     1  0.0000000  0.0000000  3
   5296   5294   5295   5298     1  0.0000000  0.6508444  3
   5296   5294   5313   5303     1  0.0000000  1.2552000  3
   5296   5294   5293   5300     1  0.0000000  1.0460000  1
   5296   5294   5293   5300     1  0.0000000  0.0000000  3
   5296   5294   5293   5297     1  0.0000000  0.6508444  3
   5297   5293   5294   5313     1  0.0000000  0.6508444  3
   5297   5293   5300   5302     1  0.0000000  0.6973333  3
   5297   5293   5291   5311     1  0.0000000  1.0460000  1
   5297   5293   5291   5311     1  0.0000000  0.0000000  3
   5297   5293   5291   5310     1  0.0000000  0.6508444  3
   5298   5295   5299   5309     1  0.0000000  0.6973333  3
   5298   5295   5294   5313     1  0.0000000  0.6508444  3
   5300   5293   5291   5310     1  0.0000000  1.0460000  1
   5300   5293   5291   5310     1  0.0000000  0.0000000  3
   5301   5290   5291   5310     1  0.0000000  0.6508444  3
   5304   5301   5306   5307     1  0.0000000  0.6973333  3
   5304   5301   5290   5308     1  0.0000000  1.0460000  1
   5304   5301   5290   5308     1  0.0000000  0.0000000  3
   5305   5301   5306   5307     1  0.0000000  0.6973333  3
   5305   5301   5290   5308     1  0.0000000  1.0460000  1
   5305   5301   5290   5308     1  0.0000000  0.0000000  3
   5308   5295   5299   5309     1  0.0000000  0.6973333  3
   5308   5290   5291   5310     1  0.0000000  1.0460000  1
   5308   5290   5291   5310     1  0.0000000  0.0000000  3
   5310   5291   5311   5312     1  0.0000000  0.6973333  3
   5314   5315   5317   5321     1  0.0000000  0.6508444  3
   5314   5315   5335   5336     1  0.0000000  1.0460000  1
   5314   5315   5335   5336     1  0.0000000  0.6694400  3
   5314   5325   5330   5331     1  0.0000000  1.0460000  1
   5314   5325   5330   5331     1  0.0000000  0.6694400  3
   5314   5332   5319   5322     1  0.0000000  1.6038667  3
   5315   5317   5318   5320     1  0.0000000  0.6508444  3
   5315   5317   5324   5326     1  0.0000000  1.0460000  1
   5315   5317   5324   5326     1  0.0000000  0.6694400  3
   5315   5314   5325   5328     1  0.0000000  0.6508444  3
   5315   5314   5325   5329     1  0.0000000  0.6508444  3
   5316   5314   5315   5317     1  0.0000000  0.6508444  3
   5316   5314   5315   5335     1  0.0000000  1.0460000  1
   5316   5314   5315   5335     1  0.0000000  0.0000000  3
   5316   5314   5315   5334     1  0.0000000  0.6508444  3
   5316   5314   5325   5330     1  0.0000000  1.0460000  1
   5316   5314   5325   5330     1  0.0000000  0.0000000  3
   5316   5314   5325   5328     1  0.0000000  0.6508444  3
   5316   5314   5325   5329     1  0.0000000  0.6508444  3
   5316   5314   5332   5319     1  0.0000000  1.6038667  3
   5317   5318   5319   5322     1  0.0000000  0.6508444  3
   5317   5318   5337   5327     1  0.0000000  1.2552000  3
   5317   5315   5335   5336     1  0.0000000  1.0460000  1
   5317   5315   5335   5336     1  0.0000000  0.6694400  3
   5318   5319   5323   5333     1  0.0000000  1.0460000  1
   5318   5319   5323   5333     1  0.0000000  0.6694400  3
   5318   5317   5324   5326     1  0.0000000  1.0460000  1
   5318   5317   5324   5326     1  0.0000000  0.6694400  3
   5318   5317   5315   5334     1  0.0000000  0.6508444  3
   5319   5318   5337   5327     1  0.0000000  1.2552000  3
   5319   5318   5317   5321     1  0.0000000  0.6508444  3
   5320   5318   5319   5323     1  0.0000000  1.0460000  1
   5320   5318   5319   5323     1  0.0000000  0.0000000  3
   5320   5318   5319   5332     1  0.0000000  1.0460000  1
   5320   5318   5319   5332     1  0.0000000  0.0000000  3
   5320   5318   5319   5322     1  0.0000000  0.6508444  3
   5320   5318   5337   5327     1  0.0000000  1.2552000  3
   5320   5318   5317   5324     1  0.0000000  1.0460000  1
   5320   5318   5317   5324     1  0.0000000  0.0000000  3
   5320   5318   5317   5321     1  0.0000000  0.6508444  3
   5321   5317   5318   5337     1  0.0000000  0.6508444  3
   5321   5317   5324   5326     1  0.0000000  0.6973333  3
   5321   5317   5315   5335     1  0.0000000  1.0460000  1
   5321   5317   5315   5335     1  0.0000000  0.0000000  3
   5321   5317   5315   5334     1  0.0000000  0.6508444  3
   5322   5319   5323   5333     1  0.0000000  0.6973333  3
   5322   5319   5318   5337     1  0.0000000  0.6508444  3
   5324   5317   5315   5334     1  0.0000000  1.0460000  1
   5324   5317   5315   5334     1  0.0000000  0.0000000  3
   5325   5314   5315   5334     1  0.0000000  0.6508444  3
   5328   5325   5330   5331     1  0.0000000  0.6973333  3
   5328   5325   5314   5332     1  0.0000000  1.0460000  1
   5328   5325   5314   5332     1  0.0000000  0.0000000  3
   5329   5325   5330   5331     1  0.0000000  0.6973333  3
   5329   5325   5314   5332     1  0.0000000  1.0460000  1
   5329   5325   5314   5332     1  0.0000000  0.0000000  3
   5332   5319   5323   5333     1  0.0000000  0.6973333  3
   5332   5314   5315   5334     1  0.0000000  1.0460000  1
   5332   5314   5315   5334     1  0.0000000  0.0000000  3
   5334   5315   5335   5336     1  0.0000000  0.6973333  3
   5339   5341   5343   5345     1  0.0000000  0.6508444  3
   5339   5341   5343   5346     1  0.0000000  0.6508444  3
   5340   5339   5341   5343     1  0.0000000  0.0000000  2
   5340   5339   5341   5342     1  0.0000000  0.0000000  2
   5340   5339   5341   5344     1  0.0000000  0.0000000  2
   5341   5343   5347   5412     1  0.0000000  0.6508444  3
   5342   5341   5343   5347     1  0.0000000  0.6508444  3
   5342   5341   5343   5345     1  0.0000000  0.6508444  3
   5342   5341   5343   5346     1  0.0000000  0.6508444  3
   5343   5347   5348   5357     1  0.0000000  0.6508444  3
   5343   5347   5348   5358     1  0.0000000  0.6508444  3
   5343   5347   5349   5350     1  0.0000000  0.6508444  3
   5343   5347   5349   5352     1  0.0000000  0.6508444  3
   5344   5341   5343   5347     1  0.0000000  0.6508444  3
   5344   5341   5343   5345     1  0.0000000  0.6508444  3
   5344   5341   5343   5346     1  0.0000000  0.6508444  3
   5345   5343   5347   5348     1  0.0000000  0.6508444  3
   5345   5343   5347   5349     1  0.0000000  0.6508444  3
   5345   5343   5347   5412     1  0.0000000  0.6508444  3
   5346   5343   5347   5348     1  0.0000000  0.6508444  3
   5346   5343   5347   5349     1  0.0000000  0.6508444  3
   5346   5343   5347   5412     1  0.0000000  0.6508444  3
   5347   5348   5359   5360     1  0.0000000  0.6508444  3
   5347   5348   5359   5361     1  0.0000000  0.6508444  3
   5347   5349   5351   5353     1  0.0000000  0.6508444  3
   5347   5349   5351   5354     1  0.0000000  0.6508444  3
   5348   5347   5349   5350     1  0.0000000  0.6508444  3
   5348   5347   5349   5352     1  0.0000000  0.6508444  3
   5349   5347   5348   5357     1  0.0000000  0.6508444  3
   5349   5347   5348   5358     1  0.0000000  0.6508444  3
   5350   5349   5347   5412     1  0.0000000  0.6508444  3
   5350   5349   5351   5355     1  0.0000000  0.6508444  3
   5350   5349   5351   5353     1  0.0000000  0.6508444  3
   5350   5349   5351   5354     1  0.0000000  0.6508444  3
   5351   5349   5347   5412     1  0.0000000  0.6508444  3
   5351   5355   5387   5377     1  180.0000771  6.0668000  2
   5351   5355   5387   5377     1  180.0000771  1.4644000  4
   5352   5349   5347   5412     1  0.0000000  0.6508444  3
   5352   5349   5351   5355     1  0.0000000  0.6508444  3
   5352   5349   5351   5353     1  0.0000000  0.6508444  3
   5352   5349   5351   5354     1  0.0000000  0.6508444  3
   5353   5351   5355   5356     1  0.0000000  3.3472000  1
   5353   5351   5355   5356     1  0.0000000  0.0000000  2
   5353   5351   5355   5356     1  180.0000771  0.3347200  3
   5353   5351   5355   5387     1  180.0000771  0.0000000  2
   5354   5351   5355   5356     1  0.0000000  3.3472000  1
   5354   5351   5355   5356     1  0.0000000  0.0000000  2
   5354   5351   5355   5356     1  180.0000771  0.3347200  3
   5354   5351   5355   5387     1  180.0000771  0.0000000  2
   5355   5387   5368   5370     1  0.0000000  1.2552000  3
   5356   5355   5387   5377     1  180.0000771  6.0668000  2
   5356   5355   5387   5377     1  180.0000771  1.4644000  4
   5357   5348   5347   5412     1  0.0000000  0.6508444  3
   5357   5348   5359   5362     1  0.0000000  0.6508444  3
   5357   5348   5359   5360     1  0.0000000  0.6508444  3
   5357   5348   5359   5361     1  0.0000000  0.6508444  3
   5358   5348   5347   5412     1  0.0000000  0.6508444  3
   5358   5348   5359   5362     1  0.0000000  0.6508444  3
   5358   5348   5359   5360     1  0.0000000  0.6508444  3
   5358   5348   5359   5361     1  0.0000000  0.6508444  3
   5359   5348   5347   5412     1  0.0000000  0.6508444  3
   5359   5362   5411   5401     1  180.0000771  6.0668000  2
   5359   5362   5411   5401     1  180.0000771  1.4644000  4
   5360   5359   5362   5363     1  0.0000000  3.3472000  1
   5360   5359   5362   5363     1  0.0000000  0.0000000  2
   5360   5359   5362   5363     1  180.0000771  0.3347200  3
   5360   5359   5362   5411     1  180.0000771  0.0000000  2
   5361   5359   5362   5363     1  0.0000000  3.3472000  1
   5361   5359   5362   5363     1  0.0000000  0.0000000  2
   5361   5359   5362   5363     1  180.0000771  0.3347200  3
   5361   5359   5362   5411     1  180.0000771  0.0000000  2
   5362   5411   5392   5394     1  0.0000000  1.2552000  3
   5363   5362   5411   5401     1  180.0000771  6.0668000  2
   5363   5362   5411   5401     1  180.0000771  1.4644000  4
   5364   5365   5367   5371     1  0.0000000  0.6508444  3
   5364   5365   5385   5386     1  0.0000000  1.0460000  1
   5364   5365   5385   5386     1  0.0000000  0.6694400  3
   5364   5375   5380   5381     1  0.0000000  1.0460000  1
   5364   5375   5380   5381     1  0.0000000  0.6694400  3
   5364   5382   5369   5372     1  0.0000000  1.6038667  3
   5365   5364   5375   5378     1  0.0000000  0.6508444  3
   5365   5364   5375   5379     1  0.0000000  0.6508444  3
   5365   5367   5368   5370     1  0.0000000  0.6508444  3
   5365   5367   5374   5376     1  0.0000000  1.0460000  1
   5365   5367   5374   5376     1  0.0000000  0.6694400  3
   5366   5364   5365   5367     1  0.0000000  0.6508444  3
   5366   5364   5365   5385     1  0.0000000  1.0460000  1
   5366   5364   5365   5385     1  0.0000000  0.0000000  3
   5366   5364   5365   5384     1  0.0000000  0.6508444  3
   5366   5364   5375   5380     1  0.0000000  1.0460000  1
   5366   5364   5375   5380     1  0.0000000  0.0000000  3
   5366   5364   5375   5378     1  0.0000000  0.6508444  3
   5366   5364   5375   5379     1  0.0000000  0.6508444  3
   5366   5364   5382   5369     1  0.0000000  1.6038667  3
   5367   5365   5385   5386     1  0.0000000  1.0460000  1
   5367   5365   5385   5386     1  0.0000000  0.6694400  3
   5367   5368   5369   5372     1  0.0000000  0.6508444  3
   5367   5368   5387   5377     1  0.0000000  1.2552000  3
   5368   5367   5365   5384     1  0.0000000  0.6508444  3
   5368   5367   5374   5376     1  0.0000000  1.0460000  1
   5368   5367   5374   5376     1  0.0000000  0.6694400  3
   5368   5369   5373   5383     1  0.0000000  1.0460000  1
   5368   5369   5373   5383     1  0.0000000  0.6694400  3
   5369   5368   5367   5371     1  0.0000000  0.6508444  3
   5369   5368   5387   5377     1  0.0000000  1.2552000  3
   5370   5368   5367   5374     1  0.0000000  1.0460000  1
   5370   5368   5367   5374     1  0.0000000  0.0000000  3
   5370   5368   5367   5371     1  0.0000000  0.6508444  3
   5370   5368   5369   5373     1  0.0000000  1.0460000  1
   5370   5368   5369   5373     1  0.0000000  0.0000000  3
   5370   5368   5369   5382     1  0.0000000  1.0460000  1
   5370   5368   5369   5382     1  0.0000000  0.0000000  3
   5370   5368   5369   5372     1  0.0000000  0.6508444  3
   5370   5368   5387   5377     1  0.0000000  1.2552000  3
   5371   5367   5365   5385     1  0.0000000  1.0460000  1
   5371   5367   5365   5385     1  0.0000000  0.0000000  3
   5371   5367   5365   5384     1  0.0000000  0.6508444  3
   5371   5367   5368   5387     1  0.0000000  0.6508444  3
   5371   5367   5374   5376     1  0.0000000  0.6973333  3
   5372   5369   5368   5387     1  0.0000000  0.6508444  3
   5372   5369   5373   5383     1  0.0000000  0.6973333  3
   5374   5367   5365   5384     1  0.0000000  1.0460000  1
   5374   5367   5365   5384     1  0.0000000  0.0000000  3
   5375   5364   5365   5384     1  0.0000000  0.6508444  3
   5378   5375   5364   5382     1  0.0000000  1.0460000  1
   5378   5375   5364   5382     1  0.0000000  0.0000000  3
   5378   5375   5380   5381     1  0.0000000  0.6973333  3
   5379   5375   5364   5382     1  0.0000000  1.0460000  1
   5379   5375   5364   5382     1  0.0000000  0.0000000  3
   5379   5375   5380   5381     1  0.0000000  0.6973333  3
   5382   5364   5365   5384     1  0.0000000  1.0460000  1
   5382   5364   5365   5384     1  0.0000000  0.0000000  3
   5382   5369   5373   5383     1  0.0000000  0.6973333  3
   5384   5365   5385   5386     1  0.0000000  0.6973333  3
   5388   5389   5391   5395     1  0.0000000  0.6508444  3
   5388   5389   5409   5410     1  0.0000000  1.0460000  1
   5388   5389   5409   5410     1  0.0000000  0.6694400  3
   5388   5399   5404   5405     1  0.0000000  1.0460000  1
   5388   5399   5404   5405     1  0.0000000  0.6694400  3
   5388   5406   5393   5396     1  0.0000000  1.6038667  3
   5389   5388   5399   5402     1  0.0000000  0.6508444  3
   5389   5388   5399   5403     1  0.0000000  0.6508444  3
   5389   5391   5392   5394     1  0.0000000  0.6508444  3
   5389   5391   5398   5400     1  0.0000000  1.0460000  1
   5389   5391   5398   5400     1  0.0000000  0.6694400  3
   5390   5388   5389   5391     1  0.0000000  0.6508444  3
   5390   5388   5389   5409     1  0.0000000  1.0460000  1
   5390   5388   5389   5409     1  0.0000000  0.0000000  3
   5390   5388   5389   5408     1  0.0000000  0.6508444  3
   5390   5388   5399   5404     1  0.0000000  1.0460000  1
   5390   5388   5399   5404     1  0.0000000  0.0000000  3
   5390   5388   5399   5402     1  0.0000000  0.6508444  3
   5390   5388   5399   5403     1  0.0000000  0.6508444  3
   5390   5388   5406   5393     1  0.0000000  1.6038667  3
   5391   5389   5409   5410     1  0.0000000  1.0460000  1
   5391   5389   5409   5410     1  0.0000000  0.6694400  3
   5391   5392   5393   5396     1  0.0000000  0.6508444  3
   5391   5392   5411   5401     1  0.0000000  1.2552000  3
   5392   5391   5389   5408     1  0.0000000  0.6508444  3
   5392   5391   5398   5400     1  0.0000000  1.0460000  1
   5392   5391   5398   5400     1  0.0000000  0.6694400  3
   5392   5393   5397   5407     1  0.0000000  1.0460000  1
   5392   5393   5397   5407     1  0.0000000  0.6694400  3
   5393   5392   5391   5395     1  0.0000000  0.6508444  3
   5393   5392   5411   5401     1  0.0000000  1.2552000  3
   5394   5392   5391   5398     1  0.0000000  1.0460000  1
   5394   5392   5391   5398     1  0.0000000  0.0000000  3
   5394   5392   5391   5395     1  0.0000000  0.6508444  3
   5394   5392   5393   5397     1  0.0000000  1.0460000  1
   5394   5392   5393   5397     1  0.0000000  0.0000000  3
   5394   5392   5393   5406     1  0.0000000  1.0460000  1
   5394   5392   5393   5406     1  0.0000000  0.0000000  3
   5394   5392   5393   5396     1  0.0000000  0.6508444  3
   5394   5392   5411   5401     1  0.0000000  1.2552000  3
   5395   5391   5389   5409     1  0.0000000  1.0460000  1
   5395   5391   5389   5409     1  0.0000000  0.0000000  3
   5395   5391   5389   5408     1  0.0000000  0.6508444  3
   5395   5391   5392   5411     1  0.0000000  0.6508444  3
   5395   5391   5398   5400     1  0.0000000  0.6973333  3
   5396   5393   5392   5411     1  0.0000000  0.6508444  3
   5396   5393   5397   5407     1  0.0000000  0.6973333  3
   5398   5391   5389   5408     1  0.0000000  1.0460000  1
   5398   5391   5389   5408     1  0.0000000  0.0000000  3
   5399   5388   5389   5408     1  0.0000000  0.6508444  3
   5402   5399   5388   5406     1  0.0000000  1.0460000  1
   5402   5399   5388   5406     1  0.0000000  0.0000000  3
   5402   5399   5404   5405     1  0.0000000  0.6973333  3
   5403   5399   5388   5406     1  0.0000000  1.0460000  1
   5403   5399   5388   5406     1  0.0000000  0.0000000  3
   5403   5399   5404   5405     1  0.0000000  0.6973333  3
   5406   5388   5389   5408     1  0.0000000  1.0460000  1
   5406   5388   5389   5408     1  0.0000000  0.0000000  3
   5406   5393   5397   5407     1  0.0000000  0.6973333  3
   5408   5389   5409   5410     1  0.0000000  0.6973333  3
   5413   5415   5417   5419     1  0.0000000  0.6508444  3
   5413   5415   5417   5420     1  0.0000000  0.6508444  3
   5414   5413   5415   5417     1  0.0000000  0.0000000  2
   5414   5413   5415   5416     1  0.0000000  0.0000000  2
   5414   5413   5415   5418     1  0.0000000  0.0000000  2
   5415   5417   5421   5486     1  0.0000000  0.6508444  3
   5416   5415   5417   5421     1  0.0000000  0.6508444  3
   5416   5415   5417   5419     1  0.0000000  0.6508444  3
   5416   5415   5417   5420     1  0.0000000  0.6508444  3
   5417   5421   5422   5431     1  0.0000000  0.6508444  3
   5417   5421   5422   5432     1  0.0000000  0.6508444  3
   5417   5421   5423   5424     1  0.0000000  0.6508444  3
   5417   5421   5423   5426     1  0.0000000  0.6508444  3
   5418   5415   5417   5421     1  0.0000000  0.6508444  3
   5418   5415   5417   5419     1  0.0000000  0.6508444  3
   5418   5415   5417   5420     1  0.0000000  0.6508444  3
   5419   5417   5421   5422     1  0.0000000  0.6508444  3
   5419   5417   5421   5423     1  0.0000000  0.6508444  3
   5419   5417   5421   5486     1  0.0000000  0.6508444  3
   5420   5417   5421   5422     1  0.0000000  0.6508444  3
   5420   5417   5421   5423     1  0.0000000  0.6508444  3
   5420   5417   5421   5486     1  0.0000000  0.6508444  3
   5421   5422   5433   5434     1  0.0000000  0.6508444  3
   5421   5422   5433   5435     1  0.0000000  0.6508444  3
   5421   5423   5425   5427     1  0.0000000  0.6508444  3
   5421   5423   5425   5428     1  0.0000000  0.6508444  3
   5422   5421   5423   5424     1  0.0000000  0.6508444  3
   5422   5421   5423   5426     1  0.0000000  0.6508444  3
   5423   5421   5422   5431     1  0.0000000  0.6508444  3
   5423   5421   5422   5432     1  0.0000000  0.6508444  3
   5424   5423   5425   5429     1  0.0000000  0.6508444  3
   5424   5423   5425   5427     1  0.0000000  0.6508444  3
   5424   5423   5425   5428     1  0.0000000  0.6508444  3
   5424   5423   5421   5486     1  0.0000000  0.6508444  3
   5425   5429   5461   5451     1  180.0000771  6.0668000  2
   5425   5429   5461   5451     1  180.0000771  1.4644000  4
   5425   5423   5421   5486     1  0.0000000  0.6508444  3
   5426   5423   5425   5429     1  0.0000000  0.6508444  3
   5426   5423   5425   5427     1  0.0000000  0.6508444  3
   5426   5423   5425   5428     1  0.0000000  0.6508444  3
   5426   5423   5421   5486     1  0.0000000  0.6508444  3
   5427   5425   5429   5430     1  0.0000000  3.3472000  1
   5427   5425   5429   5430     1  0.0000000  0.0000000  2
   5427   5425   5429   5430     1  180.0000771  0.3347200  3
   5427   5425   5429   5461     1  180.0000771  0.0000000  2
   5428   5425   5429   5430     1  0.0000000  3.3472000  1
   5428   5425   5429   5430     1  0.0000000  0.0000000  2
   5428   5425   5429   5430     1  180.0000771  0.3347200  3
   5428   5425   5429   5461     1  180.0000771  0.0000000  2
   5429   5461   5442   5444     1  0.0000000  1.2552000  3
   5430   5429   5461   5451     1  180.0000771  6.0668000  2
   5430   5429   5461   5451     1  180.0000771  1.4644000  4
   5431   5422   5433   5436     1  0.0000000  0.6508444  3
   5431   5422   5433   5434     1  0.0000000  0.6508444  3
   5431   5422   5433   5435     1  0.0000000  0.6508444  3
   5431   5422   5421   5486     1  0.0000000  0.6508444  3
   5432   5422   5433   5436     1  0.0000000  0.6508444  3
   5432   5422   5433   5434     1  0.0000000  0.6508444  3
   5432   5422   5433   5435     1  0.0000000  0.6508444  3
   5432   5422   5421   5486     1  0.0000000  0.6508444  3
   5433   5436   5485   5475     1  180.0000771  6.0668000  2
   5433   5436   5485   5475     1  180.0000771  1.4644000  4
   5433   5422   5421   5486     1  0.0000000  0.6508444  3
   5434   5433   5436   5437     1  0.0000000  3.3472000  1
   5434   5433   5436   5437     1  0.0000000  0.0000000  2
   5434   5433   5436   5437     1  180.0000771  0.3347200  3
   5434   5433   5436   5485     1  180.0000771  0.0000000  2
   5435   5433   5436   5437     1  0.0000000  3.3472000  1
   5435   5433   5436   5437     1  0.0000000  0.0000000  2
   5435   5433   5436   5437     1  180.0000771  0.3347200  3
   5435   5433   5436   5485     1  180.0000771  0.0000000  2
   5436   5485   5466   5468     1  0.0000000  1.2552000  3
   5437   5436   5485   5475     1  180.0000771  6.0668000  2
   5437   5436   5485   5475     1  180.0000771  1.4644000  4
   5438   5439   5441   5445     1  0.0000000  0.6508444  3
   5438   5439   5459   5460     1  0.0000000  1.0460000  1
   5438   5439   5459   5460     1  0.0000000  0.6694400  3
   5438   5449   5454   5455     1  0.0000000  1.0460000  1
   5438   5449   5454   5455     1  0.0000000  0.6694400  3
   5438   5456   5443   5446     1  0.0000000  1.6038667  3
   5439   5441   5442   5444     1  0.0000000  0.6508444  3
   5439   5441   5448   5450     1  0.0000000  1.0460000  1
   5439   5441   5448   5450     1  0.0000000  0.6694400  3
   5439   5438   5449   5452     1  0.0000000  0.6508444  3
   5439   5438   5449   5453     1  0.0000000  0.6508444  3
   5440   5438   5439   5441     1  0.0000000  0.6508444  3
   5440   5438   5439   5459     1  0.0000000  1.0460000  1
   5440   5438   5439   5459     1  0.0000000  0.0000000  3
   5440   5438   5439   5458     1  0.0000000  0.6508444  3
   5440   5438   5449   5454     1  0.0000000  1.0460000  1
   5440   5438   5449   5454     1  0.0000000  0.0000000  3
   5440   5438   5449   5452     1  0.0000000  0.6508444  3
   5440   5438   5449   5453     1  0.0000000  0.6508444  3
   5440   5438   5456   5443     1  0.0000000  1.6038667  3
   5441   5442   5443   5446     1  0.0000000  0.6508444  3
   5441   5442   5461   5451     1  0.0000000  1.2552000  3
   5441   5439   5459   5460     1  0.0000000  1.0460000  1
   5441   5439   5459   5460     1  0.0000000  0.6694400  3
   5442   5443   5447   5457     1  0.0000000  1.0460000  1
   5442   5443   5447   5457     1  0.0000000  0.6694400  3
   5442   5441   5448   5450     1  0.0000000  1.0460000  1
   5442   5441   5448   5450     1  0.0000000  0.6694400  3
   5442   5441   5439   5458     1  0.0000000  0.6508444  3
   5443   5442   5461   5451     1  0.0000000  1.2552000  3
   5443   5442   5441   5445     1  0.0000000  0.6508444  3
   5444   5442   5443   5447     1  0.0000000  1.0460000  1
   5444   5442   5443   5447     1  0.0000000  0.0000000  3
   5444   5442   5443   5456     1  0.0000000  1.0460000  1
   5444   5442   5443   5456     1  0.0000000  0.0000000  3
   5444   5442   5443   5446     1  0.0000000  0.6508444  3
   5444   5442   5461   5451     1  0.0000000  1.2552000  3
   5444   5442   5441   5448     1  0.0000000  1.0460000  1
   5444   5442   5441   5448     1  0.0000000  0.0000000  3
   5444   5442   5441   5445     1  0.0000000  0.6508444  3
   5445   5441   5442   5461     1  0.0000000  0.6508444  3
   5445   5441   5448   5450     1  0.0000000  0.6973333  3
   5445   5441   5439   5459     1  0.0000000  1.0460000  1
   5445   5441   5439   5459     1  0.0000000  0.0000000  3
   5445   5441   5439   5458     1  0.0000000  0.6508444  3
   5446   5443   5447   5457     1  0.0000000  0.6973333  3
   5446   5443   5442   5461     1  0.0000000  0.6508444  3
   5448   5441   5439   5458     1  0.0000000  1.0460000  1
   5448   5441   5439   5458     1  0.0000000  0.0000000  3
   5449   5438   5439   5458     1  0.0000000  0.6508444  3
   5452   5449   5454   5455     1  0.0000000  0.6973333  3
   5452   5449   5438   5456     1  0.0000000  1.0460000  1
   5452   5449   5438   5456     1  0.0000000  0.0000000  3
   5453   5449   5454   5455     1  0.0000000  0.6973333  3
   5453   5449   5438   5456     1  0.0000000  1.0460000  1
   5453   5449   5438   5456     1  0.0000000  0.0000000  3
   5456   5443   5447   5457     1  0.0000000  0.6973333  3
   5456   5438   5439   5458     1  0.0000000  1.0460000  1
   5456   5438   5439   5458     1  0.0000000  0.0000000  3
   5458   5439   5459   5460     1  0.0000000  0.6973333  3
   5462   5463   5465   5469     1  0.0000000  0.6508444  3
   5462   5463   5483   5484     1  0.0000000  1.0460000  1
   5462   5463   5483   5484     1  0.0000000  0.6694400  3
   5462   5473   5478   5479     1  0.0000000  1.0460000  1
   5462   5473   5478   5479     1  0.0000000  0.6694400  3
   5462   5480   5467   5470     1  0.0000000  1.6038667  3
   5463   5465   5466   5468     1  0.0000000  0.6508444  3
   5463   5465   5472   5474     1  0.0000000  1.0460000  1
   5463   5465   5472   5474     1  0.0000000  0.6694400  3
   5463   5462   5473   5476     1  0.0000000  0.6508444  3
   5463   5462   5473   5477     1  0.0000000  0.6508444  3
   5464   5462   5463   5465     1  0.0000000  0.6508444  3
   5464   5462   5463   5483     1  0.0000000  1.0460000  1
   5464   5462   5463   5483     1  0.0000000  0.0000000  3
   5464   5462   5463   5482     1  0.0000000  0.6508444  3
   5464   5462   5473   5478     1  0.0000000  1.0460000  1
   5464   5462   5473   5478     1  0.0000000  0.0000000  3
   5464   5462   5473   5476     1  0.0000000  0.6508444  3
   5464   5462   5473   5477     1  0.0000000  0.6508444  3
   5464   5462   5480   5467     1  0.0000000  1.6038667  3
   5465   5466   5467   5470     1  0.0000000  0.6508444  3
   5465   5466   5485   5475     1  0.0000000  1.2552000  3
   5465   5463   5483   5484     1  0.0000000  1.0460000  1
   5465   5463   5483   5484     1  0.0000000  0.6694400  3
   5466   5467   5471   5481     1  0.0000000  1.0460000  1
   5466   5467   5471   5481     1  0.0000000  0.6694400  3
   5466   5465   5472   5474     1  0.0000000  1.0460000  1
   5466   5465   5472   5474     1  0.0000000  0.6694400  3
   5466   5465   5463   5482     1  0.0000000  0.6508444  3
   5467   5466   5485   5475     1  0.0000000  1.2552000  3
   5467   5466   5465   5469     1  0.0000000  0.6508444  3
   5468   5466   5467   5471     1  0.0000000  1.0460000  1
   5468   5466   5467   5471     1  0.0000000  0.0000000  3
   5468   5466   5467   5480     1  0.0000000  1.0460000  1
   5468   5466   5467   5480     1  0.0000000  0.0000000  3
   5468   5466   5467   5470     1  0.0000000  0.6508444  3
   5468   5466   5485   5475     1  0.0000000  1.2552000  3
   5468   5466   5465   5472     1  0.0000000  1.0460000  1
   5468   5466   5465   5472     1  0.0000000  0.0000000  3
   5468   5466   5465   5469     1  0.0000000  0.6508444  3
   5469   5465   5466   5485     1  0.0000000  0.6508444  3
   5469   5465   5472   5474     1  0.0000000  0.6973333  3
   5469   5465   5463   5483     1  0.0000000  1.0460000  1
   5469   5465   5463   5483     1  0.0000000  0.0000000  3
   5469   5465   5463   5482     1  0.0000000  0.6508444  3
   5470   5467   5471   5481     1  0.0000000  0.6973333  3
   5470   5467   5466   5485     1  0.0000000  0.6508444  3
   5472   5465   5463   5482     1  0.0000000  1.0460000  1
   5472   5465   5463   5482     1  0.0000000  0.0000000  3
   5473   5462   5463   5482     1  0.0000000  0.6508444  3
   5476   5473   5478   5479     1  0.0000000  0.6973333  3
   5476   5473   5462   5480     1  0.0000000  1.0460000  1
   5476   5473   5462   5480     1  0.0000000  0.0000000  3
   5477   5473   5478   5479     1  0.0000000  0.6973333  3
   5477   5473   5462   5480     1  0.0000000  1.0460000  1
   5477   5473   5462   5480     1  0.0000000  0.0000000  3
   5480   5467   5471   5481     1  0.0000000  0.6973333  3
   5480   5462   5463   5482     1  0.0000000  1.0460000  1
   5480   5462   5463   5482     1  0.0000000  0.0000000  3
   5482   5463   5483   5484     1  0.0000000  0.6973333  3
   5487   5489   5491   5493     1  0.0000000  0.6508444  3
   5487   5489   5491   5494     1  0.0000000  0.6508444  3
   5488   5487   5489   5491     1  0.0000000  0.0000000  2
   5488   5487   5489   5490     1  0.0000000  0.0000000  2
   5488   5487   5489   5492     1  0.0000000  0.0000000  2
   5489   5491   5495   5560     1  0.0000000  0.6508444  3
   5490   5489   5491   5495     1  0.0000000  0.6508444  3
   5490   5489   5491   5493     1  0.0000000  0.6508444  3
   5490   5489   5491   5494     1  0.0000000  0.6508444  3
   5491   5495   5496   5505     1  0.0000000  0.6508444  3
   5491   5495   5496   5506     1  0.0000000  0.6508444  3
   5491   5495   5497   5498     1  0.0000000  0.6508444  3
   5491   5495   5497   5500     1  0.0000000  0.6508444  3
   5492   5489   5491   5495     1  0.0000000  0.6508444  3
   5492   5489   5491   5493     1  0.0000000  0.6508444  3
   5492   5489   5491   5494     1  0.0000000  0.6508444  3
   5493   5491   5495   5496     1  0.0000000  0.6508444  3
   5493   5491   5495   5497     1  0.0000000  0.6508444  3
   5493   5491   5495   5560     1  0.0000000  0.6508444  3
   5494   5491   5495   5496     1  0.0000000  0.6508444  3
   5494   5491   5495   5497     1  0.0000000  0.6508444  3
   5494   5491   5495   5560     1  0.0000000  0.6508444  3
   5495   5496   5507   5508     1  0.0000000  0.6508444  3
   5495   5496   5507   5509     1  0.0000000  0.6508444  3
   5495   5497   5499   5501     1  0.0000000  0.6508444  3
   5495   5497   5499   5502     1  0.0000000  0.6508444  3
   5496   5495   5497   5498     1  0.0000000  0.6508444  3
   5496   5495   5497   5500     1  0.0000000  0.6508444  3
   5497   5495   5496   5505     1  0.0000000  0.6508444  3
   5497   5495   5496   5506     1  0.0000000  0.6508444  3
   5498   5497   5495   5560     1  0.0000000  0.6508444  3
   5498   5497   5499   5503     1  0.0000000  0.6508444  3
   5498   5497   5499   5501     1  0.0000000  0.6508444  3
   5498   5497   5499   5502     1  0.0000000  0.6508444  3
   5499   5497   5495   5560     1  0.0000000  0.6508444  3
   5499   5503   5535   5525     1  180.0000771  6.0668000  2
   5499   5503   5535   5525     1  180.0000771  1.4644000  4
   5500   5497   5495   5560     1  0.0000000  0.6508444  3
   5500   5497   5499   5503     1  0.0000000  0.6508444  3
   5500   5497   5499   5501     1  0.0000000  0.6508444  3
   5500   5497   5499   5502     1  0.0000000  0.6508444  3
   5501   5499   5503   5504     1  0.0000000  3.3472000  1
   5501   5499   5503   5504     1  0.0000000  0.0000000  2
   5501   5499   5503   5504     1  180.0000771  0.3347200  3
   5501   5499   5503   5535     1  180.0000771  0.0000000  2
   5502   5499   5503   5504     1  0.0000000  3.3472000  1
   5502   5499   5503   5504     1  0.0000000  0.0000000  2
   5502   5499   5503   5504     1  180.0000771  0.3347200  3
   5502   5499   5503   5535     1  180.0000771  0.0000000  2
   5503   5535   5516   5518     1  0.0000000  1.2552000  3
   5504   5503   5535   5525     1  180.0000771  6.0668000  2
   5504   5503   5535   5525     1  180.0000771  1.4644000  4
   5505   5496   5495   5560     1  0.0000000  0.6508444  3
   5505   5496   5507   5510     1  0.0000000  0.6508444  3
   5505   5496   5507   5508     1  0.0000000  0.6508444  3
   5505   5496   5507   5509     1  0.0000000  0.6508444  3
   5506   5496   5495   5560     1  0.0000000  0.6508444  3
   5506   5496   5507   5510     1  0.0000000  0.6508444  3
   5506   5496   5507   5508     1  0.0000000  0.6508444  3
   5506   5496   5507   5509     1  0.0000000  0.6508444  3
   5507   5496   5495   5560     1  0.0000000  0.6508444  3
   5507   5510   5559   5549     1  180.0000771  6.0668000  2
   5507   5510   5559   5549     1  180.0000771  1.4644000  4
   5508   5507   5510   5511     1  0.0000000  3.3472000  1
   5508   5507   5510   5511     1  0.0000000  0.0000000  2
   5508   5507   5510   5511     1  180.0000771  0.3347200  3
   5508   5507   5510   5559     1  180.0000771  0.0000000  2
   5509   5507   5510   5511     1  0.0000000  3.3472000  1
   5509   5507   5510   5511     1  0.0000000  0.0000000  2
   5509   5507   5510   5511     1  180.0000771  0.3347200  3
   5509   5507   5510   5559     1  180.0000771  0.0000000  2
   5510   5559   5540   5542     1  0.0000000  1.2552000  3
   5511   5510   5559   5549     1  180.0000771  6.0668000  2
   5511   5510   5559   5549     1  180.0000771  1.4644000  4
   5512   5513   5515   5519     1  0.0000000  0.6508444  3
   5512   5513   5533   5534     1  0.0000000  1.0460000  1
   5512   5513   5533   5534     1  0.0000000  0.6694400  3
   5512   5523   5528   5529     1  0.0000000  1.0460000  1
   5512   5523   5528   5529     1  0.0000000  0.6694400  3
   5512   5530   5517   5520     1  0.0000000  1.6038667  3
   5513   5512   5523   5526     1  0.0000000  0.6508444  3
   5513   5512   5523   5527     1  0.0000000  0.6508444  3
   5513   5515   5516   5518     1  0.0000000  0.6508444  3
   5513   5515   5522   5524     1  0.0000000  1.0460000  1
   5513   5515   5522   5524     1  0.0000000  0.6694400  3
   5514   5512   5513   5515     1  0.0000000  0.6508444  3
   5514   5512   5513   5533     1  0.0000000  1.0460000  1
   5514   5512   5513   5533     1  0.0000000  0.0000000  3
   5514   5512   5513   5532     1  0.0000000  0.6508444  3
   5514   5512   5523   5528     1  0.0000000  1.0460000  1
   5514   5512   5523   5528     1  0.0000000  0.0000000  3
   5514   5512   5523   5526     1  0.0000000  0.6508444  3
   5514   5512   5523   5527     1  0.0000000  0.6508444  3
   5514   5512   5530   5517     1  0.0000000  1.6038667  3
   5515   5513   5533   5534     1  0.0000000  1.0460000  1
   5515   5513   5533   5534     1  0.0000000  0.6694400  3
   5515   5516   5517   5520     1  0.0000000  0.6508444  3
   5515   5516   5535   5525     1  0.0000000  1.2552000  3
   5516   5515   5513   5532     1  0.0000000  0.6508444  3
   5516   5515   5522   5524     1  0.0000000  1.0460000  1
   5516   5515   5522   5524     1  0.0000000  0.6694400  3
   5516   5517   5521   5531     1  0.0000000  1.0460000  1
   5516   5517   5521   5531     1  0.0000000  0.6694400  3
   5517   5516   5515   5519     1  0.0000000  0.6508444  3
   5517   5516   5535   5525     1  0.0000000  1.2552000  3
   5518   5516   5515   5522     1  0.0000000  1.0460000  1
   5518   5516   5515   5522     1  0.0000000  0.0000000  3
   5518   5516   5515   5519     1  0.0000000  0.6508444  3
   5518   5516   5517   5521     1  0.0000000  1.0460000  1
   5518   5516   5517   5521     1  0.0000000  0.0000000  3
   5518   5516   5517   5530     1  0.0000000  1.0460000  1
   5518   5516   5517   5530     1  0.0000000  0.0000000  3
   5518   5516   5517   5520     1  0.0000000  0.6508444  3
   5518   5516   5535   5525     1  0.0000000  1.2552000  3
   5519   5515   5513   5533     1  0.0000000  1.0460000  1
   5519   5515   5513   5533     1  0.0000000  0.0000000  3
   5519   5515   5513   5532     1  0.0000000  0.6508444  3
   5519   5515   5516   5535     1  0.0000000  0.6508444  3
   5519   5515   5522   5524     1  0.0000000  0.6973333  3
   5520   5517   5516   5535     1  0.0000000  0.6508444  3
   5520   5517   5521   5531     1  0.0000000  0.6973333  3
   5522   5515   5513   5532     1  0.0000000  1.0460000  1
   5522   5515   5513   5532     1  0.0000000  0.0000000  3
   5523   5512   5513   5532     1  0.0000000  0.6508444  3
   5526   5523   5512   5530     1  0.0000000  1.0460000  1
   5526   5523   5512   5530     1  0.0000000  0.0000000  3
   5526   5523   5528   5529     1  0.0000000  0.6973333  3
   5527   5523   5512   5530     1  0.0000000  1.0460000  1
   5527   5523   5512   5530     1  0.0000000  0.0000000  3
   5527   5523   5528   5529     1  0.0000000  0.6973333  3
   5530   5512   5513   5532     1  0.0000000  1.0460000  1
   5530   5512   5513   5532     1  0.0000000  0.0000000  3
   5530   5517   5521   5531     1  0.0000000  0.6973333  3
   5532   5513   5533   5534     1  0.0000000  0.6973333  3
   5536   5537   5539   5543     1  0.0000000  0.6508444  3
   5536   5537   5557   5558     1  0.0000000  1.0460000  1
   5536   5537   5557   5558     1  0.0000000  0.6694400  3
   5536   5547   5552   5553     1  0.0000000  1.0460000  1
   5536   5547   5552   5553     1  0.0000000  0.6694400  3
   5536   5554   5541   5544     1  0.0000000  1.6038667  3
   5537   5536   5547   5550     1  0.0000000  0.6508444  3
   5537   5536   5547   5551     1  0.0000000  0.6508444  3
   5537   5539   5540   5542     1  0.0000000  0.6508444  3
   5537   5539   5546   5548     1  0.0000000  1.0460000  1
   5537   5539   5546   5548     1  0.0000000  0.6694400  3
   5538   5536   5537   5539     1  0.0000000  0.6508444  3
   5538   5536   5537   5557     1  0.0000000  1.0460000  1
   5538   5536   5537   5557     1  0.0000000  0.0000000  3
   5538   5536   5537   5556     1  0.0000000  0.6508444  3
   5538   5536   5547   5552     1  0.0000000  1.0460000  1
   5538   5536   5547   5552     1  0.0000000  0.0000000  3
   5538   5536   5547   5550     1  0.0000000  0.6508444  3
   5538   5536   5547   5551     1  0.0000000  0.6508444  3
   5538   5536   5554   5541     1  0.0000000  1.6038667  3
   5539   5537   5557   5558     1  0.0000000  1.0460000  1
   5539   5537   5557   5558     1  0.0000000  0.6694400  3
   5539   5540   5541   5544     1  0.0000000  0.6508444  3
   5539   5540   5559   5549     1  0.0000000  1.2552000  3
   5540   5539   5537   5556     1  0.0000000  0.6508444  3
   5540   5539   5546   5548     1  0.0000000  1.0460000  1
   5540   5539   5546   5548     1  0.0000000  0.6694400  3
   5540   5541   5545   5555     1  0.0000000  1.0460000  1
   5540   5541   5545   5555     1  0.0000000  0.6694400  3
   5541   5540   5539   5543     1  0.0000000  0.6508444  3
   5541   5540   5559   5549     1  0.0000000  1.2552000  3
   5542   5540   5539   5546     1  0.0000000  1.0460000  1
   5542   5540   5539   5546     1  0.0000000  0.0000000  3
   5542   5540   5539   5543     1  0.0000000  0.6508444  3
   5542   5540   5541   5545     1  0.0000000  1.0460000  1
   5542   5540   5541   5545     1  0.0000000  0.0000000  3
   5542   5540   5541   5554     1  0.0000000  1.0460000  1
   5542   5540   5541   5554     1  0.0000000  0.0000000  3
   5542   5540   5541   5544     1  0.0000000  0.6508444  3
   5542   5540   5559   5549     1  0.0000000  1.2552000  3
   5543   5539   5537   5557     1  0.0000000  1.0460000  1
   5543   5539   5537   5557     1  0.0000000  0.0000000  3
   5543   5539   5537   5556     1  0.0000000  0.6508444  3
   5543   5539   5540   5559     1  0.0000000  0.6508444  3
   5543   5539   5546   5548     1  0.0000000  0.6973333  3
   5544   5541   5540   5559     1  0.0000000  0.6508444  3
   5544   5541   5545   5555     1  0.0000000  0.6973333  3
   5546   5539   5537   5556     1  0.0000000  1.0460000  1
   5546   5539   5537   5556     1  0.0000000  0.0000000  3
   5547   5536   5537   5556     1  0.0000000  0.6508444  3
   5550   5547   5536   5554     1  0.0000000  1.0460000  1
   5550   5547   5536   5554     1  0.0000000  0.0000000  3
   5550   5547   5552   5553     1  0.0000000  0.6973333  3
   5551   5547   5536   5554     1  0.0000000  1.0460000  1
   5551   5547   5536   5554     1  0.0000000  0.0000000  3
   5551   5547   5552   5553     1  0.0000000  0.6973333  3
   5554   5536   5537   5556     1  0.0000000  1.0460000  1
   5554   5536   5537   5556     1  0.0000000  0.0000000  3
   5554   5541   5545   5555     1  0.0000000  0.6973333  3
   5556   5537   5557   5558     1  0.0000000  0.6973333  3
   5561   5563   5565   5567     1  0.0000000  0.6508444  3
   5561   5563   5565   5568     1  0.0000000  0.6508444  3
   5562   5561   5563   5565     1  0.0000000  0.0000000  2
   5562   5561   5563   5564     1  0.0000000  0.0000000  2
   5562   5561   5563   5566     1  0.0000000  0.0000000  2
   5563   5565   5569   5634     1  0.0000000  0.6508444  3
   5564   5563   5565   5569     1  0.0000000  0.6508444  3
   5564   5563   5565   5567     1  0.0000000  0.6508444  3
   5564   5563   5565   5568     1  0.0000000  0.6508444  3
   5565   5569   5570   5579     1  0.0000000  0.6508444  3
   5565   5569   5570   5580     1  0.0000000  0.6508444  3
   5565   5569   5571   5572     1  0.0000000  0.6508444  3
   5565   5569   5571   5574     1  0.0000000  0.6508444  3
   5566   5563   5565   5569     1  0.0000000  0.6508444  3
   5566   5563   5565   5567     1  0.0000000  0.6508444  3
   5566   5563   5565   5568     1  0.0000000  0.6508444  3
   5567   5565   5569   5570     1  0.0000000  0.6508444  3
   5567   5565   5569   5571     1  0.0000000  0.6508444  3
   5567   5565   5569   5634     1  0.0000000  0.6508444  3
   5568   5565   5569   5570     1  0.0000000  0.6508444  3
   5568   5565   5569   5571     1  0.0000000  0.6508444  3
   5568   5565   5569   5634     1  0.0000000  0.6508444  3
   5569   5570   5581   5582     1  0.0000000  0.6508444  3
   5569   5570   5581   5583     1  0.0000000  0.6508444  3
   5569   5571   5573   5575     1  0.0000000  0.6508444  3
   5569   5571   5573   5576     1  0.0000000  0.6508444  3
   5570   5569   5571   5572     1  0.0000000  0.6508444  3
   5570   5569   5571   5574     1  0.0000000  0.6508444  3
   5571   5569   5570   5579     1  0.0000000  0.6508444  3
   5571   5569   5570   5580     1  0.0000000  0.6508444  3
   5572   5571   5573   5577     1  0.0000000  0.6508444  3
   5572   5571   5573   5575     1  0.0000000  0.6508444  3
   5572   5571   5573   5576     1  0.0000000  0.6508444  3
   5572   5571   5569   5634     1  0.0000000  0.6508444  3
   5573   5577   5609   5599     1  180.0000771  6.0668000  2
   5573   5577   5609   5599     1  180.0000771  1.4644000  4
   5573   5571   5569   5634     1  0.0000000  0.6508444  3
   5574   5571   5573   5577     1  0.0000000  0.6508444  3
   5574   5571   5573   5575     1  0.0000000  0.6508444  3
   5574   5571   5573   5576     1  0.0000000  0.6508444  3
   5574   5571   5569   5634     1  0.0000000  0.6508444  3
   5575   5573   5577   5578     1  0.0000000  3.3472000  1
   5575   5573   5577   5578     1  0.0000000  0.0000000  2
   5575   5573   5577   5578     1  180.0000771  0.3347200  3
   5575   5573   5577   5609     1  180.0000771  0.0000000  2
   5576   5573   5577   5578     1  0.0000000  3.3472000  1
   5576   5573   5577   5578     1  0.0000000  0.0000000  2
   5576   5573   5577   5578     1  180.0000771  0.3347200  3
   5576   5573   5577   5609     1  180.0000771  0.0000000  2
   5577   5609   5590   5592     1  0.0000000  1.2552000  3
   5578   5577   5609   5599     1  180.0000771  6.0668000  2
   5578   5577   5609   5599     1  180.0000771  1.4644000  4
   5579   5570   5581   5584     1  0.0000000  0.6508444  3
   5579   5570   5581   5582     1  0.0000000  0.6508444  3
   5579   5570   5581   5583     1  0.0000000  0.6508444  3
   5579   5570   5569   5634     1  0.0000000  0.6508444  3
   5580   5570   5581   5584     1  0.0000000  0.6508444  3
   5580   5570   5581   5582     1  0.0000000  0.6508444  3
   5580   5570   5581   5583     1  0.0000000  0.6508444  3
   5580   5570   5569   5634     1  0.0000000  0.6508444  3
   5581   5584   5633   5623     1  180.0000771  6.0668000  2
   5581   5584   5633   5623     1  180.0000771  1.4644000  4
   5581   5570   5569   5634     1  0.0000000  0.6508444  3
   5582   5581   5584   5585     1  0.0000000  3.3472000  1
   5582   5581   5584   5585     1  0.0000000  0.0000000  2
   5582   5581   5584   5585     1  180.0000771  0.3347200  3
   5582   5581   5584   5633     1  180.0000771  0.0000000  2
   5583   5581   5584   5585     1  0.0000000  3.3472000  1
   5583   5581   5584   5585     1  0.0000000  0.0000000  2
   5583   5581   5584   5585     1  180.0000771  0.3347200  3
   5583   5581   5584   5633     1  180.0000771  0.0000000  2
   5584   5633   5614   5616     1  0.0000000  1.2552000  3
   5585   5584   5633   5623     1  180.0000771  6.0668000  2
   5585   5584   5633   5623     1  180.0000771  1.4644000  4
   5586   5587   5589   5593     1  0.0000000  0.6508444  3
   5586   5587   5607   5608     1  0.0000000  1.0460000  1
   5586   5587   5607   5608     1  0.0000000  0.6694400  3
   5586   5597   5602   5603     1  0.0000000  1.0460000  1
   5586   5597   5602   5603     1  0.0000000  0.6694400  3
   5586   5604   5591   5594     1  0.0000000  1.6038667  3
   5587   5589   5590   5592     1  0.0000000  0.6508444  3
   5587   5589   5596   5598     1  0.0000000  1.0460000  1
   5587   5589   5596   5598     1  0.0000000  0.6694400  3
   5587   5586   5597   5600     1  0.0000000  0.6508444  3
   5587   5586   5597   5601     1  0.0000000  0.6508444  3
   5588   5586   5587   5589     1  0.0000000  0.6508444  3
   5588   5586   5587   5607     1  0.0000000  1.0460000  1
   5588   5586   5587   5607     1  0.0000000  0.0000000  3
   5588   5586   5587   5606     1  0.0000000  0.6508444  3
   5588   5586   5597   5602     1  0.0000000  1.0460000  1
   5588   5586   5597   5602     1  0.0000000  0.0000000  3
   5588   5586   5597   5600     1  0.0000000  0.6508444  3
   5588   5586   5597   5601     1  0.0000000  0.6508444  3
   5588   5586   5604   5591     1  0.0000000  1.6038667  3
   5589   5590   5591   5594     1  0.0000000  0.6508444  3
   5589   5590   5609   5599     1  0.0000000  1.2552000  3
   5589   5587   5607   5608     1  0.0000000  1.0460000  1
   5589   5587   5607   5608     1  0.0000000  0.6694400  3
   5590   5591   5595   5605     1  0.0000000  1.0460000  1
   5590   5591   5595   5605     1  0.0000000  0.6694400  3
   5590   5589   5596   5598     1  0.0000000  1.0460000  1
   5590   5589   5596   5598     1  0.0000000  0.6694400  3
   5590   5589   5587   5606     1  0.0000000  0.6508444  3
   5591   5590   5609   5599     1  0.0000000  1.2552000  3
   5591   5590   5589   5593     1  0.0000000  0.6508444  3
   5592   5590   5591   5595     1  0.0000000  1.0460000  1
   5592   5590   5591   5595     1  0.0000000  0.0000000  3
   5592   5590   5591   5604     1  0.0000000  1.0460000  1
   5592   5590   5591   5604     1  0.0000000  0.0000000  3
   5592   5590   5591   5594     1  0.0000000  0.6508444  3
   5592   5590   5609   5599     1  0.0000000  1.2552000  3
   5592   5590   5589   5596     1  0.0000000  1.0460000  1
   5592   5590   5589   5596     1  0.0000000  0.0000000  3
   5592   5590   5589   5593     1  0.0000000  0.6508444  3
   5593   5589   5590   5609     1  0.0000000  0.6508444  3
   5593   5589   5596   5598     1  0.0000000  0.6973333  3
   5593   5589   5587   5607     1  0.0000000  1.0460000  1
   5593   5589   5587   5607     1  0.0000000  0.0000000  3
   5593   5589   5587   5606     1  0.0000000  0.6508444  3
   5594   5591   5595   5605     1  0.0000000  0.6973333  3
   5594   5591   5590   5609     1  0.0000000  0.6508444  3
   5596   5589   5587   5606     1  0.0000000  1.0460000  1
   5596   5589   5587   5606     1  0.0000000  0.0000000  3
   5597   5586   5587   5606     1  0.0000000  0.6508444  3
   5600   5597   5602   5603     1  0.0000000  0.6973333  3
   5600   5597   5586   5604     1  0.0000000  1.0460000  1
   5600   5597   5586   5604     1  0.0000000  0.0000000  3
   5601   5597   5602   5603     1  0.0000000  0.6973333  3
   5601   5597   5586   5604     1  0.0000000  1.0460000  1
   5601   5597   5586   5604     1  0.0000000  0.0000000  3
   5604   5591   5595   5605     1  0.0000000  0.6973333  3
   5604   5586   5587   5606     1  0.0000000  1.0460000  1
   5604   5586   5587   5606     1  0.0000000  0.0000000  3
   5606   5587   5607   5608     1  0.0000000  0.6973333  3
   5610   5611   5613   5617     1  0.0000000  0.6508444  3
   5610   5611   5631   5632     1  0.0000000  1.0460000  1
   5610   5611   5631   5632     1  0.0000000  0.6694400  3
   5610   5621   5626   5627     1  0.0000000  1.0460000  1
   5610   5621   5626   5627     1  0.0000000  0.6694400  3
   5610   5628   5615   5618     1  0.0000000  1.6038667  3
   5611   5613   5614   5616     1  0.0000000  0.6508444  3
   5611   5613   5620   5622     1  0.0000000  1.0460000  1
   5611   5613   5620   5622     1  0.0000000  0.6694400  3
   5611   5610   5621   5624     1  0.0000000  0.6508444  3
   5611   5610   5621   5625     1  0.0000000  0.6508444  3
   5612   5610   5611   5613     1  0.0000000  0.6508444  3
   5612   5610   5611   5631     1  0.0000000  1.0460000  1
   5612   5610   5611   5631     1  0.0000000  0.0000000  3
   5612   5610   5611   5630     1  0.0000000  0.6508444  3
   5612   5610   5621   5626     1  0.0000000  1.0460000  1
   5612   5610   5621   5626     1  0.0000000  0.0000000  3
   5612   5610   5621   5624     1  0.0000000  0.6508444  3
   5612   5610   5621   5625     1  0.0000000  0.6508444  3
   5612   5610   5628   5615     1  0.0000000  1.6038667  3
   5613   5614   5615   5618     1  0.0000000  0.6508444  3
   5613   5614   5633   5623     1  0.0000000  1.2552000  3
   5613   5611   5631   5632     1  0.0000000  1.0460000  1
   5613   5611   5631   5632     1  0.0000000  0.6694400  3
   5614   5615   5619   5629     1  0.0000000  1.0460000  1
   5614   5615   5619   5629     1  0.0000000  0.6694400  3
   5614   5613   5620   5622     1  0.0000000  1.0460000  1
   5614   5613   5620   5622     1  0.0000000  0.6694400  3
   5614   5613   5611   5630     1  0.0000000  0.6508444  3
   5615   5614   5633   5623     1  0.0000000  1.2552000  3
   5615   5614   5613   5617     1  0.0000000  0.6508444  3
   5616   5614   5615   5619     1  0.0000000  1.0460000  1
   5616   5614   5615   5619     1  0.0000000  0.0000000  3
   5616   5614   5615   5628     1  0.0000000  1.0460000  1
   5616   5614   5615   5628     1  0.0000000  0.0000000  3
   5616   5614   5615   5618     1  0.0000000  0.6508444  3
   5616   5614   5633   5623     1  0.0000000  1.2552000  3
   5616   5614   5613   5620     1  0.0000000  1.0460000  1
   5616   5614   5613   5620     1  0.0000000  0.0000000  3
   5616   5614   5613   5617     1  0.0000000  0.6508444  3
   5617   5613   5614   5633     1  0.0000000  0.6508444  3
   5617   5613   5620   5622     1  0.0000000  0.6973333  3
   5617   5613   5611   5631     1  0.0000000  1.0460000  1
   5617   5613   5611   5631     1  0.0000000  0.0000000  3
   5617   5613   5611   5630     1  0.0000000  0.6508444  3
   5618   5615   5619   5629     1  0.0000000  0.6973333  3
   5618   5615   5614   5633     1  0.0000000  0.6508444  3
   5620   5613   5611   5630     1  0.0000000  1.0460000  1
   5620   5613   5611   5630     1  0.0000000  0.0000000  3
   5621   5610   5611   5630     1  0.0000000  0.6508444  3
   5624   5621   5626   5627     1  0.0000000  0.6973333  3
   5624   5621   5610   5628     1  0.0000000  1.0460000  1
   5624   5621   5610   5628     1  0.0000000  0.0000000  3
   5625   5621   5626   5627     1  0.0000000  0.6973333  3
   5625   5621   5610   5628     1  0.0000000  1.0460000  1
   5625   5621   5610   5628     1  0.0000000  0.0000000  3
   5628   5615   5619   5629     1  0.0000000  0.6973333  3
   5628   5610   5611   5630     1  0.0000000  1.0460000  1
   5628   5610   5611   5630     1  0.0000000  0.0000000  3
   5630   5611   5631   5632     1  0.0000000  0.6973333  3
   5635   5637   5639   5641     1  0.0000000  0.6508444  3
   5635   5637   5639   5642     1  0.0000000  0.6508444  3
   5636   5635   5637   5639     1  0.0000000  0.0000000  2
   5636   5635   5637   5638     1  0.0000000  0.0000000  2
   5636   5635   5637   5640     1  0.0000000  0.0000000  2
   5637   5639   5643   5708     1  0.0000000  0.6508444  3
   5638   5637   5639   5643     1  0.0000000  0.6508444  3
   5638   5637   5639   5641     1  0.0000000  0.6508444  3
   5638   5637   5639   5642     1  0.0000000  0.6508444  3
   5639   5643   5644   5653     1  0.0000000  0.6508444  3
   5639   5643   5644   5654     1  0.0000000  0.6508444  3
   5639   5643   5645   5646     1  0.0000000  0.6508444  3
   5639   5643   5645   5648     1  0.0000000  0.6508444  3
   5640   5637   5639   5643     1  0.0000000  0.6508444  3
   5640   5637   5639   5641     1  0.0000000  0.6508444  3
   5640   5637   5639   5642     1  0.0000000  0.6508444  3
   5641   5639   5643   5644     1  0.0000000  0.6508444  3
   5641   5639   5643   5645     1  0.0000000  0.6508444  3
   5641   5639   5643   5708     1  0.0000000  0.6508444  3
   5642   5639   5643   5644     1  0.0000000  0.6508444  3
   5642   5639   5643   5645     1  0.0000000  0.6508444  3
   5642   5639   5643   5708     1  0.0000000  0.6508444  3
   5643   5644   5655   5656     1  0.0000000  0.6508444  3
   5643   5644   5655   5657     1  0.0000000  0.6508444  3
   5643   5645   5647   5649     1  0.0000000  0.6508444  3
   5643   5645   5647   5650     1  0.0000000  0.6508444  3
   5644   5643   5645   5646     1  0.0000000  0.6508444  3
   5644   5643   5645   5648     1  0.0000000  0.6508444  3
   5645   5643   5644   5653     1  0.0000000  0.6508444  3
   5645   5643   5644   5654     1  0.0000000  0.6508444  3
   5646   5645   5643   5708     1  0.0000000  0.6508444  3
   5646   5645   5647   5651     1  0.0000000  0.6508444  3
   5646   5645   5647   5649     1  0.0000000  0.6508444  3
   5646   5645   5647   5650     1  0.0000000  0.6508444  3
   5647   5645   5643   5708     1  0.0000000  0.6508444  3
   5647   5651   5683   5673     1  180.0000771  6.0668000  2
   5647   5651   5683   5673     1  180.0000771  1.4644000  4
   5648   5645   5643   5708     1  0.0000000  0.6508444  3
   5648   5645   5647   5651     1  0.0000000  0.6508444  3
   5648   5645   5647   5649     1  0.0000000  0.6508444  3
   5648   5645   5647   5650     1  0.0000000  0.6508444  3
   5649   5647   5651   5652     1  0.0000000  3.3472000  1
   5649   5647   5651   5652     1  0.0000000  0.0000000  2
   5649   5647   5651   5652     1  180.0000771  0.3347200  3
   5649   5647   5651   5683     1  180.0000771  0.0000000  2
   5650   5647   5651   5652     1  0.0000000  3.3472000  1
   5650   5647   5651   5652     1  0.0000000  0.0000000  2
   5650   5647   5651   5652     1  180.0000771  0.3347200  3
   5650   5647   5651   5683     1  180.0000771  0.0000000  2
   5651   5683   5664   5666     1  0.0000000  1.2552000  3
   5652   5651   5683   5673     1  180.0000771  6.0668000  2
   5652   5651   5683   5673     1  180.0000771  1.4644000  4
   5653   5644   5643   5708     1  0.0000000  0.6508444  3
   5653   5644   5655   5658     1  0.0000000  0.6508444  3
   5653   5644   5655   5656     1  0.0000000  0.6508444  3
   5653   5644   5655   5657     1  0.0000000  0.6508444  3
   5654   5644   5643   5708     1  0.0000000  0.6508444  3
   5654   5644   5655   5658     1  0.0000000  0.6508444  3
   5654   5644   5655   5656     1  0.0000000  0.6508444  3
   5654   5644   5655   5657     1  0.0000000  0.6508444  3
   5655   5644   5643   5708     1  0.0000000  0.6508444  3
   5655   5658   5707   5697     1  180.0000771  6.0668000  2
   5655   5658   5707   5697     1  180.0000771  1.4644000  4
   5656   5655   5658   5659     1  0.0000000  3.3472000  1
   5656   5655   5658   5659     1  0.0000000  0.0000000  2
   5656   5655   5658   5659     1  180.0000771  0.3347200  3
   5656   5655   5658   5707     1  180.0000771  0.0000000  2
   5657   5655   5658   5659     1  0.0000000  3.3472000  1
   5657   5655   5658   5659     1  0.0000000  0.0000000  2
   5657   5655   5658   5659     1  180.0000771  0.3347200  3
   5657   5655   5658   5707     1  180.0000771  0.0000000  2
   5658   5707   5688   5690     1  0.0000000  1.2552000  3
   5659   5658   5707   5697     1  180.0000771  6.0668000  2
   5659   5658   5707   5697     1  180.0000771  1.4644000  4
   5660   5661   5663   5667     1  0.0000000  0.6508444  3
   5660   5661   5681   5682     1  0.0000000  1.0460000  1
   5660   5661   5681   5682     1  0.0000000  0.6694400  3
   5660   5671   5676   5677     1  0.0000000  1.0460000  1
   5660   5671   5676   5677     1  0.0000000  0.6694400  3
   5660   5678   5665   5668     1  0.0000000  1.6038667  3
   5661   5660   5671   5674     1  0.0000000  0.6508444  3
   5661   5660   5671   5675     1  0.0000000  0.6508444  3
   5661   5663   5664   5666     1  0.0000000  0.6508444  3
   5661   5663   5670   5672     1  0.0000000  1.0460000  1
   5661   5663   5670   5672     1  0.0000000  0.6694400  3
   5662   5660   5661   5663     1  0.0000000  0.6508444  3
   5662   5660   5661   5681     1  0.0000000  1.0460000  1
   5662   5660   5661   5681     1  0.0000000  0.0000000  3
   5662   5660   5661   5680     1  0.0000000  0.6508444  3
   5662   5660   5671   5676     1  0.0000000  1.0460000  1
   5662   5660   5671   5676     1  0.0000000  0.0000000  3
   5662   5660   5671   5674     1  0.0000000  0.6508444  3
   5662   5660   5671   5675     1  0.0000000  0.6508444  3
   5662   5660   5678   5665     1  0.0000000  1.6038667  3
   5663   5661   5681   5682     1  0.0000000  1.0460000  1
   5663   5661   5681   5682     1  0.0000000  0.6694400  3
   5663   5664   5665   5668     1  0.0000000  0.6508444  3
   5663   5664   5683   5673     1  0.0000000  1.2552000  3
   5664   5663   5661   5680     1  0.0000000  0.6508444  3
   5664   5663   5670   5672     1  0.0000000  1.0460000  1
   5664   5663   5670   5672     1  0.0000000  0.6694400  3
   5664   5665   5669   5679     1  0.0000000  1.0460000  1
   5664   5665   5669   5679     1  0.0000000  0.6694400  3
   5665   5664   5663   5667     1  0.0000000  0.6508444  3
   5665   5664   5683   5673     1  0.0000000  1.2552000  3
   5666   5664   5663   5670     1  0.0000000  1.0460000  1
   5666   5664   5663   5670     1  0.0000000  0.0000000  3
   5666   5664   5663   5667     1  0.0000000  0.6508444  3
   5666   5664   5665   5669     1  0.0000000  1.0460000  1
   5666   5664   5665   5669     1  0.0000000  0.0000000  3
   5666   5664   5665   5678     1  0.0000000  1.0460000  1
   5666   5664   5665   5678     1  0.0000000  0.0000000  3
   5666   5664   5665   5668     1  0.0000000  0.6508444  3
   5666   5664   5683   5673     1  0.0000000  1.2552000  3
   5667   5663   5661   5681     1  0.0000000  1.0460000  1
   5667   5663   5661   5681     1  0.0000000  0.0000000  3
   5667   5663   5661   5680     1  0.0000000  0.6508444  3
   5667   5663   5664   5683     1  0.0000000  0.6508444  3
   5667   5663   5670   5672     1  0.0000000  0.6973333  3
   5668   5665   5664   5683     1  0.0000000  0.6508444  3
   5668   5665   5669   5679     1  0.0000000  0.6973333  3
   5670   5663   5661   5680     1  0.0000000  1.0460000  1
   5670   5663   5661   5680     1  0.0000000  0.0000000  3
   5671   5660   5661   5680     1  0.0000000  0.6508444  3
   5674   5671   5660   5678     1  0.0000000  1.0460000  1
   5674   5671   5660   5678     1  0.0000000  0.0000000  3
   5674   5671   5676   5677     1  0.0000000  0.6973333  3
   5675   5671   5660   5678     1  0.0000000  1.0460000  1
   5675   5671   5660   5678     1  0.0000000  0.0000000  3
   5675   5671   5676   5677     1  0.0000000  0.6973333  3
   5678   5660   5661   5680     1  0.0000000  1.0460000  1
   5678   5660   5661   5680     1  0.0000000  0.0000000  3
   5678   5665   5669   5679     1  0.0000000  0.6973333  3
   5680   5661   5681   5682     1  0.0000000  0.6973333  3
   5684   5685   5687   5691     1  0.0000000  0.6508444  3
   5684   5685   5705   5706     1  0.0000000  1.0460000  1
   5684   5685   5705   5706     1  0.0000000  0.6694400  3
   5684   5695   5700   5701     1  0.0000000  1.0460000  1
   5684   5695   5700   5701     1  0.0000000  0.6694400  3
   5684   5702   5689   5692     1  0.0000000  1.6038667  3
   5685   5684   5695   5698     1  0.0000000  0.6508444  3
   5685   5684   5695   5699     1  0.0000000  0.6508444  3
   5685   5687   5688   5690     1  0.0000000  0.6508444  3
   5685   5687   5694   5696     1  0.0000000  1.0460000  1
   5685   5687   5694   5696     1  0.0000000  0.6694400  3
   5686   5684   5685   5687     1  0.0000000  0.6508444  3
   5686   5684   5685   5705     1  0.0000000  1.0460000  1
   5686   5684   5685   5705     1  0.0000000  0.0000000  3
   5686   5684   5685   5704     1  0.0000000  0.6508444  3
   5686   5684   5695   5700     1  0.0000000  1.0460000  1
   5686   5684   5695   5700     1  0.0000000  0.0000000  3
   5686   5684   5695   5698     1  0.0000000  0.6508444  3
   5686   5684   5695   5699     1  0.0000000  0.6508444  3
   5686   5684   5702   5689     1  0.0000000  1.6038667  3
   5687   5685   5705   5706     1  0.0000000  1.0460000  1
   5687   5685   5705   5706     1  0.0000000  0.6694400  3
   5687   5688   5689   5692     1  0.0000000  0.6508444  3
   5687   5688   5707   5697     1  0.0000000  1.2552000  3
   5688   5687   5685   5704     1  0.0000000  0.6508444  3
   5688   5687   5694   5696     1  0.0000000  1.0460000  1
   5688   5687   5694   5696     1  0.0000000  0.6694400  3
   5688   5689   5693   5703     1  0.0000000  1.0460000  1
   5688   5689   5693   5703     1  0.0000000  0.6694400  3
   5689   5688   5687   5691     1  0.0000000  0.6508444  3
   5689   5688   5707   5697     1  0.0000000  1.2552000  3
   5690   5688   5687   5694     1  0.0000000  1.0460000  1
   5690   5688   5687   5694     1  0.0000000  0.0000000  3
   5690   5688   5687   5691     1  0.0000000  0.6508444  3
   5690   5688   5689   5693     1  0.0000000  1.0460000  1
   5690   5688   5689   5693     1  0.0000000  0.0000000  3
   5690   5688   5689   5702     1  0.0000000  1.0460000  1
   5690   5688   5689   5702     1  0.0000000  0.0000000  3
   5690   5688   5689   5692     1  0.0000000  0.6508444  3
   5690   5688   5707   5697     1  0.0000000  1.2552000  3
   5691   5687   5685   5705     1  0.0000000  1.0460000  1
   5691   5687   5685   5705     1  0.0000000  0.0000000  3
   5691   5687   5685   5704     1  0.0000000  0.6508444  3
   5691   5687   5688   5707     1  0.0000000  0.6508444  3
   5691   5687   5694   5696     1  0.0000000  0.6973333  3
   5692   5689   5688   5707     1  0.0000000  0.6508444  3
   5692   5689   5693   5703     1  0.0000000  0.6973333  3
   5694   5687   5685   5704     1  0.0000000  1.0460000  1
   5694   5687   5685   5704     1  0.0000000  0.0000000  3
   5695   5684   5685   5704     1  0.0000000  0.6508444  3
   5698   5695   5684   5702     1  0.0000000  1.0460000  1
   5698   5695   5684   5702     1  0.0000000  0.0000000  3
   5698   5695   5700   5701     1  0.0000000  0.6973333  3
   5699   5695   5684   5702     1  0.0000000  1.0460000  1
   5699   5695   5684   5702     1  0.0000000  0.0000000  3
   5699   5695   5700   5701     1  0.0000000  0.6973333  3
   5702   5684   5685   5704     1  0.0000000  1.0460000  1
   5702   5684   5685   5704     1  0.0000000  0.0000000  3
   5702   5689   5693   5703     1  0.0000000  0.6973333  3
   5704   5685   5705   5706     1  0.0000000  0.6973333  3
   5709   5711   5713   5715     1  0.0000000  0.6508444  3
   5709   5711   5713   5716     1  0.0000000  0.6508444  3
   5710   5709   5711   5713     1  0.0000000  0.0000000  2
   5710   5709   5711   5712     1  0.0000000  0.0000000  2
   5710   5709   5711   5714     1  0.0000000  0.0000000  2
   5711   5713   5717   5782     1  0.0000000  0.6508444  3
   5712   5711   5713   5717     1  0.0000000  0.6508444  3
   5712   5711   5713   5715     1  0.0000000  0.6508444  3
   5712   5711   5713   5716     1  0.0000000  0.6508444  3
   5713   5717   5718   5727     1  0.0000000  0.6508444  3
   5713   5717   5718   5728     1  0.0000000  0.6508444  3
   5713   5717   5719   5720     1  0.0000000  0.6508444  3
   5713   5717   5719   5722     1  0.0000000  0.6508444  3
   5714   5711   5713   5717     1  0.0000000  0.6508444  3
   5714   5711   5713   5715     1  0.0000000  0.6508444  3
   5714   5711   5713   5716     1  0.0000000  0.6508444  3
   5715   5713   5717   5718     1  0.0000000  0.6508444  3
   5715   5713   5717   5719     1  0.0000000  0.6508444  3
   5715   5713   5717   5782     1  0.0000000  0.6508444  3
   5716   5713   5717   5718     1  0.0000000  0.6508444  3
   5716   5713   5717   5719     1  0.0000000  0.6508444  3
   5716   5713   5717   5782     1  0.0000000  0.6508444  3
   5717   5718   5729   5730     1  0.0000000  0.6508444  3
   5717   5718   5729   5731     1  0.0000000  0.6508444  3
   5717   5719   5721   5723     1  0.0000000  0.6508444  3
   5717   5719   5721   5724     1  0.0000000  0.6508444  3
   5718   5717   5719   5720     1  0.0000000  0.6508444  3
   5718   5717   5719   5722     1  0.0000000  0.6508444  3
   5719   5717   5718   5727     1  0.0000000  0.6508444  3
   5719   5717   5718   5728     1  0.0000000  0.6508444  3
   5720   5719   5721   5725     1  0.0000000  0.6508444  3
   5720   5719   5721   5723     1  0.0000000  0.6508444  3
   5720   5719   5721   5724     1  0.0000000  0.6508444  3
   5720   5719   5717   5782     1  0.0000000  0.6508444  3
   5721   5725   5757   5747     1  180.0000771  6.0668000  2
   5721   5725   5757   5747     1  180.0000771  1.4644000  4
   5721   5719   5717   5782     1  0.0000000  0.6508444  3
   5722   5719   5721   5725     1  0.0000000  0.6508444  3
   5722   5719   5721   5723     1  0.0000000  0.6508444  3
   5722   5719   5721   5724     1  0.0000000  0.6508444  3
   5722   5719   5717   5782     1  0.0000000  0.6508444  3
   5723   5721   5725   5726     1  0.0000000  3.3472000  1
   5723   5721   5725   5726     1  0.0000000  0.0000000  2
   5723   5721   5725   5726     1  180.0000771  0.3347200  3
   5723   5721   5725   5757     1  180.0000771  0.0000000  2
   5724   5721   5725   5726     1  0.0000000  3.3472000  1
   5724   5721   5725   5726     1  0.0000000  0.0000000  2
   5724   5721   5725   5726     1  180.0000771  0.3347200  3
   5724   5721   5725   5757     1  180.0000771  0.0000000  2
   5725   5757   5738   5740     1  0.0000000  1.2552000  3
   5726   5725   5757   5747     1  180.0000771  6.0668000  2
   5726   5725   5757   5747     1  180.0000771  1.4644000  4
   5727   5718   5729   5732     1  0.0000000  0.6508444  3
   5727   5718   5729   5730     1  0.0000000  0.6508444  3
   5727   5718   5729   5731     1  0.0000000  0.6508444  3
   5727   5718   5717   5782     1  0.0000000  0.6508444  3
   5728   5718   5729   5732     1  0.0000000  0.6508444  3
   5728   5718   5729   5730     1  0.0000000  0.6508444  3
   5728   5718   5729   5731     1  0.0000000  0.6508444  3
   5728   5718   5717   5782     1  0.0000000  0.6508444  3
   5729   5732   5781   5771     1  180.0000771  6.0668000  2
   5729   5732   5781   5771     1  180.0000771  1.4644000  4
   5729   5718   5717   5782     1  0.0000000  0.6508444  3
   5730   5729   5732   5733     1  0.0000000  3.3472000  1
   5730   5729   5732   5733     1  0.0000000  0.0000000  2
   5730   5729   5732   5733     1  180.0000771  0.3347200  3
   5730   5729   5732   5781     1  180.0000771  0.0000000  2
   5731   5729   5732   5733     1  0.0000000  3.3472000  1
   5731   5729   5732   5733     1  0.0000000  0.0000000  2
   5731   5729   5732   5733     1  180.0000771  0.3347200  3
   5731   5729   5732   5781     1  180.0000771  0.0000000  2
   5732   5781   5762   5764     1  0.0000000  1.2552000  3
   5733   5732   5781   5771     1  180.0000771  6.0668000  2
   5733   5732   5781   5771     1  180.0000771  1.4644000  4
   5734   5735   5737   5741     1  0.0000000  0.6508444  3
   5734   5735   5755   5756     1  0.0000000  1.0460000  1
   5734   5735   5755   5756     1  0.0000000  0.6694400  3
   5734   5745   5750   5751     1  0.0000000  1.0460000  1
   5734   5745   5750   5751     1  0.0000000  0.6694400  3
   5734   5752   5739   5742     1  0.0000000  1.6038667  3
   5735   5737   5738   5740     1  0.0000000  0.6508444  3
   5735   5737   5744   5746     1  0.0000000  1.0460000  1
   5735   5737   5744   5746     1  0.0000000  0.6694400  3
   5735   5734   5745   5748     1  0.0000000  0.6508444  3
   5735   5734   5745   5749     1  0.0000000  0.6508444  3
   5736   5734   5735   5737     1  0.0000000  0.6508444  3
   5736   5734   5735   5755     1  0.0000000  1.0460000  1
   5736   5734   5735   5755     1  0.0000000  0.0000000  3
   5736   5734   5735   5754     1  0.0000000  0.6508444  3
   5736   5734   5745   5750     1  0.0000000  1.0460000  1
   5736   5734   5745   5750     1  0.0000000  0.0000000  3
   5736   5734   5745   5748     1  0.0000000  0.6508444  3
   5736   5734   5745   5749     1  0.0000000  0.6508444  3
   5736   5734   5752   5739     1  0.0000000  1.6038667  3
   5737   5738   5739   5742     1  0.0000000  0.6508444  3
   5737   5738   5757   5747     1  0.0000000  1.2552000  3
   5737   5735   5755   5756     1  0.0000000  1.0460000  1
   5737   5735   5755   5756     1  0.0000000  0.6694400  3
   5738   5739   5743   5753     1  0.0000000  1.0460000  1
   5738   5739   5743   5753     1  0.0000000  0.6694400  3
   5738   5737   5744   5746     1  0.0000000  1.0460000  1
   5738   5737   5744   5746     1  0.0000000  0.6694400  3
   5738   5737   5735   5754     1  0.0000000  0.6508444  3
   5739   5738   5757   5747     1  0.0000000  1.2552000  3
   5739   5738   5737   5741     1  0.0000000  0.6508444  3
   5740   5738   5739   5743     1  0.0000000  1.0460000  1
   5740   5738   5739   5743     1  0.0000000  0.0000000  3
   5740   5738   5739   5752     1  0.0000000  1.0460000  1
   5740   5738   5739   5752     1  0.0000000  0.0000000  3
   5740   5738   5739   5742     1  0.0000000  0.6508444  3
   5740   5738   5757   5747     1  0.0000000  1.2552000  3
   5740   5738   5737   5744     1  0.0000000  1.0460000  1
   5740   5738   5737   5744     1  0.0000000  0.0000000  3
   5740   5738   5737   5741     1  0.0000000  0.6508444  3
   5741   5737   5738   5757     1  0.0000000  0.6508444  3
   5741   5737   5744   5746     1  0.0000000  0.6973333  3
   5741   5737   5735   5755     1  0.0000000  1.0460000  1
   5741   5737   5735   5755     1  0.0000000  0.0000000  3
   5741   5737   5735   5754     1  0.0000000  0.6508444  3
   5742   5739   5743   5753     1  0.0000000  0.6973333  3
   5742   5739   5738   5757     1  0.0000000  0.6508444  3
   5744   5737   5735   5754     1  0.0000000  1.0460000  1
   5744   5737   5735   5754     1  0.0000000  0.0000000  3
   5745   5734   5735   5754     1  0.0000000  0.6508444  3
   5748   5745   5750   5751     1  0.0000000  0.6973333  3
   5748   5745   5734   5752     1  0.0000000  1.0460000  1
   5748   5745   5734   5752     1  0.0000000  0.0000000  3
   5749   5745   5750   5751     1  0.0000000  0.6973333  3
   5749   5745   5734   5752     1  0.0000000  1.0460000  1
   5749   5745   5734   5752     1  0.0000000  0.0000000  3
   5752   5739   5743   5753     1  0.0000000  0.6973333  3
   5752   5734   5735   5754     1  0.0000000  1.0460000  1
   5752   5734   5735   5754     1  0.0000000  0.0000000  3
   5754   5735   5755   5756     1  0.0000000  0.6973333  3
   5758   5759   5761   5765     1  0.0000000  0.6508444  3
   5758   5759   5779   5780     1  0.0000000  1.0460000  1
   5758   5759   5779   5780     1  0.0000000  0.6694400  3
   5758   5769   5774   5775     1  0.0000000  1.0460000  1
   5758   5769   5774   5775     1  0.0000000  0.6694400  3
   5758   5776   5763   5766     1  0.0000000  1.6038667  3
   5759   5761   5762   5764     1  0.0000000  0.6508444  3
   5759   5761   5768   5770     1  0.0000000  1.0460000  1
   5759   5761   5768   5770     1  0.0000000  0.6694400  3
   5759   5758   5769   5772     1  0.0000000  0.6508444  3
   5759   5758   5769   5773     1  0.0000000  0.6508444  3
   5760   5758   5759   5761     1  0.0000000  0.6508444  3
   5760   5758   5759   5779     1  0.0000000  1.0460000  1
   5760   5758   5759   5779     1  0.0000000  0.0000000  3
   5760   5758   5759   5778     1  0.0000000  0.6508444  3
   5760   5758   5769   5774     1  0.0000000  1.0460000  1
   5760   5758   5769   5774     1  0.0000000  0.0000000  3
   5760   5758   5769   5772     1  0.0000000  0.6508444  3
   5760   5758   5769   5773     1  0.0000000  0.6508444  3
   5760   5758   5776   5763     1  0.0000000  1.6038667  3
   5761   5762   5763   5766     1  0.0000000  0.6508444  3
   5761   5762   5781   5771     1  0.0000000  1.2552000  3
   5761   5759   5779   5780     1  0.0000000  1.0460000  1
   5761   5759   5779   5780     1  0.0000000  0.6694400  3
   5762   5763   5767   5777     1  0.0000000  1.0460000  1
   5762   5763   5767   5777     1  0.0000000  0.6694400  3
   5762   5761   5768   5770     1  0.0000000  1.0460000  1
   5762   5761   5768   5770     1  0.0000000  0.6694400  3
   5762   5761   5759   5778     1  0.0000000  0.6508444  3
   5763   5762   5781   5771     1  0.0000000  1.2552000  3
   5763   5762   5761   5765     1  0.0000000  0.6508444  3
   5764   5762   5763   5767     1  0.0000000  1.0460000  1
   5764   5762   5763   5767     1  0.0000000  0.0000000  3
   5764   5762   5763   5776     1  0.0000000  1.0460000  1
   5764   5762   5763   5776     1  0.0000000  0.0000000  3
   5764   5762   5763   5766     1  0.0000000  0.6508444  3
   5764   5762   5781   5771     1  0.0000000  1.2552000  3
   5764   5762   5761   5768     1  0.0000000  1.0460000  1
   5764   5762   5761   5768     1  0.0000000  0.0000000  3
   5764   5762   5761   5765     1  0.0000000  0.6508444  3
   5765   5761   5762   5781     1  0.0000000  0.6508444  3
   5765   5761   5768   5770     1  0.0000000  0.6973333  3
   5765   5761   5759   5779     1  0.0000000  1.0460000  1
   5765   5761   5759   5779     1  0.0000000  0.0000000  3
   5765   5761   5759   5778     1  0.0000000  0.6508444  3
   5766   5763   5767   5777     1  0.0000000  0.6973333  3
   5766   5763   5762   5781     1  0.0000000  0.6508444  3
   5768   5761   5759   5778     1  0.0000000  1.0460000  1
   5768   5761   5759   5778     1  0.0000000  0.0000000  3
   5769   5758   5759   5778     1  0.0000000  0.6508444  3
   5772   5769   5774   5775     1  0.0000000  0.6973333  3
   5772   5769   5758   5776     1  0.0000000  1.0460000  1
   5772   5769   5758   5776     1  0.0000000  0.0000000  3
   5773   5769   5774   5775     1  0.0000000  0.6973333  3
   5773   5769   5758   5776     1  0.0000000  1.0460000  1
   5773   5769   5758   5776     1  0.0000000  0.0000000  3
   5776   5763   5767   5777     1  0.0000000  0.6973333  3
   5776   5758   5759   5778     1  0.0000000  1.0460000  1
   5776   5758   5759   5778     1  0.0000000  0.0000000  3
   5778   5759   5779   5780     1  0.0000000  0.6973333  3
   5783   5785   5787   5789     1  0.0000000  0.6508444  3
   5783   5785   5787   5790     1  0.0000000  0.6508444  3
   5784   5783   5785   5787     1  0.0000000  0.0000000  2
   5784   5783   5785   5786     1  0.0000000  0.0000000  2
   5784   5783   5785   5788     1  0.0000000  0.0000000  2
   5785   5787   5791   5856     1  0.0000000  0.6508444  3
   5786   5785   5787   5791     1  0.0000000  0.6508444  3
   5786   5785   5787   5789     1  0.0000000  0.6508444  3
   5786   5785   5787   5790     1  0.0000000  0.6508444  3
   5787   5791   5792   5801     1  0.0000000  0.6508444  3
   5787   5791   5792   5802     1  0.0000000  0.6508444  3
   5787   5791   5793   5794     1  0.0000000  0.6508444  3
   5787   5791   5793   5796     1  0.0000000  0.6508444  3
   5788   5785   5787   5791     1  0.0000000  0.6508444  3
   5788   5785   5787   5789     1  0.0000000  0.6508444  3
   5788   5785   5787   5790     1  0.0000000  0.6508444  3
   5789   5787   5791   5792     1  0.0000000  0.6508444  3
   5789   5787   5791   5793     1  0.0000000  0.6508444  3
   5789   5787   5791   5856     1  0.0000000  0.6508444  3
   5790   5787   5791   5792     1  0.0000000  0.6508444  3
   5790   5787   5791   5793     1  0.0000000  0.6508444  3
   5790   5787   5791   5856     1  0.0000000  0.6508444  3
   5791   5792   5803   5804     1  0.0000000  0.6508444  3
   5791   5792   5803   5805     1  0.0000000  0.6508444  3
   5791   5793   5795   5797     1  0.0000000  0.6508444  3
   5791   5793   5795   5798     1  0.0000000  0.6508444  3
   5792   5791   5793   5794     1  0.0000000  0.6508444  3
   5792   5791   5793   5796     1  0.0000000  0.6508444  3
   5793   5791   5792   5801     1  0.0000000  0.6508444  3
   5793   5791   5792   5802     1  0.0000000  0.6508444  3
   5794   5793   5791   5856     1  0.0000000  0.6508444  3
   5794   5793   5795   5799     1  0.0000000  0.6508444  3
   5794   5793   5795   5797     1  0.0000000  0.6508444  3
   5794   5793   5795   5798     1  0.0000000  0.6508444  3
   5795   5793   5791   5856     1  0.0000000  0.6508444  3
   5795   5799   5831   5821     1  180.0000771  6.0668000  2
   5795   5799   5831   5821     1  180.0000771  1.4644000  4
   5796   5793   5791   5856     1  0.0000000  0.6508444  3
   5796   5793   5795   5799     1  0.0000000  0.6508444  3
   5796   5793   5795   5797     1  0.0000000  0.6508444  3
   5796   5793   5795   5798     1  0.0000000  0.6508444  3
   5797   5795   5799   5800     1  0.0000000  3.3472000  1
   5797   5795   5799   5800     1  0.0000000  0.0000000  2
   5797   5795   5799   5800     1  180.0000771  0.3347200  3
   5797   5795   5799   5831     1  180.0000771  0.0000000  2
   5798   5795   5799   5800     1  0.0000000  3.3472000  1
   5798   5795   5799   5800     1  0.0000000  0.0000000  2
   5798   5795   5799   5800     1  180.0000771  0.3347200  3
   5798   5795   5799   5831     1  180.0000771  0.0000000  2
   5799   5831   5812   5814     1  0.0000000  1.2552000  3
   5800   5799   5831   5821     1  180.0000771  6.0668000  2
   5800   5799   5831   5821     1  180.0000771  1.4644000  4
   5801   5792   5791   5856     1  0.0000000  0.6508444  3
   5801   5792   5803   5806     1  0.0000000  0.6508444  3
   5801   5792   5803   5804     1  0.0000000  0.6508444  3
   5801   5792   5803   5805     1  0.0000000  0.6508444  3
   5802   5792   5791   5856     1  0.0000000  0.6508444  3
   5802   5792   5803   5806     1  0.0000000  0.6508444  3
   5802   5792   5803   5804     1  0.0000000  0.6508444  3
   5802   5792   5803   5805     1  0.0000000  0.6508444  3
   5803   5792   5791   5856     1  0.0000000  0.6508444  3
   5803   5806   5855   5845     1  180.0000771  6.0668000  2
   5803   5806   5855   5845     1  180.0000771  1.4644000  4
   5804   5803   5806   5807     1  0.0000000  3.3472000  1
   5804   5803   5806   5807     1  0.0000000  0.0000000  2
   5804   5803   5806   5807     1  180.0000771  0.3347200  3
   5804   5803   5806   5855     1  180.0000771  0.0000000  2
   5805   5803   5806   5807     1  0.0000000  3.3472000  1
   5805   5803   5806   5807     1  0.0000000  0.0000000  2
   5805   5803   5806   5807     1  180.0000771  0.3347200  3
   5805   5803   5806   5855     1  180.0000771  0.0000000  2
   5806   5855   5836   5838     1  0.0000000  1.2552000  3
   5807   5806   5855   5845     1  180.0000771  6.0668000  2
   5807   5806   5855   5845     1  180.0000771  1.4644000  4
   5808   5809   5811   5815     1  0.0000000  0.6508444  3
   5808   5809   5829   5830     1  0.0000000  1.0460000  1
   5808   5809   5829   5830     1  0.0000000  0.6694400  3
   5808   5819   5824   5825     1  0.0000000  1.0460000  1
   5808   5819   5824   5825     1  0.0000000  0.6694400  3
   5808   5826   5813   5816     1  0.0000000  1.6038667  3
   5809   5808   5819   5822     1  0.0000000  0.6508444  3
   5809   5808   5819   5823     1  0.0000000  0.6508444  3
   5809   5811   5812   5814     1  0.0000000  0.6508444  3
   5809   5811   5818   5820     1  0.0000000  1.0460000  1
   5809   5811   5818   5820     1  0.0000000  0.6694400  3
   5810   5808   5809   5811     1  0.0000000  0.6508444  3
   5810   5808   5809   5829     1  0.0000000  1.0460000  1
   5810   5808   5809   5829     1  0.0000000  0.0000000  3
   5810   5808   5809   5828     1  0.0000000  0.6508444  3
   5810   5808   5819   5824     1  0.0000000  1.0460000  1
   5810   5808   5819   5824     1  0.0000000  0.0000000  3
   5810   5808   5819   5822     1  0.0000000  0.6508444  3
   5810   5808   5819   5823     1  0.0000000  0.6508444  3
   5810   5808   5826   5813     1  0.0000000  1.6038667  3
   5811   5809   5829   5830     1  0.0000000  1.0460000  1
   5811   5809   5829   5830     1  0.0000000  0.6694400  3
   5811   5812   5813   5816     1  0.0000000  0.6508444  3
   5811   5812   5831   5821     1  0.0000000  1.2552000  3
   5812   5811   5809   5828     1  0.0000000  0.6508444  3
   5812   5811   5818   5820     1  0.0000000  1.0460000  1
   5812   5811   5818   5820     1  0.0000000  0.6694400  3
   5812   5813   5817   5827     1  0.0000000  1.0460000  1
   5812   5813   5817   5827     1  0.0000000  0.6694400  3
   5813   5812   5811   5815     1  0.0000000  0.6508444  3
   5813   5812   5831   5821     1  0.0000000  1.2552000  3
   5814   5812   5811   5818     1  0.0000000  1.0460000  1
   5814   5812   5811   5818     1  0.0000000  0.0000000  3
   5814   5812   5811   5815     1  0.0000000  0.6508444  3
   5814   5812   5813   5817     1  0.0000000  1.0460000  1
   5814   5812   5813   5817     1  0.0000000  0.0000000  3
   5814   5812   5813   5826     1  0.0000000  1.0460000  1
   5814   5812   5813   5826     1  0.0000000  0.0000000  3
   5814   5812   5813   5816     1  0.0000000  0.6508444  3
   5814   5812   5831   5821     1  0.0000000  1.2552000  3
   5815   5811   5809   5829     1  0.0000000  1.0460000  1
   5815   5811   5809   5829     1  0.0000000  0.0000000  3
   5815   5811   5809   5828     1  0.0000000  0.6508444  3
   5815   5811   5812   5831     1  0.0000000  0.6508444  3
   5815   5811   5818   5820     1  0.0000000  0.6973333  3
   5816   5813   5812   5831     1  0.0000000  0.6508444  3
   5816   5813   5817   5827     1  0.0000000  0.6973333  3
   5818   5811   5809   5828     1  0.0000000  1.0460000  1
   5818   5811   5809   5828     1  0.0000000  0.0000000  3
   5819   5808   5809   5828     1  0.0000000  0.6508444  3
   5822   5819   5808   5826     1  0.0000000  1.0460000  1
   5822   5819   5808   5826     1  0.0000000  0.0000000  3
   5822   5819   5824   5825     1  0.0000000  0.6973333  3
   5823   5819   5808   5826     1  0.0000000  1.0460000  1
   5823   5819   5808   5826     1  0.0000000  0.0000000  3
   5823   5819   5824   5825     1  0.0000000  0.6973333  3
   5826   5808   5809   5828     1  0.0000000  1.0460000  1
   5826   5808   5809   5828     1  0.0000000  0.0000000  3
   5826   5813   5817   5827     1  0.0000000  0.6973333  3
   5828   5809   5829   5830     1  0.0000000  0.6973333  3
   5832   5833   5835   5839     1  0.0000000  0.6508444  3
   5832   5833   5853   5854     1  0.0000000  1.0460000  1
   5832   5833   5853   5854     1  0.0000000  0.6694400  3
   5832   5843   5848   5849     1  0.0000000  1.0460000  1
   5832   5843   5848   5849     1  0.0000000  0.6694400  3
   5832   5850   5837   5840     1  0.0000000  1.6038667  3
   5833   5832   5843   5846     1  0.0000000  0.6508444  3
   5833   5832   5843   5847     1  0.0000000  0.6508444  3
   5833   5835   5836   5838     1  0.0000000  0.6508444  3
   5833   5835   5842   5844     1  0.0000000  1.0460000  1
   5833   5835   5842   5844     1  0.0000000  0.6694400  3
   5834   5832   5833   5835     1  0.0000000  0.6508444  3
   5834   5832   5833   5853     1  0.0000000  1.0460000  1
   5834   5832   5833   5853     1  0.0000000  0.0000000  3
   5834   5832   5833   5852     1  0.0000000  0.6508444  3
   5834   5832   5843   5848     1  0.0000000  1.0460000  1
   5834   5832   5843   5848     1  0.0000000  0.0000000  3
   5834   5832   5843   5846     1  0.0000000  0.6508444  3
   5834   5832   5843   5847     1  0.0000000  0.6508444  3
   5834   5832   5850   5837     1  0.0000000  1.6038667  3
   5835   5833   5853   5854     1  0.0000000  1.0460000  1
   5835   5833   5853   5854     1  0.0000000  0.6694400  3
   5835   5836   5837   5840     1  0.0000000  0.6508444  3
   5835   5836   5855   5845     1  0.0000000  1.2552000  3
   5836   5835   5833   5852     1  0.0000000  0.6508444  3
   5836   5835   5842   5844     1  0.0000000  1.0460000  1
   5836   5835   5842   5844     1  0.0000000  0.6694400  3
   5836   5837   5841   5851     1  0.0000000  1.0460000  1
   5836   5837   5841   5851     1  0.0000000  0.6694400  3
   5837   5836   5835   5839     1  0.0000000  0.6508444  3
   5837   5836   5855   5845     1  0.0000000  1.2552000  3
   5838   5836   5835   5842     1  0.0000000  1.0460000  1
   5838   5836   5835   5842     1  0.0000000  0.0000000  3
   5838   5836   5835   5839     1  0.0000000  0.6508444  3
   5838   5836   5837   5841     1  0.0000000  1.0460000  1
   5838   5836   5837   5841     1  0.0000000  0.0000000  3
   5838   5836   5837   5850     1  0.0000000  1.0460000  1
   5838   5836   5837   5850     1  0.0000000  0.0000000  3
   5838   5836   5837   5840     1  0.0000000  0.6508444  3
   5838   5836   5855   5845     1  0.0000000  1.2552000  3
   5839   5835   5833   5853     1  0.0000000  1.0460000  1
   5839   5835   5833   5853     1  0.0000000  0.0000000  3
   5839   5835   5833   5852     1  0.0000000  0.6508444  3
   5839   5835   5836   5855     1  0.0000000  0.6508444  3
   5839   5835   5842   5844     1  0.0000000  0.6973333  3
   5840   5837   5836   5855     1  0.0000000  0.6508444  3
   5840   5837   5841   5851     1  0.0000000  0.6973333  3
   5842   5835   5833   5852     1  0.0000000  1.0460000  1
   5842   5835   5833   5852     1  0.0000000  0.0000000  3
   5843   5832   5833   5852     1  0.0000000  0.6508444  3
   5846   5843   5832   5850     1  0.0000000  1.0460000  1
   5846   5843   5832   5850     1  0.0000000  0.0000000  3
   5846   5843   5848   5849     1  0.0000000  0.6973333  3
   5847   5843   5832   5850     1  0.0000000  1.0460000  1
   5847   5843   5832   5850     1  0.0000000  0.0000000  3
   5847   5843   5848   5849     1  0.0000000  0.6973333  3
   5850   5832   5833   5852     1  0.0000000  1.0460000  1
   5850   5832   5833   5852     1  0.0000000  0.0000000  3
   5850   5837   5841   5851     1  0.0000000  0.6973333  3
   5852   5833   5853   5854     1  0.0000000  0.6973333  3
   5857   5859   5861   5863     1  0.0000000  0.6508444  3
   5857   5859   5861   5864     1  0.0000000  0.6508444  3
   5858   5857   5859   5861     1  0.0000000  0.0000000  2
   5858   5857   5859   5860     1  0.0000000  0.0000000  2
   5858   5857   5859   5862     1  0.0000000  0.0000000  2
   5859   5861   5865   5930     1  0.0000000  0.6508444  3
   5860   5859   5861   5865     1  0.0000000  0.6508444  3
   5860   5859   5861   5863     1  0.0000000  0.6508444  3
   5860   5859   5861   5864     1  0.0000000  0.6508444  3
   5861   5865   5866   5875     1  0.0000000  0.6508444  3
   5861   5865   5866   5876     1  0.0000000  0.6508444  3
   5861   5865   5867   5868     1  0.0000000  0.6508444  3
   5861   5865   5867   5870     1  0.0000000  0.6508444  3
   5862   5859   5861   5865     1  0.0000000  0.6508444  3
   5862   5859   5861   5863     1  0.0000000  0.6508444  3
   5862   5859   5861   5864     1  0.0000000  0.6508444  3
   5863   5861   5865   5866     1  0.0000000  0.6508444  3
   5863   5861   5865   5867     1  0.0000000  0.6508444  3
   5863   5861   5865   5930     1  0.0000000  0.6508444  3
   5864   5861   5865   5866     1  0.0000000  0.6508444  3
   5864   5861   5865   5867     1  0.0000000  0.6508444  3
   5864   5861   5865   5930     1  0.0000000  0.6508444  3
   5865   5866   5877   5878     1  0.0000000  0.6508444  3
   5865   5866   5877   5879     1  0.0000000  0.6508444  3
   5865   5867   5869   5871     1  0.0000000  0.6508444  3
   5865   5867   5869   5872     1  0.0000000  0.6508444  3
   5866   5865   5867   5868     1  0.0000000  0.6508444  3
   5866   5865   5867   5870     1  0.0000000  0.6508444  3
   5867   5865   5866   5875     1  0.0000000  0.6508444  3
   5867   5865   5866   5876     1  0.0000000  0.6508444  3
   5868   5867   5869   5873     1  0.0000000  0.6508444  3
   5868   5867   5869   5871     1  0.0000000  0.6508444  3
   5868   5867   5869   5872     1  0.0000000  0.6508444  3
   5868   5867   5865   5930     1  0.0000000  0.6508444  3
   5869   5873   5905   5895     1  180.0000771  6.0668000  2
   5869   5873   5905   5895     1  180.0000771  1.4644000  4
   5869   5867   5865   5930     1  0.0000000  0.6508444  3
   5870   5867   5869   5873     1  0.0000000  0.6508444  3
   5870   5867   5869   5871     1  0.0000000  0.6508444  3
   5870   5867   5869   5872     1  0.0000000  0.6508444  3
   5870   5867   5865   5930     1  0.0000000  0.6508444  3
   5871   5869   5873   5874     1  0.0000000  3.3472000  1
   5871   5869   5873   5874     1  0.0000000  0.0000000  2
   5871   5869   5873   5874     1  180.0000771  0.3347200  3
   5871   5869   5873   5905     1  180.0000771  0.0000000  2
   5872   5869   5873   5874     1  0.0000000  3.3472000  1
   5872   5869   5873   5874     1  0.0000000  0.0000000  2
   5872   5869   5873   5874     1  180.0000771  0.3347200  3
   5872   5869   5873   5905     1  180.0000771  0.0000000  2
   5873   5905   5886   5888     1  0.0000000  1.2552000  3
   5874   5873   5905   5895     1  180.0000771  6.0668000  2
   5874   5873   5905   5895     1  180.0000771  1.4644000  4
   5875   5866   5877   5880     1  0.0000000  0.6508444  3
   5875   5866   5877   5878     1  0.0000000  0.6508444  3
   5875   5866   5877   5879     1  0.0000000  0.6508444  3
   5875   5866   5865   5930     1  0.0000000  0.6508444  3
   5876   5866   5877   5880     1  0.0000000  0.6508444  3
   5876   5866   5877   5878     1  0.0000000  0.6508444  3
   5876   5866   5877   5879     1  0.0000000  0.6508444  3
   5876   5866   5865   5930     1  0.0000000  0.6508444  3
   5877   5880   5929   5919     1  180.0000771  6.0668000  2
   5877   5880   5929   5919     1  180.0000771  1.4644000  4
   5877   5866   5865   5930     1  0.0000000  0.6508444  3
   5878   5877   5880   5881     1  0.0000000  3.3472000  1
   5878   5877   5880   5881     1  0.0000000  0.0000000  2
   5878   5877   5880   5881     1  180.0000771  0.3347200  3
   5878   5877   5880   5929     1  180.0000771  0.0000000  2
   5879   5877   5880   5881     1  0.0000000  3.3472000  1
   5879   5877   5880   5881     1  0.0000000  0.0000000  2
   5879   5877   5880   5881     1  180.0000771  0.3347200  3
   5879   5877   5880   5929     1  180.0000771  0.0000000  2
   5880   5929   5910   5912     1  0.0000000  1.2552000  3
   5881   5880   5929   5919     1  180.0000771  6.0668000  2
   5881   5880   5929   5919     1  180.0000771  1.4644000  4
   5882   5883   5885   5889     1  0.0000000  0.6508444  3
   5882   5883   5903   5904     1  0.0000000  1.0460000  1
   5882   5883   5903   5904     1  0.0000000  0.6694400  3
   5882   5893   5898   5899     1  0.0000000  1.0460000  1
   5882   5893   5898   5899     1  0.0000000  0.6694400  3
   5882   5900   5887   5890     1  0.0000000  1.6038667  3
   5883   5885   5886   5888     1  0.0000000  0.6508444  3
   5883   5885   5892   5894     1  0.0000000  1.0460000  1
   5883   5885   5892   5894     1  0.0000000  0.6694400  3
   5883   5882   5893   5896     1  0.0000000  0.6508444  3
   5883   5882   5893   5897     1  0.0000000  0.6508444  3
   5884   5882   5883   5885     1  0.0000000  0.6508444  3
   5884   5882   5883   5903     1  0.0000000  1.0460000  1
   5884   5882   5883   5903     1  0.0000000  0.0000000  3
   5884   5882   5883   5902     1  0.0000000  0.6508444  3
   5884   5882   5893   5898     1  0.0000000  1.0460000  1
   5884   5882   5893   5898     1  0.0000000  0.0000000  3
   5884   5882   5893   5896     1  0.0000000  0.6508444  3
   5884   5882   5893   5897     1  0.0000000  0.6508444  3
   5884   5882   5900   5887     1  0.0000000  1.6038667  3
   5885   5886   5887   5890     1  0.0000000  0.6508444  3
   5885   5886   5905   5895     1  0.0000000  1.2552000  3
   5885   5883   5903   5904     1  0.0000000  1.0460000  1
   5885   5883   5903   5904     1  0.0000000  0.6694400  3
   5886   5887   5891   5901     1  0.0000000  1.0460000  1
   5886   5887   5891   5901     1  0.0000000  0.6694400  3
   5886   5885   5892   5894     1  0.0000000  1.0460000  1
   5886   5885   5892   5894     1  0.0000000  0.6694400  3
   5886   5885   5883   5902     1  0.0000000  0.6508444  3
   5887   5886   5905   5895     1  0.0000000  1.2552000  3
   5887   5886   5885   5889     1  0.0000000  0.6508444  3
   5888   5886   5887   5891     1  0.0000000  1.0460000  1
   5888   5886   5887   5891     1  0.0000000  0.0000000  3
   5888   5886   5887   5900     1  0.0000000  1.0460000  1
   5888   5886   5887   5900     1  0.0000000  0.0000000  3
   5888   5886   5887   5890     1  0.0000000  0.6508444  3
   5888   5886   5905   5895     1  0.0000000  1.2552000  3
   5888   5886   5885   5892     1  0.0000000  1.0460000  1
   5888   5886   5885   5892     1  0.0000000  0.0000000  3
   5888   5886   5885   5889     1  0.0000000  0.6508444  3
   5889   5885   5886   5905     1  0.0000000  0.6508444  3
   5889   5885   5892   5894     1  0.0000000  0.6973333  3
   5889   5885   5883   5903     1  0.0000000  1.0460000  1
   5889   5885   5883   5903     1  0.0000000  0.0000000  3
   5889   5885   5883   5902     1  0.0000000  0.6508444  3
   5890   5887   5891   5901     1  0.0000000  0.6973333  3
   5890   5887   5886   5905     1  0.0000000  0.6508444  3
   5892   5885   5883   5902     1  0.0000000  1.0460000  1
   5892   5885   5883   5902     1  0.0000000  0.0000000  3
   5893   5882   5883   5902     1  0.0000000  0.6508444  3
   5896   5893   5898   5899     1  0.0000000  0.6973333  3
   5896   5893   5882   5900     1  0.0000000  1.0460000  1
   5896   5893   5882   5900     1  0.0000000  0.0000000  3
   5897   5893   5898   5899     1  0.0000000  0.6973333  3
   5897   5893   5882   5900     1  0.0000000  1.0460000  1
   5897   5893   5882   5900     1  0.0000000  0.0000000  3
   5900   5887   5891   5901     1  0.0000000  0.6973333  3
   5900   5882   5883   5902     1  0.0000000  1.0460000  1
   5900   5882   5883   5902     1  0.0000000  0.0000000  3
   5902   5883   5903   5904     1  0.0000000  0.6973333  3
   5906   5907   5909   5913     1  0.0000000  0.6508444  3
   5906   5907   5927   5928     1  0.0000000  1.0460000  1
   5906   5907   5927   5928     1  0.0000000  0.6694400  3
   5906   5917   5922   5923     1  0.0000000  1.0460000  1
   5906   5917   5922   5923     1  0.0000000  0.6694400  3
   5906   5924   5911   5914     1  0.0000000  1.6038667  3
   5907   5909   5910   5912     1  0.0000000  0.6508444  3
   5907   5909   5916   5918     1  0.0000000  1.0460000  1
   5907   5909   5916   5918     1  0.0000000  0.6694400  3
   5907   5906   5917   5920     1  0.0000000  0.6508444  3
   5907   5906   5917   5921     1  0.0000000  0.6508444  3
   5908   5906   5907   5909     1  0.0000000  0.6508444  3
   5908   5906   5907   5927     1  0.0000000  1.0460000  1
   5908   5906   5907   5927     1  0.0000000  0.0000000  3
   5908   5906   5907   5926     1  0.0000000  0.6508444  3
   5908   5906   5917   5922     1  0.0000000  1.0460000  1
   5908   5906   5917   5922     1  0.0000000  0.0000000  3
   5908   5906   5917   5920     1  0.0000000  0.6508444  3
   5908   5906   5917   5921     1  0.0000000  0.6508444  3
   5908   5906   5924   5911     1  0.0000000  1.6038667  3
   5909   5910   5911   5914     1  0.0000000  0.6508444  3
   5909   5910   5929   5919     1  0.0000000  1.2552000  3
   5909   5907   5927   5928     1  0.0000000  1.0460000  1
   5909   5907   5927   5928     1  0.0000000  0.6694400  3
   5910   5911   5915   5925     1  0.0000000  1.0460000  1
   5910   5911   5915   5925     1  0.0000000  0.6694400  3
   5910   5909   5916   5918     1  0.0000000  1.0460000  1
   5910   5909   5916   5918     1  0.0000000  0.6694400  3
   5910   5909   5907   5926     1  0.0000000  0.6508444  3
   5911   5910   5929   5919     1  0.0000000  1.2552000  3
   5911   5910   5909   5913     1  0.0000000  0.6508444  3
   5912   5910   5911   5915     1  0.0000000  1.0460000  1
   5912   5910   5911   5915     1  0.0000000  0.0000000  3
   5912   5910   5911   5924     1  0.0000000  1.0460000  1
   5912   5910   5911   5924     1  0.0000000  0.0000000  3
   5912   5910   5911   5914     1  0.0000000  0.6508444  3
   5912   5910   5929   5919     1  0.0000000  1.2552000  3
   5912   5910   5909   5916     1  0.0000000  1.0460000  1
   5912   5910   5909   5916     1  0.0000000  0.0000000  3
   5912   5910   5909   5913     1  0.0000000  0.6508444  3
   5913   5909   5910   5929     1  0.0000000  0.6508444  3
   5913   5909   5916   5918     1  0.0000000  0.6973333  3
   5913   5909   5907   5927     1  0.0000000  1.0460000  1
   5913   5909   5907   5927     1  0.0000000  0.0000000  3
   5913   5909   5907   5926     1  0.0000000  0.6508444  3
   5914   5911   5915   5925     1  0.0000000  0.6973333  3
   5914   5911   5910   5929     1  0.0000000  0.6508444  3
   5916   5909   5907   5926     1  0.0000000  1.0460000  1
   5916   5909   5907   5926     1  0.0000000  0.0000000  3
   5917   5906   5907   5926     1  0.0000000  0.6508444  3
   5920   5917   5922   5923     1  0.0000000  0.6973333  3
   5920   5917   5906   5924     1  0.0000000  1.0460000  1
   5920   5917   5906   5924     1  0.0000000  0.0000000  3
   5921   5917   5922   5923     1  0.0000000  0.6973333  3
   5921   5917   5906   5924     1  0.0000000  1.0460000  1
   5921   5917   5906   5924     1  0.0000000  0.0000000  3
   5924   5911   5915   5925     1  0.0000000  0.6973333  3
   5924   5906   5907   5926     1  0.0000000  1.0460000  1
   5924   5906   5907   5926     1  0.0000000  0.0000000  3
   5926   5907   5927   5928     1  0.0000000  0.6973333  3
   5931   5933   5935   5937     1  0.0000000  0.6508444  3
   5931   5933   5935   5938     1  0.0000000  0.6508444  3
   5932   5931   5933   5935     1  0.0000000  0.0000000  2
   5932   5931   5933   5934     1  0.0000000  0.0000000  2
   5932   5931   5933   5936     1  0.0000000  0.0000000  2
   5933   5935   5939   6004     1  0.0000000  0.6508444  3
   5934   5933   5935   5939     1  0.0000000  0.6508444  3
   5934   5933   5935   5937     1  0.0000000  0.6508444  3
   5934   5933   5935   5938     1  0.0000000  0.6508444  3
   5935   5939   5940   5949     1  0.0000000  0.6508444  3
   5935   5939   5940   5950     1  0.0000000  0.6508444  3
   5935   5939   5941   5942     1  0.0000000  0.6508444  3
   5935   5939   5941   5944     1  0.0000000  0.6508444  3
   5936   5933   5935   5939     1  0.0000000  0.6508444  3
   5936   5933   5935   5937     1  0.0000000  0.6508444  3
   5936   5933   5935   5938     1  0.0000000  0.6508444  3
   5937   5935   5939   5940     1  0.0000000  0.6508444  3
   5937   5935   5939   5941     1  0.0000000  0.6508444  3
   5937   5935   5939   6004     1  0.0000000  0.6508444  3
   5938   5935   5939   5940     1  0.0000000  0.6508444  3
   5938   5935   5939   5941     1  0.0000000  0.6508444  3
   5938   5935   5939   6004     1  0.0000000  0.6508444  3
   5939   5940   5951   5952     1  0.0000000  0.6508444  3
   5939   5940   5951   5953     1  0.0000000  0.6508444  3
   5939   5941   5943   5945     1  0.0000000  0.6508444  3
   5939   5941   5943   5946     1  0.0000000  0.6508444  3
   5940   5939   5941   5942     1  0.0000000  0.6508444  3
   5940   5939   5941   5944     1  0.0000000  0.6508444  3
   5941   5939   5940   5949     1  0.0000000  0.6508444  3
   5941   5939   5940   5950     1  0.0000000  0.6508444  3
   5942   5941   5939   6004     1  0.0000000  0.6508444  3
   5942   5941   5943   5947     1  0.0000000  0.6508444  3
   5942   5941   5943   5945     1  0.0000000  0.6508444  3
   5942   5941   5943   5946     1  0.0000000  0.6508444  3
   5943   5941   5939   6004     1  0.0000000  0.6508444  3
   5943   5947   5979   5969     1  180.0000771  6.0668000  2
   5943   5947   5979   5969     1  180.0000771  1.4644000  4
   5944   5941   5939   6004     1  0.0000000  0.6508444  3
   5944   5941   5943   5947     1  0.0000000  0.6508444  3
   5944   5941   5943   5945     1  0.0000000  0.6508444  3
   5944   5941   5943   5946     1  0.0000000  0.6508444  3
   5945   5943   5947   5948     1  0.0000000  3.3472000  1
   5945   5943   5947   5948     1  0.0000000  0.0000000  2
   5945   5943   5947   5948     1  180.0000771  0.3347200  3
   5945   5943   5947   5979     1  180.0000771  0.0000000  2
   5946   5943   5947   5948     1  0.0000000  3.3472000  1
   5946   5943   5947   5948     1  0.0000000  0.0000000  2
   5946   5943   5947   5948     1  180.0000771  0.3347200  3
   5946   5943   5947   5979     1  180.0000771  0.0000000  2
   5947   5979   5960   5962     1  0.0000000  1.2552000  3
   5948   5947   5979   5969     1  180.0000771  6.0668000  2
   5948   5947   5979   5969     1  180.0000771  1.4644000  4
   5949   5940   5939   6004     1  0.0000000  0.6508444  3
   5949   5940   5951   5954     1  0.0000000  0.6508444  3
   5949   5940   5951   5952     1  0.0000000  0.6508444  3
   5949   5940   5951   5953     1  0.0000000  0.6508444  3
   5950   5940   5939   6004     1  0.0000000  0.6508444  3
   5950   5940   5951   5954     1  0.0000000  0.6508444  3
   5950   5940   5951   5952     1  0.0000000  0.6508444  3
   5950   5940   5951   5953     1  0.0000000  0.6508444  3
   5951   5940   5939   6004     1  0.0000000  0.6508444  3
   5951   5954   6003   5993     1  180.0000771  6.0668000  2
   5951   5954   6003   5993     1  180.0000771  1.4644000  4
   5952   5951   5954   5955     1  0.0000000  3.3472000  1
   5952   5951   5954   5955     1  0.0000000  0.0000000  2
   5952   5951   5954   5955     1  180.0000771  0.3347200  3
   5952   5951   5954   6003     1  180.0000771  0.0000000  2
   5953   5951   5954   5955     1  0.0000000  3.3472000  1
   5953   5951   5954   5955     1  0.0000000  0.0000000  2
   5953   5951   5954   5955     1  180.0000771  0.3347200  3
   5953   5951   5954   6003     1  180.0000771  0.0000000  2
   5954   6003   5984   5986     1  0.0000000  1.2552000  3
   5955   5954   6003   5993     1  180.0000771  6.0668000  2
   5955   5954   6003   5993     1  180.0000771  1.4644000  4
   5956   5957   5959   5963     1  0.0000000  0.6508444  3
   5956   5957   5977   5978     1  0.0000000  1.0460000  1
   5956   5957   5977   5978     1  0.0000000  0.6694400  3
   5956   5967   5972   5973     1  0.0000000  1.0460000  1
   5956   5967   5972   5973     1  0.0000000  0.6694400  3
   5956   5974   5961   5964     1  0.0000000  1.6038667  3
   5957   5956   5967   5970     1  0.0000000  0.6508444  3
   5957   5956   5967   5971     1  0.0000000  0.6508444  3
   5957   5959   5960   5962     1  0.0000000  0.6508444  3
   5957   5959   5966   5968     1  0.0000000  1.0460000  1
   5957   5959   5966   5968     1  0.0000000  0.6694400  3
   5958   5956   5957   5959     1  0.0000000  0.6508444  3
   5958   5956   5957   5977     1  0.0000000  1.0460000  1
   5958   5956   5957   5977     1  0.0000000  0.0000000  3
   5958   5956   5957   5976     1  0.0000000  0.6508444  3
   5958   5956   5967   5972     1  0.0000000  1.0460000  1
   5958   5956   5967   5972     1  0.0000000  0.0000000  3
   5958   5956   5967   5970     1  0.0000000  0.6508444  3
   5958   5956   5967   5971     1  0.0000000  0.6508444  3
   5958   5956   5974   5961     1  0.0000000  1.6038667  3
   5959   5957   5977   5978     1  0.0000000  1.0460000  1
   5959   5957   5977   5978     1  0.0000000  0.6694400  3
   5959   5960   5961   5964     1  0.0000000  0.6508444  3
   5959   5960   5979   5969     1  0.0000000  1.2552000  3
   5960   5959   5957   5976     1  0.0000000  0.6508444  3
   5960   5959   5966   5968     1  0.0000000  1.0460000  1
   5960   5959   5966   5968     1  0.0000000  0.6694400  3
   5960   5961   5965   5975     1  0.0000000  1.0460000  1
   5960   5961   5965   5975     1  0.0000000  0.6694400  3
   5961   5960   5959   5963     1  0.0000000  0.6508444  3
   5961   5960   5979   5969     1  0.0000000  1.2552000  3
   5962   5960   5959   5966     1  0.0000000  1.0460000  1
   5962   5960   5959   5966     1  0.0000000  0.0000000  3
   5962   5960   5959   5963     1  0.0000000  0.6508444  3
   5962   5960   5961   5965     1  0.0000000  1.0460000  1
   5962   5960   5961   5965     1  0.0000000  0.0000000  3
   5962   5960   5961   5974     1  0.0000000  1.0460000  1
   5962   5960   5961   5974     1  0.0000000  0.0000000  3
   5962   5960   5961   5964     1  0.0000000  0.6508444  3
   5962   5960   5979   5969     1  0.0000000  1.2552000  3
   5963   5959   5957   5977     1  0.0000000  1.0460000  1
   5963   5959   5957   5977     1  0.0000000  0.0000000  3
   5963   5959   5957   5976     1  0.0000000  0.6508444  3
   5963   5959   5960   5979     1  0.0000000  0.6508444  3
   5963   5959   5966   5968     1  0.0000000  0.6973333  3
   5964   5961   5960   5979     1  0.0000000  0.6508444  3
   5964   5961   5965   5975     1  0.0000000  0.6973333  3
   5966   5959   5957   5976     1  0.0000000  1.0460000  1
   5966   5959   5957   5976     1  0.0000000  0.0000000  3
   5967   5956   5957   5976     1  0.0000000  0.6508444  3
   5970   5967   5956   5974     1  0.0000000  1.0460000  1
   5970   5967   5956   5974     1  0.0000000  0.0000000  3
   5970   5967   5972   5973     1  0.0000000  0.6973333  3
   5971   5967   5956   5974     1  0.0000000  1.0460000  1
   5971   5967   5956   5974     1  0.0000000  0.0000000  3
   5971   5967   5972   5973     1  0.0000000  0.6973333  3
   5974   5956   5957   5976     1  0.0000000  1.0460000  1
   5974   5956   5957   5976     1  0.0000000  0.0000000  3
   5974   5961   5965   5975     1  0.0000000  0.6973333  3
   5976   5957   5977   5978     1  0.0000000  0.6973333  3
   5980   5981   5983   5987     1  0.0000000  0.6508444  3
   5980   5981   6001   6002     1  0.0000000  1.0460000  1
   5980   5981   6001   6002     1  0.0000000  0.6694400  3
   5980   5991   5996   5997     1  0.0000000  1.0460000  1
   5980   5991   5996   5997     1  0.0000000  0.6694400  3
   5980   5998   5985   5988     1  0.0000000  1.6038667  3
   5981   5980   5991   5994     1  0.0000000  0.6508444  3
   5981   5980   5991   5995     1  0.0000000  0.6508444  3
   5981   5983   5984   5986     1  0.0000000  0.6508444  3
   5981   5983   5990   5992     1  0.0000000  1.0460000  1
   5981   5983   5990   5992     1  0.0000000  0.6694400  3
   5982   5980   5981   5983     1  0.0000000  0.6508444  3
   5982   5980   5981   6001     1  0.0000000  1.0460000  1
   5982   5980   5981   6001     1  0.0000000  0.0000000  3
   5982   5980   5981   6000     1  0.0000000  0.6508444  3
   5982   5980   5991   5996     1  0.0000000  1.0460000  1
   5982   5980   5991   5996     1  0.0000000  0.0000000  3
   5982   5980   5991   5994     1  0.0000000  0.6508444  3
   5982   5980   5991   5995     1  0.0000000  0.6508444  3
   5982   5980   5998   5985     1  0.0000000  1.6038667  3
   5983   5981   6001   6002     1  0.0000000  1.0460000  1
   5983   5981   6001   6002     1  0.0000000  0.6694400  3
   5983   5984   5985   5988     1  0.0000000  0.6508444  3
   5983   5984   6003   5993     1  0.0000000  1.2552000  3
   5984   5983   5981   6000     1  0.0000000  0.6508444  3
   5984   5983   5990   5992     1  0.0000000  1.0460000  1
   5984   5983   5990   5992     1  0.0000000  0.6694400  3
   5984   5985   5989   5999     1  0.0000000  1.0460000  1
   5984   5985   5989   5999     1  0.0000000  0.6694400  3
   5985   5984   5983   5987     1  0.0000000  0.6508444  3
   5985   5984   6003   5993     1  0.0000000  1.2552000  3
   5986   5984   5983   5990     1  0.0000000  1.0460000  1
   5986   5984   5983   5990     1  0.0000000  0.0000000  3
   5986   5984   5983   5987     1  0.0000000  0.6508444  3
   5986   5984   5985   5989     1  0.0000000  1.0460000  1
   5986   5984   5985   5989     1  0.0000000  0.0000000  3
   5986   5984   5985   5998     1  0.0000000  1.0460000  1
   5986   5984   5985   5998     1  0.0000000  0.0000000  3
   5986   5984   5985   5988     1  0.0000000  0.6508444  3
   5986   5984   6003   5993     1  0.0000000  1.2552000  3
   5987   5983   5981   6001     1  0.0000000  1.0460000  1
   5987   5983   5981   6001     1  0.0000000  0.0000000  3
   5987   5983   5981   6000     1  0.0000000  0.6508444  3
   5987   5983   5984   6003     1  0.0000000  0.6508444  3
   5987   5983   5990   5992     1  0.0000000  0.6973333  3
   5988   5985   5984   6003     1  0.0000000  0.6508444  3
   5988   5985   5989   5999     1  0.0000000  0.6973333  3
   5990   5983   5981   6000     1  0.0000000  1.0460000  1
   5990   5983   5981   6000     1  0.0000000  0.0000000  3
   5991   5980   5981   6000     1  0.0000000  0.6508444  3
   5994   5991   5980   5998     1  0.0000000  1.0460000  1
   5994   5991   5980   5998     1  0.0000000  0.0000000  3
   5994   5991   5996   5997     1  0.0000000  0.6973333  3
   5995   5991   5980   5998     1  0.0000000  1.0460000  1
   5995   5991   5980   5998     1  0.0000000  0.0000000  3
   5995   5991   5996   5997     1  0.0000000  0.6973333  3
   5998   5980   5981   6000     1  0.0000000  1.0460000  1
   5998   5980   5981   6000     1  0.0000000  0.0000000  3
   5998   5985   5989   5999     1  0.0000000  0.6973333  3
   6000   5981   6001   6002     1  0.0000000  0.6973333  3
   6005   6007   6009   6011     1  0.0000000  0.6508444  3
   6005   6007   6009   6012     1  0.0000000  0.6508444  3
   6006   6005   6007   6009     1  0.0000000  0.0000000  2
   6006   6005   6007   6008     1  0.0000000  0.0000000  2
   6006   6005   6007   6010     1  0.0000000  0.0000000  2
   6007   6009   6013   6078     1  0.0000000  0.6508444  3
   6008   6007   6009   6013     1  0.0000000  0.6508444  3
   6008   6007   6009   6011     1  0.0000000  0.6508444  3
   6008   6007   6009   6012     1  0.0000000  0.6508444  3
   6009   6013   6014   6023     1  0.0000000  0.6508444  3
   6009   6013   6014   6024     1  0.0000000  0.6508444  3
   6009   6013   6015   6016     1  0.0000000  0.6508444  3
   6009   6013   6015   6018     1  0.0000000  0.6508444  3
   6010   6007   6009   6013     1  0.0000000  0.6508444  3
   6010   6007   6009   6011     1  0.0000000  0.6508444  3
   6010   6007   6009   6012     1  0.0000000  0.6508444  3
   6011   6009   6013   6014     1  0.0000000  0.6508444  3
   6011   6009   6013   6015     1  0.0000000  0.6508444  3
   6011   6009   6013   6078     1  0.0000000  0.6508444  3
   6012   6009   6013   6014     1  0.0000000  0.6508444  3
   6012   6009   6013   6015     1  0.0000000  0.6508444  3
   6012   6009   6013   6078     1  0.0000000  0.6508444  3
   6013   6014   6025   6026     1  0.0000000  0.6508444  3
   6013   6014   6025   6027     1  0.0000000  0.6508444  3
   6013   6015   6017   6019     1  0.0000000  0.6508444  3
   6013   6015   6017   6020     1  0.0000000  0.6508444  3
   6014   6013   6015   6016     1  0.0000000  0.6508444  3
   6014   6013   6015   6018     1  0.0000000  0.6508444  3
   6015   6013   6014   6023     1  0.0000000  0.6508444  3
   6015   6013   6014   6024     1  0.0000000  0.6508444  3
   6016   6015   6017   6021     1  0.0000000  0.6508444  3
   6016   6015   6017   6019     1  0.0000000  0.6508444  3
   6016   6015   6017   6020     1  0.0000000  0.6508444  3
   6016   6015   6013   6078     1  0.0000000  0.6508444  3
   6017   6021   6053   6043     1  180.0000771  6.0668000  2
   6017   6021   6053   6043     1  180.0000771  1.4644000  4
   6017   6015   6013   6078     1  0.0000000  0.6508444  3
   6018   6015   6017   6021     1  0.0000000  0.6508444  3
   6018   6015   6017   6019     1  0.0000000  0.6508444  3
   6018   6015   6017   6020     1  0.0000000  0.6508444  3
   6018   6015   6013   6078     1  0.0000000  0.6508444  3
   6019   6017   6021   6022     1  0.0000000  3.3472000  1
   6019   6017   6021   6022     1  0.0000000  0.0000000  2
   6019   6017   6021   6022     1  180.0000771  0.3347200  3
   6019   6017   6021   6053     1  180.0000771  0.0000000  2
   6020   6017   6021   6022     1  0.0000000  3.3472000  1
   6020   6017   6021   6022     1  0.0000000  0.0000000  2
   6020   6017   6021   6022     1  180.0000771  0.3347200  3
   6020   6017   6021   6053     1  180.0000771  0.0000000  2
   6021   6053   6034   6036     1  0.0000000  1.2552000  3
   6022   6021   6053   6043     1  180.0000771  6.0668000  2
   6022   6021   6053   6043     1  180.0000771  1.4644000  4
   6023   6014   6025   6028     1  0.0000000  0.6508444  3
   6023   6014   6025   6026     1  0.0000000  0.6508444  3
   6023   6014   6025   6027     1  0.0000000  0.6508444  3
   6023   6014   6013   6078     1  0.0000000  0.6508444  3
   6024   6014   6025   6028     1  0.0000000  0.6508444  3
   6024   6014   6025   6026     1  0.0000000  0.6508444  3
   6024   6014   6025   6027     1  0.0000000  0.6508444  3
   6024   6014   6013   6078     1  0.0000000  0.6508444  3
   6025   6028   6077   6067     1  180.0000771  6.0668000  2
   6025   6028   6077   6067     1  180.0000771  1.4644000  4
   6025   6014   6013   6078     1  0.0000000  0.6508444  3
   6026   6025   6028   6029     1  0.0000000  3.3472000  1
   6026   6025   6028   6029     1  0.0000000  0.0000000  2
   6026   6025   6028   6029     1  180.0000771  0.3347200  3
   6026   6025   6028   6077     1  180.0000771  0.0000000  2
   6027   6025   6028   6029     1  0.0000000  3.3472000  1
   6027   6025   6028   6029     1  0.0000000  0.0000000  2
   6027   6025   6028   6029     1  180.0000771  0.3347200  3
   6027   6025   6028   6077     1  180.0000771  0.0000000  2
   6028   6077   6058   6060     1  0.0000000  1.2552000  3
   6029   6028   6077   6067     1  180.0000771  6.0668000  2
   6029   6028   6077   6067     1  180.0000771  1.4644000  4
   6030   6031   6033   6037     1  0.0000000  0.6508444  3
   6030   6031   6051   6052     1  0.0000000  1.0460000  1
   6030   6031   6051   6052     1  0.0000000  0.6694400  3
   6030   6041   6046   6047     1  0.0000000  1.0460000  1
   6030   6041   6046   6047     1  0.0000000  0.6694400  3
   6030   6048   6035   6038     1  0.0000000  1.6038667  3
   6031   6033   6034   6036     1  0.0000000  0.6508444  3
   6031   6033   6040   6042     1  0.0000000  1.0460000  1
   6031   6033   6040   6042     1  0.0000000  0.6694400  3
   6031   6030   6041   6044     1  0.0000000  0.6508444  3
   6031   6030   6041   6045     1  0.0000000  0.6508444  3
   6032   6030   6031   6033     1  0.0000000  0.6508444  3
   6032   6030   6031   6051     1  0.0000000  1.0460000  1
   6032   6030   6031   6051     1  0.0000000  0.0000000  3
   6032   6030   6031   6050     1  0.0000000  0.6508444  3
   6032   6030   6041   6046     1  0.0000000  1.0460000  1
   6032   6030   6041   6046     1  0.0000000  0.0000000  3
   6032   6030   6041   6044     1  0.0000000  0.6508444  3
   6032   6030   6041   6045     1  0.0000000  0.6508444  3
   6032   6030   6048   6035     1  0.0000000  1.6038667  3
   6033   6034   6035   6038     1  0.0000000  0.6508444  3
   6033   6034   6053   6043     1  0.0000000  1.2552000  3
   6033   6031   6051   6052     1  0.0000000  1.0460000  1
   6033   6031   6051   6052     1  0.0000000  0.6694400  3
   6034   6035   6039   6049     1  0.0000000  1.0460000  1
   6034   6035   6039   6049     1  0.0000000  0.6694400  3
   6034   6033   6040   6042     1  0.0000000  1.0460000  1
   6034   6033   6040   6042     1  0.0000000  0.6694400  3
   6034   6033   6031   6050     1  0.0000000  0.6508444  3
   6035   6034   6053   6043     1  0.0000000  1.2552000  3
   6035   6034   6033   6037     1  0.0000000  0.6508444  3
   6036   6034   6035   6039     1  0.0000000  1.0460000  1
   6036   6034   6035   6039     1  0.0000000  0.0000000  3
   6036   6034   6035   6048     1  0.0000000  1.0460000  1
   6036   6034   6035   6048     1  0.0000000  0.0000000  3
   6036   6034   6035   6038     1  0.0000000  0.6508444  3
   6036   6034   6053   6043     1  0.0000000  1.2552000  3
   6036   6034   6033   6040     1  0.0000000  1.0460000  1
   6036   6034   6033   6040     1  0.0000000  0.0000000  3
   6036   6034   6033   6037     1  0.0000000  0.6508444  3
   6037   6033   6034   6053     1  0.0000000  0.6508444  3
   6037   6033   6040   6042     1  0.0000000  0.6973333  3
   6037   6033   6031   6051     1  0.0000000  1.0460000  1
   6037   6033   6031   6051     1  0.0000000  0.0000000  3
   6037   6033   6031   6050     1  0.0000000  0.6508444  3
   6038   6035   6039   6049     1  0.0000000  0.6973333  3
   6038   6035   6034   6053     1  0.0000000  0.6508444  3
   6040   6033   6031   6050     1  0.0000000  1.0460000  1
   6040   6033   6031   6050     1  0.0000000  0.0000000  3
   6041   6030   6031   6050     1  0.0000000  0.6508444  3
   6044   6041   6046   6047     1  0.0000000  0.6973333  3
   6044   6041   6030   6048     1  0.0000000  1.0460000  1
   6044   6041   6030   6048     1  0.0000000  0.0000000  3
   6045   6041   6046   6047     1  0.0000000  0.6973333  3
   6045   6041   6030   6048     1  0.0000000  1.0460000  1
   6045   6041   6030   6048     1  0.0000000  0.0000000  3
   6048   6035   6039   6049     1  0.0000000  0.6973333  3
   6048   6030   6031   6050     1  0.0000000  1.0460000  1
   6048   6030   6031   6050     1  0.0000000  0.0000000  3
   6050   6031   6051   6052     1  0.0000000  0.6973333  3
   6054   6055   6057   6061     1  0.0000000  0.6508444  3
   6054   6055   6075   6076     1  0.0000000  1.0460000  1
   6054   6055   6075   6076     1  0.0000000  0.6694400  3
   6054   6065   6070   6071     1  0.0000000  1.0460000  1
   6054   6065   6070   6071     1  0.0000000  0.6694400  3
   6054   6072   6059   6062     1  0.0000000  1.6038667  3
   6055   6057   6058   6060     1  0.0000000  0.6508444  3
   6055   6057   6064   6066     1  0.0000000  1.0460000  1
   6055   6057   6064   6066     1  0.0000000  0.6694400  3
   6055   6054   6065   6068     1  0.0000000  0.6508444  3
   6055   6054   6065   6069     1  0.0000000  0.6508444  3
   6056   6054   6055   6057     1  0.0000000  0.6508444  3
   6056   6054   6055   6075     1  0.0000000  1.0460000  1
   6056   6054   6055   6075     1  0.0000000  0.0000000  3
   6056   6054   6055   6074     1  0.0000000  0.6508444  3
   6056   6054   6065   6070     1  0.0000000  1.0460000  1
   6056   6054   6065   6070     1  0.0000000  0.0000000  3
   6056   6054   6065   6068     1  0.0000000  0.6508444  3
   6056   6054   6065   6069     1  0.0000000  0.6508444  3
   6056   6054   6072   6059     1  0.0000000  1.6038667  3
   6057   6058   6059   6062     1  0.0000000  0.6508444  3
   6057   6058   6077   6067     1  0.0000000  1.2552000  3
   6057   6055   6075   6076     1  0.0000000  1.0460000  1
   6057   6055   6075   6076     1  0.0000000  0.6694400  3
   6058   6059   6063   6073     1  0.0000000  1.0460000  1
   6058   6059   6063   6073     1  0.0000000  0.6694400  3
   6058   6057   6064   6066     1  0.0000000  1.0460000  1
   6058   6057   6064   6066     1  0.0000000  0.6694400  3
   6058   6057   6055   6074     1  0.0000000  0.6508444  3
   6059   6058   6077   6067     1  0.0000000  1.2552000  3
   6059   6058   6057   6061     1  0.0000000  0.6508444  3
   6060   6058   6059   6063     1  0.0000000  1.0460000  1
   6060   6058   6059   6063     1  0.0000000  0.0000000  3
   6060   6058   6059   6072     1  0.0000000  1.0460000  1
   6060   6058   6059   6072     1  0.0000000  0.0000000  3
   6060   6058   6059   6062     1  0.0000000  0.6508444  3
   6060   6058   6077   6067     1  0.0000000  1.2552000  3
   6060   6058   6057   6064     1  0.0000000  1.0460000  1
   6060   6058   6057   6064     1  0.0000000  0.0000000  3
   6060   6058   6057   6061     1  0.0000000  0.6508444  3
   6061   6057   6058   6077     1  0.0000000  0.6508444  3
   6061   6057   6064   6066     1  0.0000000  0.6973333  3
   6061   6057   6055   6075     1  0.0000000  1.0460000  1
   6061   6057   6055   6075     1  0.0000000  0.0000000  3
   6061   6057   6055   6074     1  0.0000000  0.6508444  3
   6062   6059   6063   6073     1  0.0000000  0.6973333  3
   6062   6059   6058   6077     1  0.0000000  0.6508444  3
   6064   6057   6055   6074     1  0.0000000  1.0460000  1
   6064   6057   6055   6074     1  0.0000000  0.0000000  3
   6065   6054   6055   6074     1  0.0000000  0.6508444  3
   6068   6065   6070   6071     1  0.0000000  0.6973333  3
   6068   6065   6054   6072     1  0.0000000  1.0460000  1
   6068   6065   6054   6072     1  0.0000000  0.0000000  3
   6069   6065   6070   6071     1  0.0000000  0.6973333  3
   6069   6065   6054   6072     1  0.0000000  1.0460000  1
   6069   6065   6054   6072     1  0.0000000  0.0000000  3
   6072   6059   6063   6073     1  0.0000000  0.6973333  3
   6072   6054   6055   6074     1  0.0000000  1.0460000  1
   6072   6054   6055   6074     1  0.0000000  0.0000000  3
   6074   6055   6075   6076     1  0.0000000  0.6973333  3
   6079   6081   6083   6085     1  0.0000000  0.6508444  3
   6079   6081   6083   6086     1  0.0000000  0.6508444  3
   6080   6079   6081   6083     1  0.0000000  0.0000000  2
   6080   6079   6081   6082     1  0.0000000  0.0000000  2
   6080   6079   6081   6084     1  0.0000000  0.0000000  2
   6081   6083   6087   6152     1  0.0000000  0.6508444  3
   6082   6081   6083   6087     1  0.0000000  0.6508444  3
   6082   6081   6083   6085     1  0.0000000  0.6508444  3
   6082   6081   6083   6086     1  0.0000000  0.6508444  3
   6083   6087   6088   6097     1  0.0000000  0.6508444  3
   6083   6087   6088   6098     1  0.0000000  0.6508444  3
   6083   6087   6089   6090     1  0.0000000  0.6508444  3
   6083   6087   6089   6092     1  0.0000000  0.6508444  3
   6084   6081   6083   6087     1  0.0000000  0.6508444  3
   6084   6081   6083   6085     1  0.0000000  0.6508444  3
   6084   6081   6083   6086     1  0.0000000  0.6508444  3
   6085   6083   6087   6088     1  0.0000000  0.6508444  3
   6085   6083   6087   6089     1  0.0000000  0.6508444  3
   6085   6083   6087   6152     1  0.0000000  0.6508444  3
   6086   6083   6087   6088     1  0.0000000  0.6508444  3
   6086   6083   6087   6089     1  0.0000000  0.6508444  3
   6086   6083   6087   6152     1  0.0000000  0.6508444  3
   6087   6088   6099   6100     1  0.0000000  0.6508444  3
   6087   6088   6099   6101     1  0.0000000  0.6508444  3
   6087   6089   6091   6093     1  0.0000000  0.6508444  3
   6087   6089   6091   6094     1  0.0000000  0.6508444  3
   6088   6087   6089   6090     1  0.0000000  0.6508444  3
   6088   6087   6089   6092     1  0.0000000  0.6508444  3
   6089   6087   6088   6097     1  0.0000000  0.6508444  3
   6089   6087   6088   6098     1  0.0000000  0.6508444  3
   6090   6089   6087   6152     1  0.0000000  0.6508444  3
   6090   6089   6091   6095     1  0.0000000  0.6508444  3
   6090   6089   6091   6093     1  0.0000000  0.6508444  3
   6090   6089   6091   6094     1  0.0000000  0.6508444  3
   6091   6089   6087   6152     1  0.0000000  0.6508444  3
   6091   6095   6127   6117     1  180.0000771  6.0668000  2
   6091   6095   6127   6117     1  180.0000771  1.4644000  4
   6092   6089   6087   6152     1  0.0000000  0.6508444  3
   6092   6089   6091   6095     1  0.0000000  0.6508444  3
   6092   6089   6091   6093     1  0.0000000  0.6508444  3
   6092   6089   6091   6094     1  0.0000000  0.6508444  3
   6093   6091   6095   6096     1  0.0000000  3.3472000  1
   6093   6091   6095   6096     1  0.0000000  0.0000000  2
   6093   6091   6095   6096     1  180.0000771  0.3347200  3
   6093   6091   6095   6127     1  180.0000771  0.0000000  2
   6094   6091   6095   6096     1  0.0000000  3.3472000  1
   6094   6091   6095   6096     1  0.0000000  0.0000000  2
   6094   6091   6095   6096     1  180.0000771  0.3347200  3
   6094   6091   6095   6127     1  180.0000771  0.0000000  2
   6095   6127   6108   6110     1  0.0000000  1.2552000  3
   6096   6095   6127   6117     1  180.0000771  6.0668000  2
   6096   6095   6127   6117     1  180.0000771  1.4644000  4
   6097   6088   6087   6152     1  0.0000000  0.6508444  3
   6097   6088   6099   6102     1  0.0000000  0.6508444  3
   6097   6088   6099   6100     1  0.0000000  0.6508444  3
   6097   6088   6099   6101     1  0.0000000  0.6508444  3
   6098   6088   6087   6152     1  0.0000000  0.6508444  3
   6098   6088   6099   6102     1  0.0000000  0.6508444  3
   6098   6088   6099   6100     1  0.0000000  0.6508444  3
   6098   6088   6099   6101     1  0.0000000  0.6508444  3
   6099   6088   6087   6152     1  0.0000000  0.6508444  3
   6099   6102   6151   6141     1  180.0000771  6.0668000  2
   6099   6102   6151   6141     1  180.0000771  1.4644000  4
   6100   6099   6102   6103     1  0.0000000  3.3472000  1
   6100   6099   6102   6103     1  0.0000000  0.0000000  2
   6100   6099   6102   6103     1  180.0000771  0.3347200  3
   6100   6099   6102   6151     1  180.0000771  0.0000000  2
   6101   6099   6102   6103     1  0.0000000  3.3472000  1
   6101   6099   6102   6103     1  0.0000000  0.0000000  2
   6101   6099   6102   6103     1  180.0000771  0.3347200  3
   6101   6099   6102   6151     1  180.0000771  0.0000000  2
   6102   6151   6132   6134     1  0.0000000  1.2552000  3
   6103   6102   6151   6141     1  180.0000771  6.0668000  2
   6103   6102   6151   6141     1  180.0000771  1.4644000  4
   6104   6105   6107   6111     1  0.0000000  0.6508444  3
   6104   6105   6125   6126     1  0.0000000  1.0460000  1
   6104   6105   6125   6126     1  0.0000000  0.6694400  3
   6104   6115   6120   6121     1  0.0000000  1.0460000  1
   6104   6115   6120   6121     1  0.0000000  0.6694400  3
   6104   6122   6109   6112     1  0.0000000  1.6038667  3
   6105   6104   6115   6118     1  0.0000000  0.6508444  3
   6105   6104   6115   6119     1  0.0000000  0.6508444  3
   6105   6107   6108   6110     1  0.0000000  0.6508444  3
   6105   6107   6114   6116     1  0.0000000  1.0460000  1
   6105   6107   6114   6116     1  0.0000000  0.6694400  3
   6106   6104   6105   6107     1  0.0000000  0.6508444  3
   6106   6104   6105   6125     1  0.0000000  1.0460000  1
   6106   6104   6105   6125     1  0.0000000  0.0000000  3
   6106   6104   6105   6124     1  0.0000000  0.6508444  3
   6106   6104   6115   6120     1  0.0000000  1.0460000  1
   6106   6104   6115   6120     1  0.0000000  0.0000000  3
   6106   6104   6115   6118     1  0.0000000  0.6508444  3
   6106   6104   6115   6119     1  0.0000000  0.6508444  3
   6106   6104   6122   6109     1  0.0000000  1.6038667  3
   6107   6105   6125   6126     1  0.0000000  1.0460000  1
   6107   6105   6125   6126     1  0.0000000  0.6694400  3
   6107   6108   6109   6112     1  0.0000000  0.6508444  3
   6107   6108   6127   6117     1  0.0000000  1.2552000  3
   6108   6107   6105   6124     1  0.0000000  0.6508444  3
   6108   6107   6114   6116     1  0.0000000  1.0460000  1
   6108   6107   6114   6116     1  0.0000000  0.6694400  3
   6108   6109   6113   6123     1  0.0000000  1.0460000  1
   6108   6109   6113   6123     1  0.0000000  0.6694400  3
   6109   6108   6107   6111     1  0.0000000  0.6508444  3
   6109   6108   6127   6117     1  0.0000000  1.2552000  3
   6110   6108   6107   6114     1  0.0000000  1.0460000  1
   6110   6108   6107   6114     1  0.0000000  0.0000000  3
   6110   6108   6107   6111     1  0.0000000  0.6508444  3
   6110   6108   6109   6113     1  0.0000000  1.0460000  1
   6110   6108   6109   6113     1  0.0000000  0.0000000  3
   6110   6108   6109   6122     1  0.0000000  1.0460000  1
   6110   6108   6109   6122     1  0.0000000  0.0000000  3
   6110   6108   6109   6112     1  0.0000000  0.6508444  3
   6110   6108   6127   6117     1  0.0000000  1.2552000  3
   6111   6107   6105   6125     1  0.0000000  1.0460000  1
   6111   6107   6105   6125     1  0.0000000  0.0000000  3
   6111   6107   6105   6124     1  0.0000000  0.6508444  3
   6111   6107   6108   6127     1  0.0000000  0.6508444  3
   6111   6107   6114   6116     1  0.0000000  0.6973333  3
   6112   6109   6108   6127     1  0.0000000  0.6508444  3
   6112   6109   6113   6123     1  0.0000000  0.6973333  3
   6114   6107   6105   6124     1  0.0000000  1.0460000  1
   6114   6107   6105   6124     1  0.0000000  0.0000000  3
   6115   6104   6105   6124     1  0.0000000  0.6508444  3
   6118   6115   6104   6122     1  0.0000000  1.0460000  1
   6118   6115   6104   6122     1  0.0000000  0.0000000  3
   6118   6115   6120   6121     1  0.0000000  0.6973333  3
   6119   6115   6104   6122     1  0.0000000  1.0460000  1
   6119   6115   6104   6122     1  0.0000000  0.0000000  3
   6119   6115   6120   6121     1  0.0000000  0.6973333  3
   6122   6104   6105   6124     1  0.0000000  1.0460000  1
   6122   6104   6105   6124     1  0.0000000  0.0000000  3
   6122   6109   6113   6123     1  0.0000000  0.6973333  3
   6124   6105   6125   6126     1  0.0000000  0.6973333  3
   6128   6129   6131   6135     1  0.0000000  0.6508444  3
   6128   6129   6149   6150     1  0.0000000  1.0460000  1
   6128   6129   6149   6150     1  0.0000000  0.6694400  3
   6128   6139   6144   6145     1  0.0000000  1.0460000  1
   6128   6139   6144   6145     1  0.0000000  0.6694400  3
   6128   6146   6133   6136     1  0.0000000  1.6038667  3
   6129   6128   6139   6142     1  0.0000000  0.6508444  3
   6129   6128   6139   6143     1  0.0000000  0.6508444  3
   6129   6131   6132   6134     1  0.0000000  0.6508444  3
   6129   6131   6138   6140     1  0.0000000  1.0460000  1
   6129   6131   6138   6140     1  0.0000000  0.6694400  3
   6130   6128   6129   6131     1  0.0000000  0.6508444  3
   6130   6128   6129   6149     1  0.0000000  1.0460000  1
   6130   6128   6129   6149     1  0.0000000  0.0000000  3
   6130   6128   6129   6148     1  0.0000000  0.6508444  3
   6130   6128   6139   6144     1  0.0000000  1.0460000  1
   6130   6128   6139   6144     1  0.0000000  0.0000000  3
   6130   6128   6139   6142     1  0.0000000  0.6508444  3
   6130   6128   6139   6143     1  0.0000000  0.6508444  3
   6130   6128   6146   6133     1  0.0000000  1.6038667  3
   6131   6129   6149   6150     1  0.0000000  1.0460000  1
   6131   6129   6149   6150     1  0.0000000  0.6694400  3
   6131   6132   6133   6136     1  0.0000000  0.6508444  3
   6131   6132   6151   6141     1  0.0000000  1.2552000  3
   6132   6131   6129   6148     1  0.0000000  0.6508444  3
   6132   6131   6138   6140     1  0.0000000  1.0460000  1
   6132   6131   6138   6140     1  0.0000000  0.6694400  3
   6132   6133   6137   6147     1  0.0000000  1.0460000  1
   6132   6133   6137   6147     1  0.0000000  0.6694400  3
   6133   6132   6131   6135     1  0.0000000  0.6508444  3
   6133   6132   6151   6141     1  0.0000000  1.2552000  3
   6134   6132   6131   6138     1  0.0000000  1.0460000  1
   6134   6132   6131   6138     1  0.0000000  0.0000000  3
   6134   6132   6131   6135     1  0.0000000  0.6508444  3
   6134   6132   6133   6137     1  0.0000000  1.0460000  1
   6134   6132   6133   6137     1  0.0000000  0.0000000  3
   6134   6132   6133   6146     1  0.0000000  1.0460000  1
   6134   6132   6133   6146     1  0.0000000  0.0000000  3
   6134   6132   6133   6136     1  0.0000000  0.6508444  3
   6134   6132   6151   6141     1  0.0000000  1.2552000  3
   6135   6131   6129   6149     1  0.0000000  1.0460000  1
   6135   6131   6129   6149     1  0.0000000  0.0000000  3
   6135   6131   6129   6148     1  0.0000000  0.6508444  3
   6135   6131   6132   6151     1  0.0000000  0.6508444  3
   6135   6131   6138   6140     1  0.0000000  0.6973333  3
   6136   6133   6132   6151     1  0.0000000  0.6508444  3
   6136   6133   6137   6147     1  0.0000000  0.6973333  3
   6138   6131   6129   6148     1  0.0000000  1.0460000  1
   6138   6131   6129   6148     1  0.0000000  0.0000000  3
   6139   6128   6129   6148     1  0.0000000  0.6508444  3
   6142   6139   6128   6146     1  0.0000000  1.0460000  1
   6142   6139   6128   6146     1  0.0000000  0.0000000  3
   6142   6139   6144   6145     1  0.0000000  0.6973333  3
   6143   6139   6128   6146     1  0.0000000  1.0460000  1
   6143   6139   6128   6146     1  0.0000000  0.0000000  3
   6143   6139   6144   6145     1  0.0000000  0.6973333  3
   6146   6128   6129   6148     1  0.0000000  1.0460000  1
   6146   6128   6129   6148     1  0.0000000  0.0000000  3
   6146   6133   6137   6147     1  0.0000000  0.6973333  3
   6148   6129   6149   6150     1  0.0000000  0.6973333  3
   6153   6155   6157   6159     1  0.0000000  0.6508444  3
   6153   6155   6157   6160     1  0.0000000  0.6508444  3
   6154   6153   6155   6157     1  0.0000000  0.0000000  2
   6154   6153   6155   6156     1  0.0000000  0.0000000  2
   6154   6153   6155   6158     1  0.0000000  0.0000000  2
   6155   6157   6161   6226     1  0.0000000  0.6508444  3
   6156   6155   6157   6161     1  0.0000000  0.6508444  3
   6156   6155   6157   6159     1  0.0000000  0.6508444  3
   6156   6155   6157   6160     1  0.0000000  0.6508444  3
   6157   6161   6162   6171     1  0.0000000  0.6508444  3
   6157   6161   6162   6172     1  0.0000000  0.6508444  3
   6157   6161   6163   6164     1  0.0000000  0.6508444  3
   6157   6161   6163   6166     1  0.0000000  0.6508444  3
   6158   6155   6157   6161     1  0.0000000  0.6508444  3
   6158   6155   6157   6159     1  0.0000000  0.6508444  3
   6158   6155   6157   6160     1  0.0000000  0.6508444  3
   6159   6157   6161   6162     1  0.0000000  0.6508444  3
   6159   6157   6161   6163     1  0.0000000  0.6508444  3
   6159   6157   6161   6226     1  0.0000000  0.6508444  3
   6160   6157   6161   6162     1  0.0000000  0.6508444  3
   6160   6157   6161   6163     1  0.0000000  0.6508444  3
   6160   6157   6161   6226     1  0.0000000  0.6508444  3
   6161   6162   6173   6174     1  0.0000000  0.6508444  3
   6161   6162   6173   6175     1  0.0000000  0.6508444  3
   6161   6163   6165   6167     1  0.0000000  0.6508444  3
   6161   6163   6165   6168     1  0.0000000  0.6508444  3
   6162   6161   6163   6164     1  0.0000000  0.6508444  3
   6162   6161   6163   6166     1  0.0000000  0.6508444  3
   6163   6161   6162   6171     1  0.0000000  0.6508444  3
   6163   6161   6162   6172     1  0.0000000  0.6508444  3
   6164   6163   6165   6169     1  0.0000000  0.6508444  3
   6164   6163   6165   6167     1  0.0000000  0.6508444  3
   6164   6163   6165   6168     1  0.0000000  0.6508444  3
   6164   6163   6161   6226     1  0.0000000  0.6508444  3
   6165   6169   6201   6191     1  180.0000771  6.0668000  2
   6165   6169   6201   6191     1  180.0000771  1.4644000  4
   6165   6163   6161   6226     1  0.0000000  0.6508444  3
   6166   6163   6165   6169     1  0.0000000  0.6508444  3
   6166   6163   6165   6167     1  0.0000000  0.6508444  3
   6166   6163   6165   6168     1  0.0000000  0.6508444  3
   6166   6163   6161   6226     1  0.0000000  0.6508444  3
   6167   6165   6169   6170     1  0.0000000  3.3472000  1
   6167   6165   6169   6170     1  0.0000000  0.0000000  2
   6167   6165   6169   6170     1  180.0000771  0.3347200  3
   6167   6165   6169   6201     1  180.0000771  0.0000000  2
   6168   6165   6169   6170     1  0.0000000  3.3472000  1
   6168   6165   6169   6170     1  0.0000000  0.0000000  2
   6168   6165   6169   6170     1  180.0000771  0.3347200  3
   6168   6165   6169   6201     1  180.0000771  0.0000000  2
   6169   6201   6182   6184     1  0.0000000  1.2552000  3
   6170   6169   6201   6191     1  180.0000771  6.0668000  2
   6170   6169   6201   6191     1  180.0000771  1.4644000  4
   6171   6162   6173   6176     1  0.0000000  0.6508444  3
   6171   6162   6173   6174     1  0.0000000  0.6508444  3
   6171   6162   6173   6175     1  0.0000000  0.6508444  3
   6171   6162   6161   6226     1  0.0000000  0.6508444  3
   6172   6162   6173   6176     1  0.0000000  0.6508444  3
   6172   6162   6173   6174     1  0.0000000  0.6508444  3
   6172   6162   6173   6175     1  0.0000000  0.6508444  3
   6172   6162   6161   6226     1  0.0000000  0.6508444  3
   6173   6176   6225   6215     1  180.0000771  6.0668000  2
   6173   6176   6225   6215     1  180.0000771  1.4644000  4
   6173   6162   6161   6226     1  0.0000000  0.6508444  3
   6174   6173   6176   6177     1  0.0000000  3.3472000  1
   6174   6173   6176   6177     1  0.0000000  0.0000000  2
   6174   6173   6176   6177     1  180.0000771  0.3347200  3
   6174   6173   6176   6225     1  180.0000771  0.0000000  2
   6175   6173   6176   6177     1  0.0000000  3.3472000  1
   6175   6173   6176   6177     1  0.0000000  0.0000000  2
   6175   6173   6176   6177     1  180.0000771  0.3347200  3
   6175   6173   6176   6225     1  180.0000771  0.0000000  2
   6176   6225   6206   6208     1  0.0000000  1.2552000  3
   6177   6176   6225   6215     1  180.0000771  6.0668000  2
   6177   6176   6225   6215     1  180.0000771  1.4644000  4
   6178   6179   6181   6185     1  0.0000000  0.6508444  3
   6178   6179   6199   6200     1  0.0000000  1.0460000  1
   6178   6179   6199   6200     1  0.0000000  0.6694400  3
   6178   6189   6194   6195     1  0.0000000  1.0460000  1
   6178   6189   6194   6195     1  0.0000000  0.6694400  3
   6178   6196   6183   6186     1  0.0000000  1.6038667  3
   6179   6181   6182   6184     1  0.0000000  0.6508444  3
   6179   6181   6188   6190     1  0.0000000  1.0460000  1
   6179   6181   6188   6190     1  0.0000000  0.6694400  3
   6179   6178   6189   6192     1  0.0000000  0.6508444  3
   6179   6178   6189   6193     1  0.0000000  0.6508444  3
   6180   6178   6179   6181     1  0.0000000  0.6508444  3
   6180   6178   6179   6199     1  0.0000000  1.0460000  1
   6180   6178   6179   6199     1  0.0000000  0.0000000  3
   6180   6178   6179   6198     1  0.0000000  0.6508444  3
   6180   6178   6189   6194     1  0.0000000  1.0460000  1
   6180   6178   6189   6194     1  0.0000000  0.0000000  3
   6180   6178   6189   6192     1  0.0000000  0.6508444  3
   6180   6178   6189   6193     1  0.0000000  0.6508444  3
   6180   6178   6196   6183     1  0.0000000  1.6038667  3
   6181   6182   6183   6186     1  0.0000000  0.6508444  3
   6181   6182   6201   6191     1  0.0000000  1.2552000  3
   6181   6179   6199   6200     1  0.0000000  1.0460000  1
   6181   6179   6199   6200     1  0.0000000  0.6694400  3
   6182   6183   6187   6197     1  0.0000000  1.0460000  1
   6182   6183   6187   6197     1  0.0000000  0.6694400  3
   6182   6181   6188   6190     1  0.0000000  1.0460000  1
   6182   6181   6188   6190     1  0.0000000  0.6694400  3
   6182   6181   6179   6198     1  0.0000000  0.6508444  3
   6183   6182   6201   6191     1  0.0000000  1.2552000  3
   6183   6182   6181   6185     1  0.0000000  0.6508444  3
   6184   6182   6183   6187     1  0.0000000  1.0460000  1
   6184   6182   6183   6187     1  0.0000000  0.0000000  3
   6184   6182   6183   6196     1  0.0000000  1.0460000  1
   6184   6182   6183   6196     1  0.0000000  0.0000000  3
   6184   6182   6183   6186     1  0.0000000  0.6508444  3
   6184   6182   6201   6191     1  0.0000000  1.2552000  3
   6184   6182   6181   6188     1  0.0000000  1.0460000  1
   6184   6182   6181   6188     1  0.0000000  0.0000000  3
   6184   6182   6181   6185     1  0.0000000  0.6508444  3
   6185   6181   6182   6201     1  0.0000000  0.6508444  3
   6185   6181   6188   6190     1  0.0000000  0.6973333  3
   6185   6181   6179   6199     1  0.0000000  1.0460000  1
   6185   6181   6179   6199     1  0.0000000  0.0000000  3
   6185   6181   6179   6198     1  0.0000000  0.6508444  3
   6186   6183   6187   6197     1  0.0000000  0.6973333  3
   6186   6183   6182   6201     1  0.0000000  0.6508444  3
   6188   6181   6179   6198     1  0.0000000  1.0460000  1
   6188   6181   6179   6198     1  0.0000000  0.0000000  3
   6189   6178   6179   6198     1  0.0000000  0.6508444  3
   6192   6189   6194   6195     1  0.0000000  0.6973333  3
   6192   6189   6178   6196     1  0.0000000  1.0460000  1
   6192   6189   6178   6196     1  0.0000000  0.0000000  3
   6193   6189   6194   6195     1  0.0000000  0.6973333  3
   6193   6189   6178   6196     1  0.0000000  1.0460000  1
   6193   6189   6178   6196     1  0.0000000  0.0000000  3
   6196   6183   6187   6197     1  0.0000000  0.6973333  3
   6196   6178   6179   6198     1  0.0000000  1.0460000  1
   6196   6178   6179   6198     1  0.0000000  0.0000000  3
   6198   6179   6199   6200     1  0.0000000  0.6973333  3
   6202   6203   6205   6209     1  0.0000000  0.6508444  3
   6202   6203   6223   6224     1  0.0000000  1.0460000  1
   6202   6203   6223   6224     1  0.0000000  0.6694400  3
   6202   6213   6218   6219     1  0.0000000  1.0460000  1
   6202   6213   6218   6219     1  0.0000000  0.6694400  3
   6202   6220   6207   6210     1  0.0000000  1.6038667  3
   6203   6205   6206   6208     1  0.0000000  0.6508444  3
   6203   6205   6212   6214     1  0.0000000  1.0460000  1
   6203   6205   6212   6214     1  0.0000000  0.6694400  3
   6203   6202   6213   6216     1  0.0000000  0.6508444  3
   6203   6202   6213   6217     1  0.0000000  0.6508444  3
   6204   6202   6203   6205     1  0.0000000  0.6508444  3
   6204   6202   6203   6223     1  0.0000000  1.0460000  1
   6204   6202   6203   6223     1  0.0000000  0.0000000  3
   6204   6202   6203   6222     1  0.0000000  0.6508444  3
   6204   6202   6213   6218     1  0.0000000  1.0460000  1
   6204   6202   6213   6218     1  0.0000000  0.0000000  3
   6204   6202   6213   6216     1  0.0000000  0.6508444  3
   6204   6202   6213   6217     1  0.0000000  0.6508444  3
   6204   6202   6220   6207     1  0.0000000  1.6038667  3
   6205   6206   6207   6210     1  0.0000000  0.6508444  3
   6205   6206   6225   6215     1  0.0000000  1.2552000  3
   6205   6203   6223   6224     1  0.0000000  1.0460000  1
   6205   6203   6223   6224     1  0.0000000  0.6694400  3
   6206   6207   6211   6221     1  0.0000000  1.0460000  1
   6206   6207   6211   6221     1  0.0000000  0.6694400  3
   6206   6205   6212   6214     1  0.0000000  1.0460000  1
   6206   6205   6212   6214     1  0.0000000  0.6694400  3
   6206   6205   6203   6222     1  0.0000000  0.6508444  3
   6207   6206   6225   6215     1  0.0000000  1.2552000  3
   6207   6206   6205   6209     1  0.0000000  0.6508444  3
   6208   6206   6207   6211     1  0.0000000  1.0460000  1
   6208   6206   6207   6211     1  0.0000000  0.0000000  3
   6208   6206   6207   6220     1  0.0000000  1.0460000  1
   6208   6206   6207   6220     1  0.0000000  0.0000000  3
   6208   6206   6207   6210     1  0.0000000  0.6508444  3
   6208   6206   6225   6215     1  0.0000000  1.2552000  3
   6208   6206   6205   6212     1  0.0000000  1.0460000  1
   6208   6206   6205   6212     1  0.0000000  0.0000000  3
   6208   6206   6205   6209     1  0.0000000  0.6508444  3
   6209   6205   6206   6225     1  0.0000000  0.6508444  3
   6209   6205   6212   6214     1  0.0000000  0.6973333  3
   6209   6205   6203   6223     1  0.0000000  1.0460000  1
   6209   6205   6203   6223     1  0.0000000  0.0000000  3
   6209   6205   6203   6222     1  0.0000000  0.6508444  3
   6210   6207   6211   6221     1  0.0000000  0.6973333  3
   6210   6207   6206   6225     1  0.0000000  0.6508444  3
   6212   6205   6203   6222     1  0.0000000  1.0460000  1
   6212   6205   6203   6222     1  0.0000000  0.0000000  3
   6213   6202   6203   6222     1  0.0000000  0.6508444  3
   6216   6213   6218   6219     1  0.0000000  0.6973333  3
   6216   6213   6202   6220     1  0.0000000  1.0460000  1
   6216   6213   6202   6220     1  0.0000000  0.0000000  3
   6217   6213   6218   6219     1  0.0000000  0.6973333  3
   6217   6213   6202   6220     1  0.0000000  1.0460000  1
   6217   6213   6202   6220     1  0.0000000  0.0000000  3
   6220   6207   6211   6221     1  0.0000000  0.6973333  3
   6220   6202   6203   6222     1  0.0000000  1.0460000  1
   6220   6202   6203   6222     1  0.0000000  0.0000000  3
   6222   6203   6223   6224     1  0.0000000  0.6973333  3
   6227   6229   6231   6233     1  0.0000000  0.6508444  3
   6227   6229   6231   6234     1  0.0000000  0.6508444  3
   6228   6227   6229   6231     1  0.0000000  0.0000000  2
   6228   6227   6229   6230     1  0.0000000  0.0000000  2
   6228   6227   6229   6232     1  0.0000000  0.0000000  2
   6229   6231   6235   6300     1  0.0000000  0.6508444  3
   6230   6229   6231   6235     1  0.0000000  0.6508444  3
   6230   6229   6231   6233     1  0.0000000  0.6508444  3
   6230   6229   6231   6234     1  0.0000000  0.6508444  3
   6231   6235   6236   6245     1  0.0000000  0.6508444  3
   6231   6235   6236   6246     1  0.0000000  0.6508444  3
   6231   6235   6237   6238     1  0.0000000  0.6508444  3
   6231   6235   6237   6240     1  0.0000000  0.6508444  3
   6232   6229   6231   6235     1  0.0000000  0.6508444  3
   6232   6229   6231   6233     1  0.0000000  0.6508444  3
   6232   6229   6231   6234     1  0.0000000  0.6508444  3
   6233   6231   6235   6236     1  0.0000000  0.6508444  3
   6233   6231   6235   6237     1  0.0000000  0.6508444  3
   6233   6231   6235   6300     1  0.0000000  0.6508444  3
   6234   6231   6235   6236     1  0.0000000  0.6508444  3
   6234   6231   6235   6237     1  0.0000000  0.6508444  3
   6234   6231   6235   6300     1  0.0000000  0.6508444  3
   6235   6236   6247   6248     1  0.0000000  0.6508444  3
   6235   6236   6247   6249     1  0.0000000  0.6508444  3
   6235   6237   6239   6241     1  0.0000000  0.6508444  3
   6235   6237   6239   6242     1  0.0000000  0.6508444  3
   6236   6235   6237   6238     1  0.0000000  0.6508444  3
   6236   6235   6237   6240     1  0.0000000  0.6508444  3
   6237   6235   6236   6245     1  0.0000000  0.6508444  3
   6237   6235   6236   6246     1  0.0000000  0.6508444  3
   6238   6237   6235   6300     1  0.0000000  0.6508444  3
   6238   6237   6239   6243     1  0.0000000  0.6508444  3
   6238   6237   6239   6241     1  0.0000000  0.6508444  3
   6238   6237   6239   6242     1  0.0000000  0.6508444  3
   6239   6237   6235   6300     1  0.0000000  0.6508444  3
   6239   6243   6275   6265     1  180.0000771  6.0668000  2
   6239   6243   6275   6265     1  180.0000771  1.4644000  4
   6240   6237   6235   6300     1  0.0000000  0.6508444  3
   6240   6237   6239   6243     1  0.0000000  0.6508444  3
   6240   6237   6239   6241     1  0.0000000  0.6508444  3
   6240   6237   6239   6242     1  0.0000000  0.6508444  3
   6241   6239   6243   6244     1  0.0000000  3.3472000  1
   6241   6239   6243   6244     1  0.0000000  0.0000000  2
   6241   6239   6243   6244     1  180.0000771  0.3347200  3
   6241   6239   6243   6275     1  180.0000771  0.0000000  2
   6242   6239   6243   6244     1  0.0000000  3.3472000  1
   6242   6239   6243   6244     1  0.0000000  0.0000000  2
   6242   6239   6243   6244     1  180.0000771  0.3347200  3
   6242   6239   6243   6275     1  180.0000771  0.0000000  2
   6243   6275   6256   6258     1  0.0000000  1.2552000  3
   6244   6243   6275   6265     1  180.0000771  6.0668000  2
   6244   6243   6275   6265     1  180.0000771  1.4644000  4
   6245   6236   6235   6300     1  0.0000000  0.6508444  3
   6245   6236   6247   6250     1  0.0000000  0.6508444  3
   6245   6236   6247   6248     1  0.0000000  0.6508444  3
   6245   6236   6247   6249     1  0.0000000  0.6508444  3
   6246   6236   6235   6300     1  0.0000000  0.6508444  3
   6246   6236   6247   6250     1  0.0000000  0.6508444  3
   6246   6236   6247   6248     1  0.0000000  0.6508444  3
   6246   6236   6247   6249     1  0.0000000  0.6508444  3
   6247   6236   6235   6300     1  0.0000000  0.6508444  3
   6247   6250   6299   6289     1  180.0000771  6.0668000  2
   6247   6250   6299   6289     1  180.0000771  1.4644000  4
   6248   6247   6250   6251     1  0.0000000  3.3472000  1
   6248   6247   6250   6251     1  0.0000000  0.0000000  2
   6248   6247   6250   6251     1  180.0000771  0.3347200  3
   6248   6247   6250   6299     1  180.0000771  0.0000000  2
   6249   6247   6250   6251     1  0.0000000  3.3472000  1
   6249   6247   6250   6251     1  0.0000000  0.0000000  2
   6249   6247   6250   6251     1  180.0000771  0.3347200  3
   6249   6247   6250   6299     1  180.0000771  0.0000000  2
   6250   6299   6280   6282     1  0.0000000  1.2552000  3
   6251   6250   6299   6289     1  180.0000771  6.0668000  2
   6251   6250   6299   6289     1  180.0000771  1.4644000  4
   6252   6253   6255   6259     1  0.0000000  0.6508444  3
   6252   6253   6273   6274     1  0.0000000  1.0460000  1
   6252   6253   6273   6274     1  0.0000000  0.6694400  3
   6252   6263   6268   6269     1  0.0000000  1.0460000  1
   6252   6263   6268   6269     1  0.0000000  0.6694400  3
   6252   6270   6257   6260     1  0.0000000  1.6038667  3
   6253   6252   6263   6266     1  0.0000000  0.6508444  3
   6253   6252   6263   6267     1  0.0000000  0.6508444  3
   6253   6255   6256   6258     1  0.0000000  0.6508444  3
   6253   6255   6262   6264     1  0.0000000  1.0460000  1
   6253   6255   6262   6264     1  0.0000000  0.6694400  3
   6254   6252   6253   6255     1  0.0000000  0.6508444  3
   6254   6252   6253   6273     1  0.0000000  1.0460000  1
   6254   6252   6253   6273     1  0.0000000  0.0000000  3
   6254   6252   6253   6272     1  0.0000000  0.6508444  3
   6254   6252   6263   6268     1  0.0000000  1.0460000  1
   6254   6252   6263   6268     1  0.0000000  0.0000000  3
   6254   6252   6263   6266     1  0.0000000  0.6508444  3
   6254   6252   6263   6267     1  0.0000000  0.6508444  3
   6254   6252   6270   6257     1  0.0000000  1.6038667  3
   6255   6253   6273   6274     1  0.0000000  1.0460000  1
   6255   6253   6273   6274     1  0.0000000  0.6694400  3
   6255   6256   6257   6260     1  0.0000000  0.6508444  3
   6255   6256   6275   6265     1  0.0000000  1.2552000  3
   6256   6255   6253   6272     1  0.0000000  0.6508444  3
   6256   6255   6262   6264     1  0.0000000  1.0460000  1
   6256   6255   6262   6264     1  0.0000000  0.6694400  3
   6256   6257   6261   6271     1  0.0000000  1.0460000  1
   6256   6257   6261   6271     1  0.0000000  0.6694400  3
   6257   6256   6255   6259     1  0.0000000  0.6508444  3
   6257   6256   6275   6265     1  0.0000000  1.2552000  3
   6258   6256   6255   6262     1  0.0000000  1.0460000  1
   6258   6256   6255   6262     1  0.0000000  0.0000000  3
   6258   6256   6255   6259     1  0.0000000  0.6508444  3
   6258   6256   6257   6261     1  0.0000000  1.0460000  1
   6258   6256   6257   6261     1  0.0000000  0.0000000  3
   6258   6256   6257   6270     1  0.0000000  1.0460000  1
   6258   6256   6257   6270     1  0.0000000  0.0000000  3
   6258   6256   6257   6260     1  0.0000000  0.6508444  3
   6258   6256   6275   6265     1  0.0000000  1.2552000  3
   6259   6255   6253   6273     1  0.0000000  1.0460000  1
   6259   6255   6253   6273     1  0.0000000  0.0000000  3
   6259   6255   6253   6272     1  0.0000000  0.6508444  3
   6259   6255   6256   6275     1  0.0000000  0.6508444  3
   6259   6255   6262   6264     1  0.0000000  0.6973333  3
   6260   6257   6256   6275     1  0.0000000  0.6508444  3
   6260   6257   6261   6271     1  0.0000000  0.6973333  3
   6262   6255   6253   6272     1  0.0000000  1.0460000  1
   6262   6255   6253   6272     1  0.0000000  0.0000000  3
   6263   6252   6253   6272     1  0.0000000  0.6508444  3
   6266   6263   6252   6270     1  0.0000000  1.0460000  1
   6266   6263   6252   6270     1  0.0000000  0.0000000  3
   6266   6263   6268   6269     1  0.0000000  0.6973333  3
   6267   6263   6252   6270     1  0.0000000  1.0460000  1
   6267   6263   6252   6270     1  0.0000000  0.0000000  3
   6267   6263   6268   6269     1  0.0000000  0.6973333  3
   6270   6252   6253   6272     1  0.0000000  1.0460000  1
   6270   6252   6253   6272     1  0.0000000  0.0000000  3
   6270   6257   6261   6271     1  0.0000000  0.6973333  3
   6272   6253   6273   6274     1  0.0000000  0.6973333  3
   6276   6277   6279   6283     1  0.0000000  0.6508444  3
   6276   6277   6297   6298     1  0.0000000  1.0460000  1
   6276   6277   6297   6298     1  0.0000000  0.6694400  3
   6276   6287   6292   6293     1  0.0000000  1.0460000  1
   6276   6287   6292   6293     1  0.0000000  0.6694400  3
   6276   6294   6281   6284     1  0.0000000  1.6038667  3
   6277   6276   6287   6290     1  0.0000000  0.6508444  3
   6277   6276   6287   6291     1  0.0000000  0.6508444  3
   6277   6279   6280   6282     1  0.0000000  0.6508444  3
   6277   6279   6286   6288     1  0.0000000  1.0460000  1
   6277   6279   6286   6288     1  0.0000000  0.6694400  3
   6278   6276   6277   6279     1  0.0000000  0.6508444  3
   6278   6276   6277   6297     1  0.0000000  1.0460000  1
   6278   6276   6277   6297     1  0.0000000  0.0000000  3
   6278   6276   6277   6296     1  0.0000000  0.6508444  3
   6278   6276   6287   6292     1  0.0000000  1.0460000  1
   6278   6276   6287   6292     1  0.0000000  0.0000000  3
   6278   6276   6287   6290     1  0.0000000  0.6508444  3
   6278   6276   6287   6291     1  0.0000000  0.6508444  3
   6278   6276   6294   6281     1  0.0000000  1.6038667  3
   6279   6277   6297   6298     1  0.0000000  1.0460000  1
   6279   6277   6297   6298     1  0.0000000  0.6694400  3
   6279   6280   6281   6284     1  0.0000000  0.6508444  3
   6279   6280   6299   6289     1  0.0000000  1.2552000  3
   6280   6279   6277   6296     1  0.0000000  0.6508444  3
   6280   6279   6286   6288     1  0.0000000  1.0460000  1
   6280   6279   6286   6288     1  0.0000000  0.6694400  3
   6280   6281   6285   6295     1  0.0000000  1.0460000  1
   6280   6281   6285   6295     1  0.0000000  0.6694400  3
   6281   6280   6279   6283     1  0.0000000  0.6508444  3
   6281   6280   6299   6289     1  0.0000000  1.2552000  3
   6282   6280   6279   6286     1  0.0000000  1.0460000  1
   6282   6280   6279   6286     1  0.0000000  0.0000000  3
   6282   6280   6279   6283     1  0.0000000  0.6508444  3
   6282   6280   6281   6285     1  0.0000000  1.0460000  1
   6282   6280   6281   6285     1  0.0000000  0.0000000  3
   6282   6280   6281   6294     1  0.0000000  1.0460000  1
   6282   6280   6281   6294     1  0.0000000  0.0000000  3
   6282   6280   6281   6284     1  0.0000000  0.6508444  3
   6282   6280   6299   6289     1  0.0000000  1.2552000  3
   6283   6279   6277   6297     1  0.0000000  1.0460000  1
   6283   6279   6277   6297     1  0.0000000  0.0000000  3
   6283   6279   6277   6296     1  0.0000000  0.6508444  3
   6283   6279   6280   6299     1  0.0000000  0.6508444  3
   6283   6279   6286   6288     1  0.0000000  0.6973333  3
   6284   6281   6280   6299     1  0.0000000  0.6508444  3
   6284   6281   6285   6295     1  0.0000000  0.6973333  3
   6286   6279   6277   6296     1  0.0000000  1.0460000  1
   6286   6279   6277   6296     1  0.0000000  0.0000000  3
   6287   6276   6277   6296     1  0.0000000  0.6508444  3
   6290   6287   6276   6294     1  0.0000000  1.0460000  1
   6290   6287   6276   6294     1  0.0000000  0.0000000  3
   6290   6287   6292   6293     1  0.0000000  0.6973333  3
   6291   6287   6276   6294     1  0.0000000  1.0460000  1
   6291   6287   6276   6294     1  0.0000000  0.0000000  3
   6291   6287   6292   6293     1  0.0000000  0.6973333  3
   6294   6276   6277   6296     1  0.0000000  1.0460000  1
   6294   6276   6277   6296     1  0.0000000  0.0000000  3
   6294   6281   6285   6295     1  0.0000000  0.6973333  3
   6296   6277   6297   6298     1  0.0000000  0.6973333  3
   6301   6303   6305   6307     1  0.0000000  0.6508444  3
   6301   6303   6305   6308     1  0.0000000  0.6508444  3
   6302   6301   6303   6305     1  0.0000000  0.0000000  2
   6302   6301   6303   6304     1  0.0000000  0.0000000  2
   6302   6301   6303   6306     1  0.0000000  0.0000000  2
   6303   6305   6309   6374     1  0.0000000  0.6508444  3
   6304   6303   6305   6309     1  0.0000000  0.6508444  3
   6304   6303   6305   6307     1  0.0000000  0.6508444  3
   6304   6303   6305   6308     1  0.0000000  0.6508444  3
   6305   6309   6310   6319     1  0.0000000  0.6508444  3
   6305   6309   6310   6320     1  0.0000000  0.6508444  3
   6305   6309   6311   6312     1  0.0000000  0.6508444  3
   6305   6309   6311   6314     1  0.0000000  0.6508444  3
   6306   6303   6305   6309     1  0.0000000  0.6508444  3
   6306   6303   6305   6307     1  0.0000000  0.6508444  3
   6306   6303   6305   6308     1  0.0000000  0.6508444  3
   6307   6305   6309   6310     1  0.0000000  0.6508444  3
   6307   6305   6309   6311     1  0.0000000  0.6508444  3
   6307   6305   6309   6374     1  0.0000000  0.6508444  3
   6308   6305   6309   6310     1  0.0000000  0.6508444  3
   6308   6305   6309   6311     1  0.0000000  0.6508444  3
   6308   6305   6309   6374     1  0.0000000  0.6508444  3
   6309   6310   6321   6322     1  0.0000000  0.6508444  3
   6309   6310   6321   6323     1  0.0000000  0.6508444  3
   6309   6311   6313   6315     1  0.0000000  0.6508444  3
   6309   6311   6313   6316     1  0.0000000  0.6508444  3
   6310   6309   6311   6312     1  0.0000000  0.6508444  3
   6310   6309   6311   6314     1  0.0000000  0.6508444  3
   6311   6309   6310   6319     1  0.0000000  0.6508444  3
   6311   6309   6310   6320     1  0.0000000  0.6508444  3
   6312   6311   6313   6317     1  0.0000000  0.6508444  3
   6312   6311   6313   6315     1  0.0000000  0.6508444  3
   6312   6311   6313   6316     1  0.0000000  0.6508444  3
   6312   6311   6309   6374     1  0.0000000  0.6508444  3
   6313   6317   6349   6339     1  180.0000771  6.0668000  2
   6313   6317   6349   6339     1  180.0000771  1.4644000  4
   6313   6311   6309   6374     1  0.0000000  0.6508444  3
   6314   6311   6313   6317     1  0.0000000  0.6508444  3
   6314   6311   6313   6315     1  0.0000000  0.6508444  3
   6314   6311   6313   6316     1  0.0000000  0.6508444  3
   6314   6311   6309   6374     1  0.0000000  0.6508444  3
   6315   6313   6317   6318     1  0.0000000  3.3472000  1
   6315   6313   6317   6318     1  0.0000000  0.0000000  2
   6315   6313   6317   6318     1  180.0000771  0.3347200  3
   6315   6313   6317   6349     1  180.0000771  0.0000000  2
   6316   6313   6317   6318     1  0.0000000  3.3472000  1
   6316   6313   6317   6318     1  0.0000000  0.0000000  2
   6316   6313   6317   6318     1  180.0000771  0.3347200  3
   6316   6313   6317   6349     1  180.0000771  0.0000000  2
   6317   6349   6330   6332     1  0.0000000  1.2552000  3
   6318   6317   6349   6339     1  180.0000771  6.0668000  2
   6318   6317   6349   6339     1  180.0000771  1.4644000  4
   6319   6310   6321   6324     1  0.0000000  0.6508444  3
   6319   6310   6321   6322     1  0.0000000  0.6508444  3
   6319   6310   6321   6323     1  0.0000000  0.6508444  3
   6319   6310   6309   6374     1  0.0000000  0.6508444  3
   6320   6310   6321   6324     1  0.0000000  0.6508444  3
   6320   6310   6321   6322     1  0.0000000  0.6508444  3
   6320   6310   6321   6323     1  0.0000000  0.6508444  3
   6320   6310   6309   6374     1  0.0000000  0.6508444  3
   6321   6324   6373   6363     1  180.0000771  6.0668000  2
   6321   6324   6373   6363     1  180.0000771  1.4644000  4
   6321   6310   6309   6374     1  0.0000000  0.6508444  3
   6322   6321   6324   6325     1  0.0000000  3.3472000  1
   6322   6321   6324   6325     1  0.0000000  0.0000000  2
   6322   6321   6324   6325     1  180.0000771  0.3347200  3
   6322   6321   6324   6373     1  180.0000771  0.0000000  2
   6323   6321   6324   6325     1  0.0000000  3.3472000  1
   6323   6321   6324   6325     1  0.0000000  0.0000000  2
   6323   6321   6324   6325     1  180.0000771  0.3347200  3
   6323   6321   6324   6373     1  180.0000771  0.0000000  2
   6324   6373   6354   6356     1  0.0000000  1.2552000  3
   6325   6324   6373   6363     1  180.0000771  6.0668000  2
   6325   6324   6373   6363     1  180.0000771  1.4644000  4
   6326   6327   6329   6333     1  0.0000000  0.6508444  3
   6326   6327   6347   6348     1  0.0000000  1.0460000  1
   6326   6327   6347   6348     1  0.0000000  0.6694400  3
   6326   6337   6342   6343     1  0.0000000  1.0460000  1
   6326   6337   6342   6343     1  0.0000000  0.6694400  3
   6326   6344   6331   6334     1  0.0000000  1.6038667  3
   6327   6329   6330   6332     1  0.0000000  0.6508444  3
   6327   6329   6336   6338     1  0.0000000  1.0460000  1
   6327   6329   6336   6338     1  0.0000000  0.6694400  3
   6327   6326   6337   6340     1  0.0000000  0.6508444  3
   6327   6326   6337   6341     1  0.0000000  0.6508444  3
   6328   6326   6327   6329     1  0.0000000  0.6508444  3
   6328   6326   6327   6347     1  0.0000000  1.0460000  1
   6328   6326   6327   6347     1  0.0000000  0.0000000  3
   6328   6326   6327   6346     1  0.0000000  0.6508444  3
   6328   6326   6337   6342     1  0.0000000  1.0460000  1
   6328   6326   6337   6342     1  0.0000000  0.0000000  3
   6328   6326   6337   6340     1  0.0000000  0.6508444  3
   6328   6326   6337   6341     1  0.0000000  0.6508444  3
   6328   6326   6344   6331     1  0.0000000  1.6038667  3
   6329   6330   6331   6334     1  0.0000000  0.6508444  3
   6329   6330   6349   6339     1  0.0000000  1.2552000  3
   6329   6327   6347   6348     1  0.0000000  1.0460000  1
   6329   6327   6347   6348     1  0.0000000  0.6694400  3
   6330   6331   6335   6345     1  0.0000000  1.0460000  1
   6330   6331   6335   6345     1  0.0000000  0.6694400  3
   6330   6329   6336   6338     1  0.0000000  1.0460000  1
   6330   6329   6336   6338     1  0.0000000  0.6694400  3
   6330   6329   6327   6346     1  0.0000000  0.6508444  3
   6331   6330   6349   6339     1  0.0000000  1.2552000  3
   6331   6330   6329   6333     1  0.0000000  0.6508444  3
   6332   6330   6331   6335     1  0.0000000  1.0460000  1
   6332   6330   6331   6335     1  0.0000000  0.0000000  3
   6332   6330   6331   6344     1  0.0000000  1.0460000  1
   6332   6330   6331   6344     1  0.0000000  0.0000000  3
   6332   6330   6331   6334     1  0.0000000  0.6508444  3
   6332   6330   6349   6339     1  0.0000000  1.2552000  3
   6332   6330   6329   6336     1  0.0000000  1.0460000  1
   6332   6330   6329   6336     1  0.0000000  0.0000000  3
   6332   6330   6329   6333     1  0.0000000  0.6508444  3
   6333   6329   6330   6349     1  0.0000000  0.6508444  3
   6333   6329   6336   6338     1  0.0000000  0.6973333  3
   6333   6329   6327   6347     1  0.0000000  1.0460000  1
   6333   6329   6327   6347     1  0.0000000  0.0000000  3
   6333   6329   6327   6346     1  0.0000000  0.6508444  3
   6334   6331   6335   6345     1  0.0000000  0.6973333  3
   6334   6331   6330   6349     1  0.0000000  0.6508444  3
   6336   6329   6327   6346     1  0.0000000  1.0460000  1
   6336   6329   6327   6346     1  0.0000000  0.0000000  3
   6337   6326   6327   6346     1  0.0000000  0.6508444  3
   6340   6337   6342   6343     1  0.0000000  0.6973333  3
   6340   6337   6326   6344     1  0.0000000  1.0460000  1
   6340   6337   6326   6344     1  0.0000000  0.0000000  3
   6341   6337   6342   6343     1  0.0000000  0.6973333  3
   6341   6337   6326   6344     1  0.0000000  1.0460000  1
   6341   6337   6326   6344     1  0.0000000  0.0000000  3
   6344   6331   6335   6345     1  0.0000000  0.6973333  3
   6344   6326   6327   6346     1  0.0000000  1.0460000  1
   6344   6326   6327   6346     1  0.0000000  0.0000000  3
   6346   6327   6347   6348     1  0.0000000  0.6973333  3
   6350   6351   6353   6357     1  0.0000000  0.6508444  3
   6350   6351   6371   6372     1  0.0000000  1.0460000  1
   6350   6351   6371   6372     1  0.0000000  0.6694400  3
   6350   6361   6366   6367     1  0.0000000  1.0460000  1
   6350   6361   6366   6367     1  0.0000000  0.6694400  3
   6350   6368   6355   6358     1  0.0000000  1.6038667  3
   6351   6353   6354   6356     1  0.0000000  0.6508444  3
   6351   6353   6360   6362     1  0.0000000  1.0460000  1
   6351   6353   6360   6362     1  0.0000000  0.6694400  3
   6351   6350   6361   6364     1  0.0000000  0.6508444  3
   6351   6350   6361   6365     1  0.0000000  0.6508444  3
   6352   6350   6351   6353     1  0.0000000  0.6508444  3
   6352   6350   6351   6371     1  0.0000000  1.0460000  1
   6352   6350   6351   6371     1  0.0000000  0.0000000  3
   6352   6350   6351   6370     1  0.0000000  0.6508444  3
   6352   6350   6361   6366     1  0.0000000  1.0460000  1
   6352   6350   6361   6366     1  0.0000000  0.0000000  3
   6352   6350   6361   6364     1  0.0000000  0.6508444  3
   6352   6350   6361   6365     1  0.0000000  0.6508444  3
   6352   6350   6368   6355     1  0.0000000  1.6038667  3
   6353   6354   6355   6358     1  0.0000000  0.6508444  3
   6353   6354   6373   6363     1  0.0000000  1.2552000  3
   6353   6351   6371   6372     1  0.0000000  1.0460000  1
   6353   6351   6371   6372     1  0.0000000  0.6694400  3
   6354   6355   6359   6369     1  0.0000000  1.0460000  1
   6354   6355   6359   6369     1  0.0000000  0.6694400  3
   6354   6353   6360   6362     1  0.0000000  1.0460000  1
   6354   6353   6360   6362     1  0.0000000  0.6694400  3
   6354   6353   6351   6370     1  0.0000000  0.6508444  3
   6355   6354   6373   6363     1  0.0000000  1.2552000  3
   6355   6354   6353   6357     1  0.0000000  0.6508444  3
   6356   6354   6355   6359     1  0.0000000  1.0460000  1
   6356   6354   6355   6359     1  0.0000000  0.0000000  3
   6356   6354   6355   6368     1  0.0000000  1.0460000  1
   6356   6354   6355   6368     1  0.0000000  0.0000000  3
   6356   6354   6355   6358     1  0.0000000  0.6508444  3
   6356   6354   6373   6363     1  0.0000000  1.2552000  3
   6356   6354   6353   6360     1  0.0000000  1.0460000  1
   6356   6354   6353   6360     1  0.0000000  0.0000000  3
   6356   6354   6353   6357     1  0.0000000  0.6508444  3
   6357   6353   6354   6373     1  0.0000000  0.6508444  3
   6357   6353   6360   6362     1  0.0000000  0.6973333  3
   6357   6353   6351   6371     1  0.0000000  1.0460000  1
   6357   6353   6351   6371     1  0.0000000  0.0000000  3
   6357   6353   6351   6370     1  0.0000000  0.6508444  3
   6358   6355   6359   6369     1  0.0000000  0.6973333  3
   6358   6355   6354   6373     1  0.0000000  0.6508444  3
   6360   6353   6351   6370     1  0.0000000  1.0460000  1
   6360   6353   6351   6370     1  0.0000000  0.0000000  3
   6361   6350   6351   6370     1  0.0000000  0.6508444  3
   6364   6361   6366   6367     1  0.0000000  0.6973333  3
   6364   6361   6350   6368     1  0.0000000  1.0460000  1
   6364   6361   6350   6368     1  0.0000000  0.0000000  3
   6365   6361   6366   6367     1  0.0000000  0.6973333  3
   6365   6361   6350   6368     1  0.0000000  1.0460000  1
   6365   6361   6350   6368     1  0.0000000  0.0000000  3
   6368   6355   6359   6369     1  0.0000000  0.6973333  3
   6368   6350   6351   6370     1  0.0000000  1.0460000  1
   6368   6350   6351   6370     1  0.0000000  0.0000000  3
   6370   6351   6371   6372     1  0.0000000  0.6973333  3
   6375   6377   6379   6381     1  0.0000000  0.6508444  3
   6375   6377   6379   6382     1  0.0000000  0.6508444  3
   6376   6375   6377   6379     1  0.0000000  0.0000000  2
   6376   6375   6377   6378     1  0.0000000  0.0000000  2
   6376   6375   6377   6380     1  0.0000000  0.0000000  2
   6377   6379   6383   6448     1  0.0000000  0.6508444  3
   6378   6377   6379   6383     1  0.0000000  0.6508444  3
   6378   6377   6379   6381     1  0.0000000  0.6508444  3
   6378   6377   6379   6382     1  0.0000000  0.6508444  3
   6379   6383   6384   6393     1  0.0000000  0.6508444  3
   6379   6383   6384   6394     1  0.0000000  0.6508444  3
   6379   6383   6385   6386     1  0.0000000  0.6508444  3
   6379   6383   6385   6388     1  0.0000000  0.6508444  3
   6380   6377   6379   6383     1  0.0000000  0.6508444  3
   6380   6377   6379   6381     1  0.0000000  0.6508444  3
   6380   6377   6379   6382     1  0.0000000  0.6508444  3
   6381   6379   6383   6384     1  0.0000000  0.6508444  3
   6381   6379   6383   6385     1  0.0000000  0.6508444  3
   6381   6379   6383   6448     1  0.0000000  0.6508444  3
   6382   6379   6383   6384     1  0.0000000  0.6508444  3
   6382   6379   6383   6385     1  0.0000000  0.6508444  3
   6382   6379   6383   6448     1  0.0000000  0.6508444  3
   6383   6384   6395   6396     1  0.0000000  0.6508444  3
   6383   6384   6395   6397     1  0.0000000  0.6508444  3
   6383   6385   6387   6389     1  0.0000000  0.6508444  3
   6383   6385   6387   6390     1  0.0000000  0.6508444  3
   6384   6383   6385   6386     1  0.0000000  0.6508444  3
   6384   6383   6385   6388     1  0.0000000  0.6508444  3
   6385   6383   6384   6393     1  0.0000000  0.6508444  3
   6385   6383   6384   6394     1  0.0000000  0.6508444  3
   6386   6385   6383   6448     1  0.0000000  0.6508444  3
   6386   6385   6387   6391     1  0.0000000  0.6508444  3
   6386   6385   6387   6389     1  0.0000000  0.6508444  3
   6386   6385   6387   6390     1  0.0000000  0.6508444  3
   6387   6385   6383   6448     1  0.0000000  0.6508444  3
   6387   6391   6423   6413     1  180.0000771  6.0668000  2
   6387   6391   6423   6413     1  180.0000771  1.4644000  4
   6388   6385   6383   6448     1  0.0000000  0.6508444  3
   6388   6385   6387   6391     1  0.0000000  0.6508444  3
   6388   6385   6387   6389     1  0.0000000  0.6508444  3
   6388   6385   6387   6390     1  0.0000000  0.6508444  3
   6389   6387   6391   6392     1  0.0000000  3.3472000  1
   6389   6387   6391   6392     1  0.0000000  0.0000000  2
   6389   6387   6391   6392     1  180.0000771  0.3347200  3
   6389   6387   6391   6423     1  180.0000771  0.0000000  2
   6390   6387   6391   6392     1  0.0000000  3.3472000  1
   6390   6387   6391   6392     1  0.0000000  0.0000000  2
   6390   6387   6391   6392     1  180.0000771  0.3347200  3
   6390   6387   6391   6423     1  180.0000771  0.0000000  2
   6391   6423   6404   6406     1  0.0000000  1.2552000  3
   6392   6391   6423   6413     1  180.0000771  6.0668000  2
   6392   6391   6423   6413     1  180.0000771  1.4644000  4
   6393   6384   6383   6448     1  0.0000000  0.6508444  3
   6393   6384   6395   6398     1  0.0000000  0.6508444  3
   6393   6384   6395   6396     1  0.0000000  0.6508444  3
   6393   6384   6395   6397     1  0.0000000  0.6508444  3
   6394   6384   6383   6448     1  0.0000000  0.6508444  3
   6394   6384   6395   6398     1  0.0000000  0.6508444  3
   6394   6384   6395   6396     1  0.0000000  0.6508444  3
   6394   6384   6395   6397     1  0.0000000  0.6508444  3
   6395   6384   6383   6448     1  0.0000000  0.6508444  3
   6395   6398   6447   6437     1  180.0000771  6.0668000  2
   6395   6398   6447   6437     1  180.0000771  1.4644000  4
   6396   6395   6398   6399     1  0.0000000  3.3472000  1
   6396   6395   6398   6399     1  0.0000000  0.0000000  2
   6396   6395   6398   6399     1  180.0000771  0.3347200  3
   6396   6395   6398   6447     1  180.0000771  0.0000000  2
   6397   6395   6398   6399     1  0.0000000  3.3472000  1
   6397   6395   6398   6399     1  0.0000000  0.0000000  2
   6397   6395   6398   6399     1  180.0000771  0.3347200  3
   6397   6395   6398   6447     1  180.0000771  0.0000000  2
   6398   6447   6428   6430     1  0.0000000  1.2552000  3
   6399   6398   6447   6437     1  180.0000771  6.0668000  2
   6399   6398   6447   6437     1  180.0000771  1.4644000  4
   6400   6401   6403   6407     1  0.0000000  0.6508444  3
   6400   6401   6421   6422     1  0.0000000  1.0460000  1
   6400   6401   6421   6422     1  0.0000000  0.6694400  3
   6400   6411   6416   6417     1  0.0000000  1.0460000  1
   6400   6411   6416   6417     1  0.0000000  0.6694400  3
   6400   6418   6405   6408     1  0.0000000  1.6038667  3
   6401   6400   6411   6414     1  0.0000000  0.6508444  3
   6401   6400   6411   6415     1  0.0000000  0.6508444  3
   6401   6403   6404   6406     1  0.0000000  0.6508444  3
   6401   6403   6410   6412     1  0.0000000  1.0460000  1
   6401   6403   6410   6412     1  0.0000000  0.6694400  3
   6402   6400   6401   6403     1  0.0000000  0.6508444  3
   6402   6400   6401   6421     1  0.0000000  1.0460000  1
   6402   6400   6401   6421     1  0.0000000  0.0000000  3
   6402   6400   6401   6420     1  0.0000000  0.6508444  3
   6402   6400   6411   6416     1  0.0000000  1.0460000  1
   6402   6400   6411   6416     1  0.0000000  0.0000000  3
   6402   6400   6411   6414     1  0.0000000  0.6508444  3
   6402   6400   6411   6415     1  0.0000000  0.6508444  3
   6402   6400   6418   6405     1  0.0000000  1.6038667  3
   6403   6401   6421   6422     1  0.0000000  1.0460000  1
   6403   6401   6421   6422     1  0.0000000  0.6694400  3
   6403   6404   6405   6408     1  0.0000000  0.6508444  3
   6403   6404   6423   6413     1  0.0000000  1.2552000  3
   6404   6403   6401   6420     1  0.0000000  0.6508444  3
   6404   6403   6410   6412     1  0.0000000  1.0460000  1
   6404   6403   6410   6412     1  0.0000000  0.6694400  3
   6404   6405   6409   6419     1  0.0000000  1.0460000  1
   6404   6405   6409   6419     1  0.0000000  0.6694400  3
   6405   6404   6403   6407     1  0.0000000  0.6508444  3
   6405   6404   6423   6413     1  0.0000000  1.2552000  3
   6406   6404   6403   6410     1  0.0000000  1.0460000  1
   6406   6404   6403   6410     1  0.0000000  0.0000000  3
   6406   6404   6403   6407     1  0.0000000  0.6508444  3
   6406   6404   6405   6409     1  0.0000000  1.0460000  1
   6406   6404   6405   6409     1  0.0000000  0.0000000  3
   6406   6404   6405   6418     1  0.0000000  1.0460000  1
   6406   6404   6405   6418     1  0.0000000  0.0000000  3
   6406   6404   6405   6408     1  0.0000000  0.6508444  3
   6406   6404   6423   6413     1  0.0000000  1.2552000  3
   6407   6403   6401   6421     1  0.0000000  1.0460000  1
   6407   6403   6401   6421     1  0.0000000  0.0000000  3
   6407   6403   6401   6420     1  0.0000000  0.6508444  3
   6407   6403   6404   6423     1  0.0000000  0.6508444  3
   6407   6403   6410   6412     1  0.0000000  0.6973333  3
   6408   6405   6404   6423     1  0.0000000  0.6508444  3
   6408   6405   6409   6419     1  0.0000000  0.6973333  3
   6410   6403   6401   6420     1  0.0000000  1.0460000  1
   6410   6403   6401   6420     1  0.0000000  0.0000000  3
   6411   6400   6401   6420     1  0.0000000  0.6508444  3
   6414   6411   6400   6418     1  0.0000000  1.0460000  1
   6414   6411   6400   6418     1  0.0000000  0.0000000  3
   6414   6411   6416   6417     1  0.0000000  0.6973333  3
   6415   6411   6400   6418     1  0.0000000  1.0460000  1
   6415   6411   6400   6418     1  0.0000000  0.0000000  3
   6415   6411   6416   6417     1  0.0000000  0.6973333  3
   6418   6400   6401   6420     1  0.0000000  1.0460000  1
   6418   6400   6401   6420     1  0.0000000  0.0000000  3
   6418   6405   6409   6419     1  0.0000000  0.6973333  3
   6420   6401   6421   6422     1  0.0000000  0.6973333  3
   6424   6425   6427   6431     1  0.0000000  0.6508444  3
   6424   6425   6445   6446     1  0.0000000  1.0460000  1
   6424   6425   6445   6446     1  0.0000000  0.6694400  3
   6424   6435   6440   6441     1  0.0000000  1.0460000  1
   6424   6435   6440   6441     1  0.0000000  0.6694400  3
   6424   6442   6429   6432     1  0.0000000  1.6038667  3
   6425   6424   6435   6438     1  0.0000000  0.6508444  3
   6425   6424   6435   6439     1  0.0000000  0.6508444  3
   6425   6427   6428   6430     1  0.0000000  0.6508444  3
   6425   6427   6434   6436     1  0.0000000  1.0460000  1
   6425   6427   6434   6436     1  0.0000000  0.6694400  3
   6426   6424   6425   6427     1  0.0000000  0.6508444  3
   6426   6424   6425   6445     1  0.0000000  1.0460000  1
   6426   6424   6425   6445     1  0.0000000  0.0000000  3
   6426   6424   6425   6444     1  0.0000000  0.6508444  3
   6426   6424   6435   6440     1  0.0000000  1.0460000  1
   6426   6424   6435   6440     1  0.0000000  0.0000000  3
   6426   6424   6435   6438     1  0.0000000  0.6508444  3
   6426   6424   6435   6439     1  0.0000000  0.6508444  3
   6426   6424   6442   6429     1  0.0000000  1.6038667  3
   6427   6425   6445   6446     1  0.0000000  1.0460000  1
   6427   6425   6445   6446     1  0.0000000  0.6694400  3
   6427   6428   6429   6432     1  0.0000000  0.6508444  3
   6427   6428   6447   6437     1  0.0000000  1.2552000  3
   6428   6427   6425   6444     1  0.0000000  0.6508444  3
   6428   6427   6434   6436     1  0.0000000  1.0460000  1
   6428   6427   6434   6436     1  0.0000000  0.6694400  3
   6428   6429   6433   6443     1  0.0000000  1.0460000  1
   6428   6429   6433   6443     1  0.0000000  0.6694400  3
   6429   6428   6427   6431     1  0.0000000  0.6508444  3
   6429   6428   6447   6437     1  0.0000000  1.2552000  3
   6430   6428   6427   6434     1  0.0000000  1.0460000  1
   6430   6428   6427   6434     1  0.0000000  0.0000000  3
   6430   6428   6427   6431     1  0.0000000  0.6508444  3
   6430   6428   6429   6433     1  0.0000000  1.0460000  1
   6430   6428   6429   6433     1  0.0000000  0.0000000  3
   6430   6428   6429   6442     1  0.0000000  1.0460000  1
   6430   6428   6429   6442     1  0.0000000  0.0000000  3
   6430   6428   6429   6432     1  0.0000000  0.6508444  3
   6430   6428   6447   6437     1  0.0000000  1.2552000  3
   6431   6427   6425   6445     1  0.0000000  1.0460000  1
   6431   6427   6425   6445     1  0.0000000  0.0000000  3
   6431   6427   6425   6444     1  0.0000000  0.6508444  3
   6431   6427   6428   6447     1  0.0000000  0.6508444  3
   6431   6427   6434   6436     1  0.0000000  0.6973333  3
   6432   6429   6428   6447     1  0.0000000  0.6508444  3
   6432   6429   6433   6443     1  0.0000000  0.6973333  3
   6434   6427   6425   6444     1  0.0000000  1.0460000  1
   6434   6427   6425   6444     1  0.0000000  0.0000000  3
   6435   6424   6425   6444     1  0.0000000  0.6508444  3
   6438   6435   6424   6442     1  0.0000000  1.0460000  1
   6438   6435   6424   6442     1  0.0000000  0.0000000  3
   6438   6435   6440   6441     1  0.0000000  0.6973333  3
   6439   6435   6424   6442     1  0.0000000  1.0460000  1
   6439   6435   6424   6442     1  0.0000000  0.0000000  3
   6439   6435   6440   6441     1  0.0000000  0.6973333  3
   6442   6424   6425   6444     1  0.0000000  1.0460000  1
   6442   6424   6425   6444     1  0.0000000  0.0000000  3
   6442   6429   6433   6443     1  0.0000000  0.6973333  3
   6444   6425   6445   6446     1  0.0000000  0.6973333  3
   6449   6451   6453   6455     1  0.0000000  0.6508444  3
   6449   6451   6453   6456     1  0.0000000  0.6508444  3
   6450   6449   6451   6453     1  0.0000000  0.0000000  2
   6450   6449   6451   6452     1  0.0000000  0.0000000  2
   6450   6449   6451   6454     1  0.0000000  0.0000000  2
   6451   6453   6457   6522     1  0.0000000  0.6508444  3
   6452   6451   6453   6457     1  0.0000000  0.6508444  3
   6452   6451   6453   6455     1  0.0000000  0.6508444  3
   6452   6451   6453   6456     1  0.0000000  0.6508444  3
   6453   6457   6458   6467     1  0.0000000  0.6508444  3
   6453   6457   6458   6468     1  0.0000000  0.6508444  3
   6453   6457   6459   6460     1  0.0000000  0.6508444  3
   6453   6457   6459   6462     1  0.0000000  0.6508444  3
   6454   6451   6453   6457     1  0.0000000  0.6508444  3
   6454   6451   6453   6455     1  0.0000000  0.6508444  3
   6454   6451   6453   6456     1  0.0000000  0.6508444  3
   6455   6453   6457   6458     1  0.0000000  0.6508444  3
   6455   6453   6457   6459     1  0.0000000  0.6508444  3
   6455   6453   6457   6522     1  0.0000000  0.6508444  3
   6456   6453   6457   6458     1  0.0000000  0.6508444  3
   6456   6453   6457   6459     1  0.0000000  0.6508444  3
   6456   6453   6457   6522     1  0.0000000  0.6508444  3
   6457   6458   6469   6470     1  0.0000000  0.6508444  3
   6457   6458   6469   6471     1  0.0000000  0.6508444  3
   6457   6459   6461   6463     1  0.0000000  0.6508444  3
   6457   6459   6461   6464     1  0.0000000  0.6508444  3
   6458   6457   6459   6460     1  0.0000000  0.6508444  3
   6458   6457   6459   6462     1  0.0000000  0.6508444  3
   6459   6457   6458   6467     1  0.0000000  0.6508444  3
   6459   6457   6458   6468     1  0.0000000  0.6508444  3
   6460   6459   6461   6465     1  0.0000000  0.6508444  3
   6460   6459   6461   6463     1  0.0000000  0.6508444  3
   6460   6459   6461   6464     1  0.0000000  0.6508444  3
   6460   6459   6457   6522     1  0.0000000  0.6508444  3
   6461   6465   6497   6487     1  180.0000771  6.0668000  2
   6461   6465   6497   6487     1  180.0000771  1.4644000  4
   6461   6459   6457   6522     1  0.0000000  0.6508444  3
   6462   6459   6461   6465     1  0.0000000  0.6508444  3
   6462   6459   6461   6463     1  0.0000000  0.6508444  3
   6462   6459   6461   6464     1  0.0000000  0.6508444  3
   6462   6459   6457   6522     1  0.0000000  0.6508444  3
   6463   6461   6465   6466     1  0.0000000  3.3472000  1
   6463   6461   6465   6466     1  0.0000000  0.0000000  2
   6463   6461   6465   6466     1  180.0000771  0.3347200  3
   6463   6461   6465   6497     1  180.0000771  0.0000000  2
   6464   6461   6465   6466     1  0.0000000  3.3472000  1
   6464   6461   6465   6466     1  0.0000000  0.0000000  2
   6464   6461   6465   6466     1  180.0000771  0.3347200  3
   6464   6461   6465   6497     1  180.0000771  0.0000000  2
   6465   6497   6478   6480     1  0.0000000  1.2552000  3
   6466   6465   6497   6487     1  180.0000771  6.0668000  2
   6466   6465   6497   6487     1  180.0000771  1.4644000  4
   6467   6458   6469   6472     1  0.0000000  0.6508444  3
   6467   6458   6469   6470     1  0.0000000  0.6508444  3
   6467   6458   6469   6471     1  0.0000000  0.6508444  3
   6467   6458   6457   6522     1  0.0000000  0.6508444  3
   6468   6458   6469   6472     1  0.0000000  0.6508444  3
   6468   6458   6469   6470     1  0.0000000  0.6508444  3
   6468   6458   6469   6471     1  0.0000000  0.6508444  3
   6468   6458   6457   6522     1  0.0000000  0.6508444  3
   6469   6472   6521   6511     1  180.0000771  6.0668000  2
   6469   6472   6521   6511     1  180.0000771  1.4644000  4
   6469   6458   6457   6522     1  0.0000000  0.6508444  3
   6470   6469   6472   6473     1  0.0000000  3.3472000  1
   6470   6469   6472   6473     1  0.0000000  0.0000000  2
   6470   6469   6472   6473     1  180.0000771  0.3347200  3
   6470   6469   6472   6521     1  180.0000771  0.0000000  2
   6471   6469   6472   6473     1  0.0000000  3.3472000  1
   6471   6469   6472   6473     1  0.0000000  0.0000000  2
   6471   6469   6472   6473     1  180.0000771  0.3347200  3
   6471   6469   6472   6521     1  180.0000771  0.0000000  2
   6472   6521   6502   6504     1  0.0000000  1.2552000  3
   6473   6472   6521   6511     1  180.0000771  6.0668000  2
   6473   6472   6521   6511     1  180.0000771  1.4644000  4
   6474   6475   6477   6481     1  0.0000000  0.6508444  3
   6474   6475   6495   6496     1  0.0000000  1.0460000  1
   6474   6475   6495   6496     1  0.0000000  0.6694400  3
   6474   6485   6490   6491     1  0.0000000  1.0460000  1
   6474   6485   6490   6491     1  0.0000000  0.6694400  3
   6474   6492   6479   6482     1  0.0000000  1.6038667  3
   6475   6477   6478   6480     1  0.0000000  0.6508444  3
   6475   6477   6484   6486     1  0.0000000  1.0460000  1
   6475   6477   6484   6486     1  0.0000000  0.6694400  3
   6475   6474   6485   6488     1  0.0000000  0.6508444  3
   6475   6474   6485   6489     1  0.0000000  0.6508444  3
   6476   6474   6475   6477     1  0.0000000  0.6508444  3
   6476   6474   6475   6495     1  0.0000000  1.0460000  1
   6476   6474   6475   6495     1  0.0000000  0.0000000  3
   6476   6474   6475   6494     1  0.0000000  0.6508444  3
   6476   6474   6485   6490     1  0.0000000  1.0460000  1
   6476   6474   6485   6490     1  0.0000000  0.0000000  3
   6476   6474   6485   6488     1  0.0000000  0.6508444  3
   6476   6474   6485   6489     1  0.0000000  0.6508444  3
   6476   6474   6492   6479     1  0.0000000  1.6038667  3
   6477   6478   6479   6482     1  0.0000000  0.6508444  3
   6477   6478   6497   6487     1  0.0000000  1.2552000  3
   6477   6475   6495   6496     1  0.0000000  1.0460000  1
   6477   6475   6495   6496     1  0.0000000  0.6694400  3
   6478   6479   6483   6493     1  0.0000000  1.0460000  1
   6478   6479   6483   6493     1  0.0000000  0.6694400  3
   6478   6477   6484   6486     1  0.0000000  1.0460000  1
   6478   6477   6484   6486     1  0.0000000  0.6694400  3
   6478   6477   6475   6494     1  0.0000000  0.6508444  3
   6479   6478   6497   6487     1  0.0000000  1.2552000  3
   6479   6478   6477   6481     1  0.0000000  0.6508444  3
   6480   6478   6479   6483     1  0.0000000  1.0460000  1
   6480   6478   6479   6483     1  0.0000000  0.0000000  3
   6480   6478   6479   6492     1  0.0000000  1.0460000  1
   6480   6478   6479   6492     1  0.0000000  0.0000000  3
   6480   6478   6479   6482     1  0.0000000  0.6508444  3
   6480   6478   6497   6487     1  0.0000000  1.2552000  3
   6480   6478   6477   6484     1  0.0000000  1.0460000  1
   6480   6478   6477   6484     1  0.0000000  0.0000000  3
   6480   6478   6477   6481     1  0.0000000  0.6508444  3
   6481   6477   6478   6497     1  0.0000000  0.6508444  3
   6481   6477   6484   6486     1  0.0000000  0.6973333  3
   6481   6477   6475   6495     1  0.0000000  1.0460000  1
   6481   6477   6475   6495     1  0.0000000  0.0000000  3
   6481   6477   6475   6494     1  0.0000000  0.6508444  3
   6482   6479   6483   6493     1  0.0000000  0.6973333  3
   6482   6479   6478   6497     1  0.0000000  0.6508444  3
   6484   6477   6475   6494     1  0.0000000  1.0460000  1
   6484   6477   6475   6494     1  0.0000000  0.0000000  3
   6485   6474   6475   6494     1  0.0000000  0.6508444  3
   6488   6485   6490   6491     1  0.0000000  0.6973333  3
   6488   6485   6474   6492     1  0.0000000  1.0460000  1
   6488   6485   6474   6492     1  0.0000000  0.0000000  3
   6489   6485   6490   6491     1  0.0000000  0.6973333  3
   6489   6485   6474   6492     1  0.0000000  1.0460000  1
   6489   6485   6474   6492     1  0.0000000  0.0000000  3
   6492   6479   6483   6493     1  0.0000000  0.6973333  3
   6492   6474   6475   6494     1  0.0000000  1.0460000  1
   6492   6474   6475   6494     1  0.0000000  0.0000000  3
   6494   6475   6495   6496     1  0.0000000  0.6973333  3
   6498   6499   6501   6505     1  0.0000000  0.6508444  3
   6498   6499   6519   6520     1  0.0000000  1.0460000  1
   6498   6499   6519   6520     1  0.0000000  0.6694400  3
   6498   6509   6514   6515     1  0.0000000  1.0460000  1
   6498   6509   6514   6515     1  0.0000000  0.6694400  3
   6498   6516   6503   6506     1  0.0000000  1.6038667  3
   6499   6501   6502   6504     1  0.0000000  0.6508444  3
   6499   6501   6508   6510     1  0.0000000  1.0460000  1
   6499   6501   6508   6510     1  0.0000000  0.6694400  3
   6499   6498   6509   6512     1  0.0000000  0.6508444  3
   6499   6498   6509   6513     1  0.0000000  0.6508444  3
   6500   6498   6499   6501     1  0.0000000  0.6508444  3
   6500   6498   6499   6519     1  0.0000000  1.0460000  1
   6500   6498   6499   6519     1  0.0000000  0.0000000  3
   6500   6498   6499   6518     1  0.0000000  0.6508444  3
   6500   6498   6509   6514     1  0.0000000  1.0460000  1
   6500   6498   6509   6514     1  0.0000000  0.0000000  3
   6500   6498   6509   6512     1  0.0000000  0.6508444  3
   6500   6498   6509   6513     1  0.0000000  0.6508444  3
   6500   6498   6516   6503     1  0.0000000  1.6038667  3
   6501   6502   6503   6506     1  0.0000000  0.6508444  3
   6501   6502   6521   6511     1  0.0000000  1.2552000  3
   6501   6499   6519   6520     1  0.0000000  1.0460000  1
   6501   6499   6519   6520     1  0.0000000  0.6694400  3
   6502   6503   6507   6517     1  0.0000000  1.0460000  1
   6502   6503   6507   6517     1  0.0000000  0.6694400  3
   6502   6501   6508   6510     1  0.0000000  1.0460000  1
   6502   6501   6508   6510     1  0.0000000  0.6694400  3
   6502   6501   6499   6518     1  0.0000000  0.6508444  3
   6503   6502   6521   6511     1  0.0000000  1.2552000  3
   6503   6502   6501   6505     1  0.0000000  0.6508444  3
   6504   6502   6503   6507     1  0.0000000  1.0460000  1
   6504   6502   6503   6507     1  0.0000000  0.0000000  3
   6504   6502   6503   6516     1  0.0000000  1.0460000  1
   6504   6502   6503   6516     1  0.0000000  0.0000000  3
   6504   6502   6503   6506     1  0.0000000  0.6508444  3
   6504   6502   6521   6511     1  0.0000000  1.2552000  3
   6504   6502   6501   6508     1  0.0000000  1.0460000  1
   6504   6502   6501   6508     1  0.0000000  0.0000000  3
   6504   6502   6501   6505     1  0.0000000  0.6508444  3
   6505   6501   6502   6521     1  0.0000000  0.6508444  3
   6505   6501   6508   6510     1  0.0000000  0.6973333  3
   6505   6501   6499   6519     1  0.0000000  1.0460000  1
   6505   6501   6499   6519     1  0.0000000  0.0000000  3
   6505   6501   6499   6518     1  0.0000000  0.6508444  3
   6506   6503   6507   6517     1  0.0000000  0.6973333  3
   6506   6503   6502   6521     1  0.0000000  0.6508444  3
   6508   6501   6499   6518     1  0.0000000  1.0460000  1
   6508   6501   6499   6518     1  0.0000000  0.0000000  3
   6509   6498   6499   6518     1  0.0000000  0.6508444  3
   6512   6509   6514   6515     1  0.0000000  0.6973333  3
   6512   6509   6498   6516     1  0.0000000  1.0460000  1
   6512   6509   6498   6516     1  0.0000000  0.0000000  3
   6513   6509   6514   6515     1  0.0000000  0.6973333  3
   6513   6509   6498   6516     1  0.0000000  1.0460000  1
   6513   6509   6498   6516     1  0.0000000  0.0000000  3
   6516   6503   6507   6517     1  0.0000000  0.6973333  3
   6516   6498   6499   6518     1  0.0000000  1.0460000  1
   6516   6498   6499   6518     1  0.0000000  0.0000000  3
   6518   6499   6519   6520     1  0.0000000  0.6973333  3
   6523   6525   6527   6529     1  0.0000000  0.6508444  3
   6523   6525   6527   6530     1  0.0000000  0.6508444  3
   6524   6523   6525   6527     1  0.0000000  0.0000000  2
   6524   6523   6525   6526     1  0.0000000  0.0000000  2
   6524   6523   6525   6528     1  0.0000000  0.0000000  2
   6525   6527   6531   6596     1  0.0000000  0.6508444  3
   6526   6525   6527   6531     1  0.0000000  0.6508444  3
   6526   6525   6527   6529     1  0.0000000  0.6508444  3
   6526   6525   6527   6530     1  0.0000000  0.6508444  3
   6527   6531   6532   6541     1  0.0000000  0.6508444  3
   6527   6531   6532   6542     1  0.0000000  0.6508444  3
   6527   6531   6533   6534     1  0.0000000  0.6508444  3
   6527   6531   6533   6536     1  0.0000000  0.6508444  3
   6528   6525   6527   6531     1  0.0000000  0.6508444  3
   6528   6525   6527   6529     1  0.0000000  0.6508444  3
   6528   6525   6527   6530     1  0.0000000  0.6508444  3
   6529   6527   6531   6532     1  0.0000000  0.6508444  3
   6529   6527   6531   6533     1  0.0000000  0.6508444  3
   6529   6527   6531   6596     1  0.0000000  0.6508444  3
   6530   6527   6531   6532     1  0.0000000  0.6508444  3
   6530   6527   6531   6533     1  0.0000000  0.6508444  3
   6530   6527   6531   6596     1  0.0000000  0.6508444  3
   6531   6532   6543   6544     1  0.0000000  0.6508444  3
   6531   6532   6543   6545     1  0.0000000  0.6508444  3
   6531   6533   6535   6537     1  0.0000000  0.6508444  3
   6531   6533   6535   6538     1  0.0000000  0.6508444  3
   6532   6531   6533   6534     1  0.0000000  0.6508444  3
   6532   6531   6533   6536     1  0.0000000  0.6508444  3
   6533   6531   6532   6541     1  0.0000000  0.6508444  3
   6533   6531   6532   6542     1  0.0000000  0.6508444  3
   6534   6533   6531   6596     1  0.0000000  0.6508444  3
   6534   6533   6535   6539     1  0.0000000  0.6508444  3
   6534   6533   6535   6537     1  0.0000000  0.6508444  3
   6534   6533   6535   6538     1  0.0000000  0.6508444  3
   6535   6533   6531   6596     1  0.0000000  0.6508444  3
   6535   6539   6571   6561     1  180.0000771  6.0668000  2
   6535   6539   6571   6561     1  180.0000771  1.4644000  4
   6536   6533   6531   6596     1  0.0000000  0.6508444  3
   6536   6533   6535   6539     1  0.0000000  0.6508444  3
   6536   6533   6535   6537     1  0.0000000  0.6508444  3
   6536   6533   6535   6538     1  0.0000000  0.6508444  3
   6537   6535   6539   6540     1  0.0000000  3.3472000  1
   6537   6535   6539   6540     1  0.0000000  0.0000000  2
   6537   6535   6539   6540     1  180.0000771  0.3347200  3
   6537   6535   6539   6571     1  180.0000771  0.0000000  2
   6538   6535   6539   6540     1  0.0000000  3.3472000  1
   6538   6535   6539   6540     1  0.0000000  0.0000000  2
   6538   6535   6539   6540     1  180.0000771  0.3347200  3
   6538   6535   6539   6571     1  180.0000771  0.0000000  2
   6539   6571   6552   6554     1  0.0000000  1.2552000  3
   6540   6539   6571   6561     1  180.0000771  6.0668000  2
   6540   6539   6571   6561     1  180.0000771  1.4644000  4
   6541   6532   6531   6596     1  0.0000000  0.6508444  3
   6541   6532   6543   6546     1  0.0000000  0.6508444  3
   6541   6532   6543   6544     1  0.0000000  0.6508444  3
   6541   6532   6543   6545     1  0.0000000  0.6508444  3
   6542   6532   6531   6596     1  0.0000000  0.6508444  3
   6542   6532   6543   6546     1  0.0000000  0.6508444  3
   6542   6532   6543   6544     1  0.0000000  0.6508444  3
   6542   6532   6543   6545     1  0.0000000  0.6508444  3
   6543   6532   6531   6596     1  0.0000000  0.6508444  3
   6543   6546   6595   6585     1  180.0000771  6.0668000  2
   6543   6546   6595   6585     1  180.0000771  1.4644000  4
   6544   6543   6546   6547     1  0.0000000  3.3472000  1
   6544   6543   6546   6547     1  0.0000000  0.0000000  2
   6544   6543   6546   6547     1  180.0000771  0.3347200  3
   6544   6543   6546   6595     1  180.0000771  0.0000000  2
   6545   6543   6546   6547     1  0.0000000  3.3472000  1
   6545   6543   6546   6547     1  0.0000000  0.0000000  2
   6545   6543   6546   6547     1  180.0000771  0.3347200  3
   6545   6543   6546   6595     1  180.0000771  0.0000000  2
   6546   6595   6576   6578     1  0.0000000  1.2552000  3
   6547   6546   6595   6585     1  180.0000771  6.0668000  2
   6547   6546   6595   6585     1  180.0000771  1.4644000  4
   6548   6549   6551   6555     1  0.0000000  0.6508444  3
   6548   6549   6569   6570     1  0.0000000  1.0460000  1
   6548   6549   6569   6570     1  0.0000000  0.6694400  3
   6548   6559   6564   6565     1  0.0000000  1.0460000  1
   6548   6559   6564   6565     1  0.0000000  0.6694400  3
   6548   6566   6553   6556     1  0.0000000  1.6038667  3
   6549   6548   6559   6562     1  0.0000000  0.6508444  3
   6549   6548   6559   6563     1  0.0000000  0.6508444  3
   6549   6551   6552   6554     1  0.0000000  0.6508444  3
   6549   6551   6558   6560     1  0.0000000  1.0460000  1
   6549   6551   6558   6560     1  0.0000000  0.6694400  3
   6550   6548   6549   6551     1  0.0000000  0.6508444  3
   6550   6548   6549   6569     1  0.0000000  1.0460000  1
   6550   6548   6549   6569     1  0.0000000  0.0000000  3
   6550   6548   6549   6568     1  0.0000000  0.6508444  3
   6550   6548   6559   6564     1  0.0000000  1.0460000  1
   6550   6548   6559   6564     1  0.0000000  0.0000000  3
   6550   6548   6559   6562     1  0.0000000  0.6508444  3
   6550   6548   6559   6563     1  0.0000000  0.6508444  3
   6550   6548   6566   6553     1  0.0000000  1.6038667  3
   6551   6549   6569   6570     1  0.0000000  1.0460000  1
   6551   6549   6569   6570     1  0.0000000  0.6694400  3
   6551   6552   6553   6556     1  0.0000000  0.6508444  3
   6551   6552   6571   6561     1  0.0000000  1.2552000  3
   6552   6551   6549   6568     1  0.0000000  0.6508444  3
   6552   6551   6558   6560     1  0.0000000  1.0460000  1
   6552   6551   6558   6560     1  0.0000000  0.6694400  3
   6552   6553   6557   6567     1  0.0000000  1.0460000  1
   6552   6553   6557   6567     1  0.0000000  0.6694400  3
   6553   6552   6551   6555     1  0.0000000  0.6508444  3
   6553   6552   6571   6561     1  0.0000000  1.2552000  3
   6554   6552   6551   6558     1  0.0000000  1.0460000  1
   6554   6552   6551   6558     1  0.0000000  0.0000000  3
   6554   6552   6551   6555     1  0.0000000  0.6508444  3
   6554   6552   6553   6557     1  0.0000000  1.0460000  1
   6554   6552   6553   6557     1  0.0000000  0.0000000  3
   6554   6552   6553   6566     1  0.0000000  1.0460000  1
   6554   6552   6553   6566     1  0.0000000  0.0000000  3
   6554   6552   6553   6556     1  0.0000000  0.6508444  3
   6554   6552   6571   6561     1  0.0000000  1.2552000  3
   6555   6551   6549   6569     1  0.0000000  1.0460000  1
   6555   6551   6549   6569     1  0.0000000  0.0000000  3
   6555   6551   6549   6568     1  0.0000000  0.6508444  3
   6555   6551   6552   6571     1  0.0000000  0.6508444  3
   6555   6551   6558   6560     1  0.0000000  0.6973333  3
   6556   6553   6552   6571     1  0.0000000  0.6508444  3
   6556   6553   6557   6567     1  0.0000000  0.6973333  3
   6558   6551   6549   6568     1  0.0000000  1.0460000  1
   6558   6551   6549   6568     1  0.0000000  0.0000000  3
   6559   6548   6549   6568     1  0.0000000  0.6508444  3
   6562   6559   6548   6566     1  0.0000000  1.0460000  1
   6562   6559   6548   6566     1  0.0000000  0.0000000  3
   6562   6559   6564   6565     1  0.0000000  0.6973333  3
   6563   6559   6548   6566     1  0.0000000  1.0460000  1
   6563   6559   6548   6566     1  0.0000000  0.0000000  3
   6563   6559   6564   6565     1  0.0000000  0.6973333  3
   6566   6548   6549   6568     1  0.0000000  1.0460000  1
   6566   6548   6549   6568     1  0.0000000  0.0000000  3
   6566   6553   6557   6567     1  0.0000000  0.6973333  3
   6568   6549   6569   6570     1  0.0000000  0.6973333  3
   6572   6573   6575   6579     1  0.0000000  0.6508444  3
   6572   6573   6593   6594     1  0.0000000  1.0460000  1
   6572   6573   6593   6594     1  0.0000000  0.6694400  3
   6572   6583   6588   6589     1  0.0000000  1.0460000  1
   6572   6583   6588   6589     1  0.0000000  0.6694400  3
   6572   6590   6577   6580     1  0.0000000  1.6038667  3
   6573   6572   6583   6586     1  0.0000000  0.6508444  3
   6573   6572   6583   6587     1  0.0000000  0.6508444  3
   6573   6575   6576   6578     1  0.0000000  0.6508444  3
   6573   6575   6582   6584     1  0.0000000  1.0460000  1
   6573   6575   6582   6584     1  0.0000000  0.6694400  3
   6574   6572   6573   6575     1  0.0000000  0.6508444  3
   6574   6572   6573   6593     1  0.0000000  1.0460000  1
   6574   6572   6573   6593     1  0.0000000  0.0000000  3
   6574   6572   6573   6592     1  0.0000000  0.6508444  3
   6574   6572   6583   6588     1  0.0000000  1.0460000  1
   6574   6572   6583   6588     1  0.0000000  0.0000000  3
   6574   6572   6583   6586     1  0.0000000  0.6508444  3
   6574   6572   6583   6587     1  0.0000000  0.6508444  3
   6574   6572   6590   6577     1  0.0000000  1.6038667  3
   6575   6573   6593   6594     1  0.0000000  1.0460000  1
   6575   6573   6593   6594     1  0.0000000  0.6694400  3
   6575   6576   6577   6580     1  0.0000000  0.6508444  3
   6575   6576   6595   6585     1  0.0000000  1.2552000  3
   6576   6575   6573   6592     1  0.0000000  0.6508444  3
   6576   6575   6582   6584     1  0.0000000  1.0460000  1
   6576   6575   6582   6584     1  0.0000000  0.6694400  3
   6576   6577   6581   6591     1  0.0000000  1.0460000  1
   6576   6577   6581   6591     1  0.0000000  0.6694400  3
   6577   6576   6575   6579     1  0.0000000  0.6508444  3
   6577   6576   6595   6585     1  0.0000000  1.2552000  3
   6578   6576   6575   6582     1  0.0000000  1.0460000  1
   6578   6576   6575   6582     1  0.0000000  0.0000000  3
   6578   6576   6575   6579     1  0.0000000  0.6508444  3
   6578   6576   6577   6581     1  0.0000000  1.0460000  1
   6578   6576   6577   6581     1  0.0000000  0.0000000  3
   6578   6576   6577   6590     1  0.0000000  1.0460000  1
   6578   6576   6577   6590     1  0.0000000  0.0000000  3
   6578   6576   6577   6580     1  0.0000000  0.6508444  3
   6578   6576   6595   6585     1  0.0000000  1.2552000  3
   6579   6575   6573   6593     1  0.0000000  1.0460000  1
   6579   6575   6573   6593     1  0.0000000  0.0000000  3
   6579   6575   6573   6592     1  0.0000000  0.6508444  3
   6579   6575   6576   6595     1  0.0000000  0.6508444  3
   6579   6575   6582   6584     1  0.0000000  0.6973333  3
   6580   6577   6576   6595     1  0.0000000  0.6508444  3
   6580   6577   6581   6591     1  0.0000000  0.6973333  3
   6582   6575   6573   6592     1  0.0000000  1.0460000  1
   6582   6575   6573   6592     1  0.0000000  0.0000000  3
   6583   6572   6573   6592     1  0.0000000  0.6508444  3
   6586   6583   6572   6590     1  0.0000000  1.0460000  1
   6586   6583   6572   6590     1  0.0000000  0.0000000  3
   6586   6583   6588   6589     1  0.0000000  0.6973333  3
   6587   6583   6572   6590     1  0.0000000  1.0460000  1
   6587   6583   6572   6590     1  0.0000000  0.0000000  3
   6587   6583   6588   6589     1  0.0000000  0.6973333  3
   6590   6572   6573   6592     1  0.0000000  1.0460000  1
   6590   6572   6573   6592     1  0.0000000  0.0000000  3
   6590   6577   6581   6591     1  0.0000000  0.6973333  3
   6592   6573   6593   6594     1  0.0000000  0.6973333  3
   6597   6599   6601   6603     1  0.0000000  0.6508444  3
   6597   6599   6601   6604     1  0.0000000  0.6508444  3
   6598   6597   6599   6601     1  0.0000000  0.0000000  2
   6598   6597   6599   6600     1  0.0000000  0.0000000  2
   6598   6597   6599   6602     1  0.0000000  0.0000000  2
   6599   6601   6605   6670     1  0.0000000  0.6508444  3
   6600   6599   6601   6605     1  0.0000000  0.6508444  3
   6600   6599   6601   6603     1  0.0000000  0.6508444  3
   6600   6599   6601   6604     1  0.0000000  0.6508444  3
   6601   6605   6606   6615     1  0.0000000  0.6508444  3
   6601   6605   6606   6616     1  0.0000000  0.6508444  3
   6601   6605   6607   6608     1  0.0000000  0.6508444  3
   6601   6605   6607   6610     1  0.0000000  0.6508444  3
   6602   6599   6601   6605     1  0.0000000  0.6508444  3
   6602   6599   6601   6603     1  0.0000000  0.6508444  3
   6602   6599   6601   6604     1  0.0000000  0.6508444  3
   6603   6601   6605   6606     1  0.0000000  0.6508444  3
   6603   6601   6605   6607     1  0.0000000  0.6508444  3
   6603   6601   6605   6670     1  0.0000000  0.6508444  3
   6604   6601   6605   6606     1  0.0000000  0.6508444  3
   6604   6601   6605   6607     1  0.0000000  0.6508444  3
   6604   6601   6605   6670     1  0.0000000  0.6508444  3
   6605   6606   6617   6618     1  0.0000000  0.6508444  3
   6605   6606   6617   6619     1  0.0000000  0.6508444  3
   6605   6607   6609   6611     1  0.0000000  0.6508444  3
   6605   6607   6609   6612     1  0.0000000  0.6508444  3
   6606   6605   6607   6608     1  0.0000000  0.6508444  3
   6606   6605   6607   6610     1  0.0000000  0.6508444  3
   6607   6605   6606   6615     1  0.0000000  0.6508444  3
   6607   6605   6606   6616     1  0.0000000  0.6508444  3
   6608   6607   6609   6613     1  0.0000000  0.6508444  3
   6608   6607   6609   6611     1  0.0000000  0.6508444  3
   6608   6607   6609   6612     1  0.0000000  0.6508444  3
   6608   6607   6605   6670     1  0.0000000  0.6508444  3
   6609   6613   6645   6635     1  180.0000771  6.0668000  2
   6609   6613   6645   6635     1  180.0000771  1.4644000  4
   6609   6607   6605   6670     1  0.0000000  0.6508444  3
   6610   6607   6609   6613     1  0.0000000  0.6508444  3
   6610   6607   6609   6611     1  0.0000000  0.6508444  3
   6610   6607   6609   6612     1  0.0000000  0.6508444  3
   6610   6607   6605   6670     1  0.0000000  0.6508444  3
   6611   6609   6613   6614     1  0.0000000  3.3472000  1
   6611   6609   6613   6614     1  0.0000000  0.0000000  2
   6611   6609   6613   6614     1  180.0000771  0.3347200  3
   6611   6609   6613   6645     1  180.0000771  0.0000000  2
   6612   6609   6613   6614     1  0.0000000  3.3472000  1
   6612   6609   6613   6614     1  0.0000000  0.0000000  2
   6612   6609   6613   6614     1  180.0000771  0.3347200  3
   6612   6609   6613   6645     1  180.0000771  0.0000000  2
   6613   6645   6626   6628     1  0.0000000  1.2552000  3
   6614   6613   6645   6635     1  180.0000771  6.0668000  2
   6614   6613   6645   6635     1  180.0000771  1.4644000  4
   6615   6606   6617   6620     1  0.0000000  0.6508444  3
   6615   6606   6617   6618     1  0.0000000  0.6508444  3
   6615   6606   6617   6619     1  0.0000000  0.6508444  3
   6615   6606   6605   6670     1  0.0000000  0.6508444  3
   6616   6606   6617   6620     1  0.0000000  0.6508444  3
   6616   6606   6617   6618     1  0.0000000  0.6508444  3
   6616   6606   6617   6619     1  0.0000000  0.6508444  3
   6616   6606   6605   6670     1  0.0000000  0.6508444  3
   6617   6620   6669   6659     1  180.0000771  6.0668000  2
   6617   6620   6669   6659     1  180.0000771  1.4644000  4
   6617   6606   6605   6670     1  0.0000000  0.6508444  3
   6618   6617   6620   6621     1  0.0000000  3.3472000  1
   6618   6617   6620   6621     1  0.0000000  0.0000000  2
   6618   6617   6620   6621     1  180.0000771  0.3347200  3
   6618   6617   6620   6669     1  180.0000771  0.0000000  2
   6619   6617   6620   6621     1  0.0000000  3.3472000  1
   6619   6617   6620   6621     1  0.0000000  0.0000000  2
   6619   6617   6620   6621     1  180.0000771  0.3347200  3
   6619   6617   6620   6669     1  180.0000771  0.0000000  2
   6620   6669   6650   6652     1  0.0000000  1.2552000  3
   6621   6620   6669   6659     1  180.0000771  6.0668000  2
   6621   6620   6669   6659     1  180.0000771  1.4644000  4
   6622   6623   6625   6629     1  0.0000000  0.6508444  3
   6622   6623   6643   6644     1  0.0000000  1.0460000  1
   6622   6623   6643   6644     1  0.0000000  0.6694400  3
   6622   6633   6638   6639     1  0.0000000  1.0460000  1
   6622   6633   6638   6639     1  0.0000000  0.6694400  3
   6622   6640   6627   6630     1  0.0000000  1.6038667  3
   6623   6625   6626   6628     1  0.0000000  0.6508444  3
   6623   6625   6632   6634     1  0.0000000  1.0460000  1
   6623   6625   6632   6634     1  0.0000000  0.6694400  3
   6623   6622   6633   6636     1  0.0000000  0.6508444  3
   6623   6622   6633   6637     1  0.0000000  0.6508444  3
   6624   6622   6623   6625     1  0.0000000  0.6508444  3
   6624   6622   6623   6643     1  0.0000000  1.0460000  1
   6624   6622   6623   6643     1  0.0000000  0.0000000  3
   6624   6622   6623   6642     1  0.0000000  0.6508444  3
   6624   6622   6633   6638     1  0.0000000  1.0460000  1
   6624   6622   6633   6638     1  0.0000000  0.0000000  3
   6624   6622   6633   6636     1  0.0000000  0.6508444  3
   6624   6622   6633   6637     1  0.0000000  0.6508444  3
   6624   6622   6640   6627     1  0.0000000  1.6038667  3
   6625   6626   6627   6630     1  0.0000000  0.6508444  3
   6625   6626   6645   6635     1  0.0000000  1.2552000  3
   6625   6623   6643   6644     1  0.0000000  1.0460000  1
   6625   6623   6643   6644     1  0.0000000  0.6694400  3
   6626   6627   6631   6641     1  0.0000000  1.0460000  1
   6626   6627   6631   6641     1  0.0000000  0.6694400  3
   6626   6625   6632   6634     1  0.0000000  1.0460000  1
   6626   6625   6632   6634     1  0.0000000  0.6694400  3
   6626   6625   6623   6642     1  0.0000000  0.6508444  3
   6627   6626   6645   6635     1  0.0000000  1.2552000  3
   6627   6626   6625   6629     1  0.0000000  0.6508444  3
   6628   6626   6627   6631     1  0.0000000  1.0460000  1
   6628   6626   6627   6631     1  0.0000000  0.0000000  3
   6628   6626   6627   6640     1  0.0000000  1.0460000  1
   6628   6626   6627   6640     1  0.0000000  0.0000000  3
   6628   6626   6627   6630     1  0.0000000  0.6508444  3
   6628   6626   6645   6635     1  0.0000000  1.2552000  3
   6628   6626   6625   6632     1  0.0000000  1.0460000  1
   6628   6626   6625   6632     1  0.0000000  0.0000000  3
   6628   6626   6625   6629     1  0.0000000  0.6508444  3
   6629   6625   6626   6645     1  0.0000000  0.6508444  3
   6629   6625   6632   6634     1  0.0000000  0.6973333  3
   6629   6625   6623   6643     1  0.0000000  1.0460000  1
   6629   6625   6623   6643     1  0.0000000  0.0000000  3
   6629   6625   6623   6642     1  0.0000000  0.6508444  3
   6630   6627   6631   6641     1  0.0000000  0.6973333  3
   6630   6627   6626   6645     1  0.0000000  0.6508444  3
   6632   6625   6623   6642     1  0.0000000  1.0460000  1
   6632   6625   6623   6642     1  0.0000000  0.0000000  3
   6633   6622   6623   6642     1  0.0000000  0.6508444  3
   6636   6633   6638   6639     1  0.0000000  0.6973333  3
   6636   6633   6622   6640     1  0.0000000  1.0460000  1
   6636   6633   6622   6640     1  0.0000000  0.0000000  3
   6637   6633   6638   6639     1  0.0000000  0.6973333  3
   6637   6633   6622   6640     1  0.0000000  1.0460000  1
   6637   6633   6622   6640     1  0.0000000  0.0000000  3
   6640   6627   6631   6641     1  0.0000000  0.6973333  3
   6640   6622   6623   6642     1  0.0000000  1.0460000  1
   6640   6622   6623   6642     1  0.0000000  0.0000000  3
   6642   6623   6643   6644     1  0.0000000  0.6973333  3
   6646   6647   6649   6653     1  0.0000000  0.6508444  3
   6646   6647   6667   6668     1  0.0000000  1.0460000  1
   6646   6647   6667   6668     1  0.0000000  0.6694400  3
   6646   6657   6662   6663     1  0.0000000  1.0460000  1
   6646   6657   6662   6663     1  0.0000000  0.6694400  3
   6646   6664   6651   6654     1  0.0000000  1.6038667  3
   6647   6649   6650   6652     1  0.0000000  0.6508444  3
   6647   6649   6656   6658     1  0.0000000  1.0460000  1
   6647   6649   6656   6658     1  0.0000000  0.6694400  3
   6647   6646   6657   6660     1  0.0000000  0.6508444  3
   6647   6646   6657   6661     1  0.0000000  0.6508444  3
   6648   6646   6647   6649     1  0.0000000  0.6508444  3
   6648   6646   6647   6667     1  0.0000000  1.0460000  1
   6648   6646   6647   6667     1  0.0000000  0.0000000  3
   6648   6646   6647   6666     1  0.0000000  0.6508444  3
   6648   6646   6657   6662     1  0.0000000  1.0460000  1
   6648   6646   6657   6662     1  0.0000000  0.0000000  3
   6648   6646   6657   6660     1  0.0000000  0.6508444  3
   6648   6646   6657   6661     1  0.0000000  0.6508444  3
   6648   6646   6664   6651     1  0.0000000  1.6038667  3
   6649   6650   6651   6654     1  0.0000000  0.6508444  3
   6649   6650   6669   6659     1  0.0000000  1.2552000  3
   6649   6647   6667   6668     1  0.0000000  1.0460000  1
   6649   6647   6667   6668     1  0.0000000  0.6694400  3
   6650   6651   6655   6665     1  0.0000000  1.0460000  1
   6650   6651   6655   6665     1  0.0000000  0.6694400  3
   6650   6649   6656   6658     1  0.0000000  1.0460000  1
   6650   6649   6656   6658     1  0.0000000  0.6694400  3
   6650   6649   6647   6666     1  0.0000000  0.6508444  3
   6651   6650   6669   6659     1  0.0000000  1.2552000  3
   6651   6650   6649   6653     1  0.0000000  0.6508444  3
   6652   6650   6651   6655     1  0.0000000  1.0460000  1
   6652   6650   6651   6655     1  0.0000000  0.0000000  3
   6652   6650   6651   6664     1  0.0000000  1.0460000  1
   6652   6650   6651   6664     1  0.0000000  0.0000000  3
   6652   6650   6651   6654     1  0.0000000  0.6508444  3
   6652   6650   6669   6659     1  0.0000000  1.2552000  3
   6652   6650   6649   6656     1  0.0000000  1.0460000  1
   6652   6650   6649   6656     1  0.0000000  0.0000000  3
   6652   6650   6649   6653     1  0.0000000  0.6508444  3
   6653   6649   6650   6669     1  0.0000000  0.6508444  3
   6653   6649   6656   6658     1  0.0000000  0.6973333  3
   6653   6649   6647   6667     1  0.0000000  1.0460000  1
   6653   6649   6647   6667     1  0.0000000  0.0000000  3
   6653   6649   6647   6666     1  0.0000000  0.6508444  3
   6654   6651   6655   6665     1  0.0000000  0.6973333  3
   6654   6651   6650   6669     1  0.0000000  0.6508444  3
   6656   6649   6647   6666     1  0.0000000  1.0460000  1
   6656   6649   6647   6666     1  0.0000000  0.0000000  3
   6657   6646   6647   6666     1  0.0000000  0.6508444  3
   6660   6657   6662   6663     1  0.0000000  0.6973333  3
   6660   6657   6646   6664     1  0.0000000  1.0460000  1
   6660   6657   6646   6664     1  0.0000000  0.0000000  3
   6661   6657   6662   6663     1  0.0000000  0.6973333  3
   6661   6657   6646   6664     1  0.0000000  1.0460000  1
   6661   6657   6646   6664     1  0.0000000  0.0000000  3
   6664   6651   6655   6665     1  0.0000000  0.6973333  3
   6664   6646   6647   6666     1  0.0000000  1.0460000  1
   6664   6646   6647   6666     1  0.0000000  0.0000000  3
   6666   6647   6667   6668     1  0.0000000  0.6973333  3
   6671   6673   6675   6677     1  0.0000000  0.6508444  3
   6671   6673   6675   6678     1  0.0000000  0.6508444  3
   6672   6671   6673   6675     1  0.0000000  0.0000000  2
   6672   6671   6673   6674     1  0.0000000  0.0000000  2
   6672   6671   6673   6676     1  0.0000000  0.0000000  2
   6673   6675   6679   6744     1  0.0000000  0.6508444  3
   6674   6673   6675   6679     1  0.0000000  0.6508444  3
   6674   6673   6675   6677     1  0.0000000  0.6508444  3
   6674   6673   6675   6678     1  0.0000000  0.6508444  3
   6675   6679   6680   6689     1  0.0000000  0.6508444  3
   6675   6679   6680   6690     1  0.0000000  0.6508444  3
   6675   6679   6681   6682     1  0.0000000  0.6508444  3
   6675   6679   6681   6684     1  0.0000000  0.6508444  3
   6676   6673   6675   6679     1  0.0000000  0.6508444  3
   6676   6673   6675   6677     1  0.0000000  0.6508444  3
   6676   6673   6675   6678     1  0.0000000  0.6508444  3
   6677   6675   6679   6680     1  0.0000000  0.6508444  3
   6677   6675   6679   6681     1  0.0000000  0.6508444  3
   6677   6675   6679   6744     1  0.0000000  0.6508444  3
   6678   6675   6679   6680     1  0.0000000  0.6508444  3
   6678   6675   6679   6681     1  0.0000000  0.6508444  3
   6678   6675   6679   6744     1  0.0000000  0.6508444  3
   6679   6680   6691   6692     1  0.0000000  0.6508444  3
   6679   6680   6691   6693     1  0.0000000  0.6508444  3
   6679   6681   6683   6685     1  0.0000000  0.6508444  3
   6679   6681   6683   6686     1  0.0000000  0.6508444  3
   6680   6679   6681   6682     1  0.0000000  0.6508444  3
   6680   6679   6681   6684     1  0.0000000  0.6508444  3
   6681   6679   6680   6689     1  0.0000000  0.6508444  3
   6681   6679   6680   6690     1  0.0000000  0.6508444  3
   6682   6681   6679   6744     1  0.0000000  0.6508444  3
   6682   6681   6683   6687     1  0.0000000  0.6508444  3
   6682   6681   6683   6685     1  0.0000000  0.6508444  3
   6682   6681   6683   6686     1  0.0000000  0.6508444  3
   6683   6681   6679   6744     1  0.0000000  0.6508444  3
   6683   6687   6719   6709     1  180.0000771  6.0668000  2
   6683   6687   6719   6709     1  180.0000771  1.4644000  4
   6684   6681   6679   6744     1  0.0000000  0.6508444  3
   6684   6681   6683   6687     1  0.0000000  0.6508444  3
   6684   6681   6683   6685     1  0.0000000  0.6508444  3
   6684   6681   6683   6686     1  0.0000000  0.6508444  3
   6685   6683   6687   6688     1  0.0000000  3.3472000  1
   6685   6683   6687   6688     1  0.0000000  0.0000000  2
   6685   6683   6687   6688     1  180.0000771  0.3347200  3
   6685   6683   6687   6719     1  180.0000771  0.0000000  2
   6686   6683   6687   6688     1  0.0000000  3.3472000  1
   6686   6683   6687   6688     1  0.0000000  0.0000000  2
   6686   6683   6687   6688     1  180.0000771  0.3347200  3
   6686   6683   6687   6719     1  180.0000771  0.0000000  2
   6687   6719   6700   6702     1  0.0000000  1.2552000  3
   6688   6687   6719   6709     1  180.0000771  6.0668000  2
   6688   6687   6719   6709     1  180.0000771  1.4644000  4
   6689   6680   6679   6744     1  0.0000000  0.6508444  3
   6689   6680   6691   6694     1  0.0000000  0.6508444  3
   6689   6680   6691   6692     1  0.0000000  0.6508444  3
   6689   6680   6691   6693     1  0.0000000  0.6508444  3
   6690   6680   6679   6744     1  0.0000000  0.6508444  3
   6690   6680   6691   6694     1  0.0000000  0.6508444  3
   6690   6680   6691   6692     1  0.0000000  0.6508444  3
   6690   6680   6691   6693     1  0.0000000  0.6508444  3
   6691   6680   6679   6744     1  0.0000000  0.6508444  3
   6691   6694   6743   6733     1  180.0000771  6.0668000  2
   6691   6694   6743   6733     1  180.0000771  1.4644000  4
   6692   6691   6694   6695     1  0.0000000  3.3472000  1
   6692   6691   6694   6695     1  0.0000000  0.0000000  2
   6692   6691   6694   6695     1  180.0000771  0.3347200  3
   6692   6691   6694   6743     1  180.0000771  0.0000000  2
   6693   6691   6694   6695     1  0.0000000  3.3472000  1
   6693   6691   6694   6695     1  0.0000000  0.0000000  2
   6693   6691   6694   6695     1  180.0000771  0.3347200  3
   6693   6691   6694   6743     1  180.0000771  0.0000000  2
   6694   6743   6724   6726     1  0.0000000  1.2552000  3
   6695   6694   6743   6733     1  180.0000771  6.0668000  2
   6695   6694   6743   6733     1  180.0000771  1.4644000  4
   6696   6697   6699   6703     1  0.0000000  0.6508444  3
   6696   6697   6717   6718     1  0.0000000  1.0460000  1
   6696   6697   6717   6718     1  0.0000000  0.6694400  3
   6696   6707   6712   6713     1  0.0000000  1.0460000  1
   6696   6707   6712   6713     1  0.0000000  0.6694400  3
   6696   6714   6701   6704     1  0.0000000  1.6038667  3
   6697   6696   6707   6710     1  0.0000000  0.6508444  3
   6697   6696   6707   6711     1  0.0000000  0.6508444  3
   6697   6699   6700   6702     1  0.0000000  0.6508444  3
   6697   6699   6706   6708     1  0.0000000  1.0460000  1
   6697   6699   6706   6708     1  0.0000000  0.6694400  3
   6698   6696   6697   6699     1  0.0000000  0.6508444  3
   6698   6696   6697   6717     1  0.0000000  1.0460000  1
   6698   6696   6697   6717     1  0.0000000  0.0000000  3
   6698   6696   6697   6716     1  0.0000000  0.6508444  3
   6698   6696   6707   6712     1  0.0000000  1.0460000  1
   6698   6696   6707   6712     1  0.0000000  0.0000000  3
   6698   6696   6707   6710     1  0.0000000  0.6508444  3
   6698   6696   6707   6711     1  0.0000000  0.6508444  3
   6698   6696   6714   6701     1  0.0000000  1.6038667  3
   6699   6697   6717   6718     1  0.0000000  1.0460000  1
   6699   6697   6717   6718     1  0.0000000  0.6694400  3
   6699   6700   6701   6704     1  0.0000000  0.6508444  3
   6699   6700   6719   6709     1  0.0000000  1.2552000  3
   6700   6699   6697   6716     1  0.0000000  0.6508444  3
   6700   6699   6706   6708     1  0.0000000  1.0460000  1
   6700   6699   6706   6708     1  0.0000000  0.6694400  3
   6700   6701   6705   6715     1  0.0000000  1.0460000  1
   6700   6701   6705   6715     1  0.0000000  0.6694400  3
   6701   6700   6699   6703     1  0.0000000  0.6508444  3
   6701   6700   6719   6709     1  0.0000000  1.2552000  3
   6702   6700   6699   6706     1  0.0000000  1.0460000  1
   6702   6700   6699   6706     1  0.0000000  0.0000000  3
   6702   6700   6699   6703     1  0.0000000  0.6508444  3
   6702   6700   6701   6705     1  0.0000000  1.0460000  1
   6702   6700   6701   6705     1  0.0000000  0.0000000  3
   6702   6700   6701   6714     1  0.0000000  1.0460000  1
   6702   6700   6701   6714     1  0.0000000  0.0000000  3
   6702   6700   6701   6704     1  0.0000000  0.6508444  3
   6702   6700   6719   6709     1  0.0000000  1.2552000  3
   6703   6699   6697   6717     1  0.0000000  1.0460000  1
   6703   6699   6697   6717     1  0.0000000  0.0000000  3
   6703   6699   6697   6716     1  0.0000000  0.6508444  3
   6703   6699   6700   6719     1  0.0000000  0.6508444  3
   6703   6699   6706   6708     1  0.0000000  0.6973333  3
   6704   6701   6700   6719     1  0.0000000  0.6508444  3
   6704   6701   6705   6715     1  0.0000000  0.6973333  3
   6706   6699   6697   6716     1  0.0000000  1.0460000  1
   6706   6699   6697   6716     1  0.0000000  0.0000000  3
   6707   6696   6697   6716     1  0.0000000  0.6508444  3
   6710   6707   6696   6714     1  0.0000000  1.0460000  1
   6710   6707   6696   6714     1  0.0000000  0.0000000  3
   6710   6707   6712   6713     1  0.0000000  0.6973333  3
   6711   6707   6696   6714     1  0.0000000  1.0460000  1
   6711   6707   6696   6714     1  0.0000000  0.0000000  3
   6711   6707   6712   6713     1  0.0000000  0.6973333  3
   6714   6696   6697   6716     1  0.0000000  1.0460000  1
   6714   6696   6697   6716     1  0.0000000  0.0000000  3
   6714   6701   6705   6715     1  0.0000000  0.6973333  3
   6716   6697   6717   6718     1  0.0000000  0.6973333  3
   6720   6721   6723   6727     1  0.0000000  0.6508444  3
   6720   6721   6741   6742     1  0.0000000  1.0460000  1
   6720   6721   6741   6742     1  0.0000000  0.6694400  3
   6720   6731   6736   6737     1  0.0000000  1.0460000  1
   6720   6731   6736   6737     1  0.0000000  0.6694400  3
   6720   6738   6725   6728     1  0.0000000  1.6038667  3
   6721   6720   6731   6734     1  0.0000000  0.6508444  3
   6721   6720   6731   6735     1  0.0000000  0.6508444  3
   6721   6723   6724   6726     1  0.0000000  0.6508444  3
   6721   6723   6730   6732     1  0.0000000  1.0460000  1
   6721   6723   6730   6732     1  0.0000000  0.6694400  3
   6722   6720   6721   6723     1  0.0000000  0.6508444  3
   6722   6720   6721   6741     1  0.0000000  1.0460000  1
   6722   6720   6721   6741     1  0.0000000  0.0000000  3
   6722   6720   6721   6740     1  0.0000000  0.6508444  3
   6722   6720   6731   6736     1  0.0000000  1.0460000  1
   6722   6720   6731   6736     1  0.0000000  0.0000000  3
   6722   6720   6731   6734     1  0.0000000  0.6508444  3
   6722   6720   6731   6735     1  0.0000000  0.6508444  3
   6722   6720   6738   6725     1  0.0000000  1.6038667  3
   6723   6721   6741   6742     1  0.0000000  1.0460000  1
   6723   6721   6741   6742     1  0.0000000  0.6694400  3
   6723   6724   6725   6728     1  0.0000000  0.6508444  3
   6723   6724   6743   6733     1  0.0000000  1.2552000  3
   6724   6723   6721   6740     1  0.0000000  0.6508444  3
   6724   6723   6730   6732     1  0.0000000  1.0460000  1
   6724   6723   6730   6732     1  0.0000000  0.6694400  3
   6724   6725   6729   6739     1  0.0000000  1.0460000  1
   6724   6725   6729   6739     1  0.0000000  0.6694400  3
   6725   6724   6723   6727     1  0.0000000  0.6508444  3
   6725   6724   6743   6733     1  0.0000000  1.2552000  3
   6726   6724   6723   6730     1  0.0000000  1.0460000  1
   6726   6724   6723   6730     1  0.0000000  0.0000000  3
   6726   6724   6723   6727     1  0.0000000  0.6508444  3
   6726   6724   6725   6729     1  0.0000000  1.0460000  1
   6726   6724   6725   6729     1  0.0000000  0.0000000  3
   6726   6724   6725   6738     1  0.0000000  1.0460000  1
   6726   6724   6725   6738     1  0.0000000  0.0000000  3
   6726   6724   6725   6728     1  0.0000000  0.6508444  3
   6726   6724   6743   6733     1  0.0000000  1.2552000  3
   6727   6723   6721   6741     1  0.0000000  1.0460000  1
   6727   6723   6721   6741     1  0.0000000  0.0000000  3
   6727   6723   6721   6740     1  0.0000000  0.6508444  3
   6727   6723   6724   6743     1  0.0000000  0.6508444  3
   6727   6723   6730   6732     1  0.0000000  0.6973333  3
   6728   6725   6724   6743     1  0.0000000  0.6508444  3
   6728   6725   6729   6739     1  0.0000000  0.6973333  3
   6730   6723   6721   6740     1  0.0000000  1.0460000  1
   6730   6723   6721   6740     1  0.0000000  0.0000000  3
   6731   6720   6721   6740     1  0.0000000  0.6508444  3
   6734   6731   6720   6738     1  0.0000000  1.0460000  1
   6734   6731   6720   6738     1  0.0000000  0.0000000  3
   6734   6731   6736   6737     1  0.0000000  0.6973333  3
   6735   6731   6720   6738     1  0.0000000  1.0460000  1
   6735   6731   6720   6738     1  0.0000000  0.0000000  3
   6735   6731   6736   6737     1  0.0000000  0.6973333  3
   6738   6720   6721   6740     1  0.0000000  1.0460000  1
   6738   6720   6721   6740     1  0.0000000  0.0000000  3
   6738   6725   6729   6739     1  0.0000000  0.6973333  3
   6740   6721   6741   6742     1  0.0000000  0.6973333  3
   6745   6747   6749   6751     1  0.0000000  0.6508444  3
   6745   6747   6749   6752     1  0.0000000  0.6508444  3
   6746   6745   6747   6749     1  0.0000000  0.0000000  2
   6746   6745   6747   6748     1  0.0000000  0.0000000  2
   6746   6745   6747   6750     1  0.0000000  0.0000000  2
   6747   6749   6753   6818     1  0.0000000  0.6508444  3
   6748   6747   6749   6753     1  0.0000000  0.6508444  3
   6748   6747   6749   6751     1  0.0000000  0.6508444  3
   6748   6747   6749   6752     1  0.0000000  0.6508444  3
   6749   6753   6754   6763     1  0.0000000  0.6508444  3
   6749   6753   6754   6764     1  0.0000000  0.6508444  3
   6749   6753   6755   6756     1  0.0000000  0.6508444  3
   6749   6753   6755   6758     1  0.0000000  0.6508444  3
   6750   6747   6749   6753     1  0.0000000  0.6508444  3
   6750   6747   6749   6751     1  0.0000000  0.6508444  3
   6750   6747   6749   6752     1  0.0000000  0.6508444  3
   6751   6749   6753   6754     1  0.0000000  0.6508444  3
   6751   6749   6753   6755     1  0.0000000  0.6508444  3
   6751   6749   6753   6818     1  0.0000000  0.6508444  3
   6752   6749   6753   6754     1  0.0000000  0.6508444  3
   6752   6749   6753   6755     1  0.0000000  0.6508444  3
   6752   6749   6753   6818     1  0.0000000  0.6508444  3
   6753   6754   6765   6766     1  0.0000000  0.6508444  3
   6753   6754   6765   6767     1  0.0000000  0.6508444  3
   6753   6755   6757   6759     1  0.0000000  0.6508444  3
   6753   6755   6757   6760     1  0.0000000  0.6508444  3
   6754   6753   6755   6756     1  0.0000000  0.6508444  3
   6754   6753   6755   6758     1  0.0000000  0.6508444  3
   6755   6753   6754   6763     1  0.0000000  0.6508444  3
   6755   6753   6754   6764     1  0.0000000  0.6508444  3
   6756   6755   6757   6761     1  0.0000000  0.6508444  3
   6756   6755   6757   6759     1  0.0000000  0.6508444  3
   6756   6755   6757   6760     1  0.0000000  0.6508444  3
   6756   6755   6753   6818     1  0.0000000  0.6508444  3
   6757   6761   6793   6783     1  180.0000771  6.0668000  2
   6757   6761   6793   6783     1  180.0000771  1.4644000  4
   6757   6755   6753   6818     1  0.0000000  0.6508444  3
   6758   6755   6757   6761     1  0.0000000  0.6508444  3
   6758   6755   6757   6759     1  0.0000000  0.6508444  3
   6758   6755   6757   6760     1  0.0000000  0.6508444  3
   6758   6755   6753   6818     1  0.0000000  0.6508444  3
   6759   6757   6761   6762     1  0.0000000  3.3472000  1
   6759   6757   6761   6762     1  0.0000000  0.0000000  2
   6759   6757   6761   6762     1  180.0000771  0.3347200  3
   6759   6757   6761   6793     1  180.0000771  0.0000000  2
   6760   6757   6761   6762     1  0.0000000  3.3472000  1
   6760   6757   6761   6762     1  0.0000000  0.0000000  2
   6760   6757   6761   6762     1  180.0000771  0.3347200  3
   6760   6757   6761   6793     1  180.0000771  0.0000000  2
   6761   6793   6774   6776     1  0.0000000  1.2552000  3
   6762   6761   6793   6783     1  180.0000771  6.0668000  2
   6762   6761   6793   6783     1  180.0000771  1.4644000  4
   6763   6754   6765   6768     1  0.0000000  0.6508444  3
   6763   6754   6765   6766     1  0.0000000  0.6508444  3
   6763   6754   6765   6767     1  0.0000000  0.6508444  3
   6763   6754   6753   6818     1  0.0000000  0.6508444  3
   6764   6754   6765   6768     1  0.0000000  0.6508444  3
   6764   6754   6765   6766     1  0.0000000  0.6508444  3
   6764   6754   6765   6767     1  0.0000000  0.6508444  3
   6764   6754   6753   6818     1  0.0000000  0.6508444  3
   6765   6768   6817   6807     1  180.0000771  6.0668000  2
   6765   6768   6817   6807     1  180.0000771  1.4644000  4
   6765   6754   6753   6818     1  0.0000000  0.6508444  3
   6766   6765   6768   6769     1  0.0000000  3.3472000  1
   6766   6765   6768   6769     1  0.0000000  0.0000000  2
   6766   6765   6768   6769     1  180.0000771  0.3347200  3
   6766   6765   6768   6817     1  180.0000771  0.0000000  2
   6767   6765   6768   6769     1  0.0000000  3.3472000  1
   6767   6765   6768   6769     1  0.0000000  0.0000000  2
   6767   6765   6768   6769     1  180.0000771  0.3347200  3
   6767   6765   6768   6817     1  180.0000771  0.0000000  2
   6768   6817   6798   6800     1  0.0000000  1.2552000  3
   6769   6768   6817   6807     1  180.0000771  6.0668000  2
   6769   6768   6817   6807     1  180.0000771  1.4644000  4
   6770   6771   6773   6777     1  0.0000000  0.6508444  3
   6770   6771   6791   6792     1  0.0000000  1.0460000  1
   6770   6771   6791   6792     1  0.0000000  0.6694400  3
   6770   6781   6786   6787     1  0.0000000  1.0460000  1
   6770   6781   6786   6787     1  0.0000000  0.6694400  3
   6770   6788   6775   6778     1  0.0000000  1.6038667  3
   6771   6773   6774   6776     1  0.0000000  0.6508444  3
   6771   6773   6780   6782     1  0.0000000  1.0460000  1
   6771   6773   6780   6782     1  0.0000000  0.6694400  3
   6771   6770   6781   6784     1  0.0000000  0.6508444  3
   6771   6770   6781   6785     1  0.0000000  0.6508444  3
   6772   6770   6771   6773     1  0.0000000  0.6508444  3
   6772   6770   6771   6791     1  0.0000000  1.0460000  1
   6772   6770   6771   6791     1  0.0000000  0.0000000  3
   6772   6770   6771   6790     1  0.0000000  0.6508444  3
   6772   6770   6781   6786     1  0.0000000  1.0460000  1
   6772   6770   6781   6786     1  0.0000000  0.0000000  3
   6772   6770   6781   6784     1  0.0000000  0.6508444  3
   6772   6770   6781   6785     1  0.0000000  0.6508444  3
   6772   6770   6788   6775     1  0.0000000  1.6038667  3
   6773   6774   6775   6778     1  0.0000000  0.6508444  3
   6773   6774   6793   6783     1  0.0000000  1.2552000  3
   6773   6771   6791   6792     1  0.0000000  1.0460000  1
   6773   6771   6791   6792     1  0.0000000  0.6694400  3
   6774   6775   6779   6789     1  0.0000000  1.0460000  1
   6774   6775   6779   6789     1  0.0000000  0.6694400  3
   6774   6773   6780   6782     1  0.0000000  1.0460000  1
   6774   6773   6780   6782     1  0.0000000  0.6694400  3
   6774   6773   6771   6790     1  0.0000000  0.6508444  3
   6775   6774   6793   6783     1  0.0000000  1.2552000  3
   6775   6774   6773   6777     1  0.0000000  0.6508444  3
   6776   6774   6775   6779     1  0.0000000  1.0460000  1
   6776   6774   6775   6779     1  0.0000000  0.0000000  3
   6776   6774   6775   6788     1  0.0000000  1.0460000  1
   6776   6774   6775   6788     1  0.0000000  0.0000000  3
   6776   6774   6775   6778     1  0.0000000  0.6508444  3
   6776   6774   6793   6783     1  0.0000000  1.2552000  3
   6776   6774   6773   6780     1  0.0000000  1.0460000  1
   6776   6774   6773   6780     1  0.0000000  0.0000000  3
   6776   6774   6773   6777     1  0.0000000  0.6508444  3
   6777   6773   6774   6793     1  0.0000000  0.6508444  3
   6777   6773   6780   6782     1  0.0000000  0.6973333  3
   6777   6773   6771   6791     1  0.0000000  1.0460000  1
   6777   6773   6771   6791     1  0.0000000  0.0000000  3
   6777   6773   6771   6790     1  0.0000000  0.6508444  3
   6778   6775   6779   6789     1  0.0000000  0.6973333  3
   6778   6775   6774   6793     1  0.0000000  0.6508444  3
   6780   6773   6771   6790     1  0.0000000  1.0460000  1
   6780   6773   6771   6790     1  0.0000000  0.0000000  3
   6781   6770   6771   6790     1  0.0000000  0.6508444  3
   6784   6781   6786   6787     1  0.0000000  0.6973333  3
   6784   6781   6770   6788     1  0.0000000  1.0460000  1
   6784   6781   6770   6788     1  0.0000000  0.0000000  3
   6785   6781   6786   6787     1  0.0000000  0.6973333  3
   6785   6781   6770   6788     1  0.0000000  1.0460000  1
   6785   6781   6770   6788     1  0.0000000  0.0000000  3
   6788   6775   6779   6789     1  0.0000000  0.6973333  3
   6788   6770   6771   6790     1  0.0000000  1.0460000  1
   6788   6770   6771   6790     1  0.0000000  0.0000000  3
   6790   6771   6791   6792     1  0.0000000  0.6973333  3
   6794   6795   6797   6801     1  0.0000000  0.6508444  3
   6794   6795   6815   6816     1  0.0000000  1.0460000  1
   6794   6795   6815   6816     1  0.0000000  0.6694400  3
   6794   6805   6810   6811     1  0.0000000  1.0460000  1
   6794   6805   6810   6811     1  0.0000000  0.6694400  3
   6794   6812   6799   6802     1  0.0000000  1.6038667  3
   6795   6797   6798   6800     1  0.0000000  0.6508444  3
   6795   6797   6804   6806     1  0.0000000  1.0460000  1
   6795   6797   6804   6806     1  0.0000000  0.6694400  3
   6795   6794   6805   6808     1  0.0000000  0.6508444  3
   6795   6794   6805   6809     1  0.0000000  0.6508444  3
   6796   6794   6795   6797     1  0.0000000  0.6508444  3
   6796   6794   6795   6815     1  0.0000000  1.0460000  1
   6796   6794   6795   6815     1  0.0000000  0.0000000  3
   6796   6794   6795   6814     1  0.0000000  0.6508444  3
   6796   6794   6805   6810     1  0.0000000  1.0460000  1
   6796   6794   6805   6810     1  0.0000000  0.0000000  3
   6796   6794   6805   6808     1  0.0000000  0.6508444  3
   6796   6794   6805   6809     1  0.0000000  0.6508444  3
   6796   6794   6812   6799     1  0.0000000  1.6038667  3
   6797   6798   6799   6802     1  0.0000000  0.6508444  3
   6797   6798   6817   6807     1  0.0000000  1.2552000  3
   6797   6795   6815   6816     1  0.0000000  1.0460000  1
   6797   6795   6815   6816     1  0.0000000  0.6694400  3
   6798   6799   6803   6813     1  0.0000000  1.0460000  1
   6798   6799   6803   6813     1  0.0000000  0.6694400  3
   6798   6797   6804   6806     1  0.0000000  1.0460000  1
   6798   6797   6804   6806     1  0.0000000  0.6694400  3
   6798   6797   6795   6814     1  0.0000000  0.6508444  3
   6799   6798   6817   6807     1  0.0000000  1.2552000  3
   6799   6798   6797   6801     1  0.0000000  0.6508444  3
   6800   6798   6799   6803     1  0.0000000  1.0460000  1
   6800   6798   6799   6803     1  0.0000000  0.0000000  3
   6800   6798   6799   6812     1  0.0000000  1.0460000  1
   6800   6798   6799   6812     1  0.0000000  0.0000000  3
   6800   6798   6799   6802     1  0.0000000  0.6508444  3
   6800   6798   6817   6807     1  0.0000000  1.2552000  3
   6800   6798   6797   6804     1  0.0000000  1.0460000  1
   6800   6798   6797   6804     1  0.0000000  0.0000000  3
   6800   6798   6797   6801     1  0.0000000  0.6508444  3
   6801   6797   6798   6817     1  0.0000000  0.6508444  3
   6801   6797   6804   6806     1  0.0000000  0.6973333  3
   6801   6797   6795   6815     1  0.0000000  1.0460000  1
   6801   6797   6795   6815     1  0.0000000  0.0000000  3
   6801   6797   6795   6814     1  0.0000000  0.6508444  3
   6802   6799   6803   6813     1  0.0000000  0.6973333  3
   6802   6799   6798   6817     1  0.0000000  0.6508444  3
   6804   6797   6795   6814     1  0.0000000  1.0460000  1
   6804   6797   6795   6814     1  0.0000000  0.0000000  3
   6805   6794   6795   6814     1  0.0000000  0.6508444  3
   6808   6805   6810   6811     1  0.0000000  0.6973333  3
   6808   6805   6794   6812     1  0.0000000  1.0460000  1
   6808   6805   6794   6812     1  0.0000000  0.0000000  3
   6809   6805   6810   6811     1  0.0000000  0.6973333  3
   6809   6805   6794   6812     1  0.0000000  1.0460000  1
   6809   6805   6794   6812     1  0.0000000  0.0000000  3
   6812   6799   6803   6813     1  0.0000000  0.6973333  3
   6812   6794   6795   6814     1  0.0000000  1.0460000  1
   6812   6794   6795   6814     1  0.0000000  0.0000000  3
   6814   6795   6815   6816     1  0.0000000  0.6973333  3
   6819   6821   6823   6825     1  0.0000000  0.6508444  3
   6819   6821   6823   6826     1  0.0000000  0.6508444  3
   6820   6819   6821   6823     1  0.0000000  0.0000000  2
   6820   6819   6821   6822     1  0.0000000  0.0000000  2
   6820   6819   6821   6824     1  0.0000000  0.0000000  2
   6821   6823   6827   6892     1  0.0000000  0.6508444  3
   6822   6821   6823   6827     1  0.0000000  0.6508444  3
   6822   6821   6823   6825     1  0.0000000  0.6508444  3
   6822   6821   6823   6826     1  0.0000000  0.6508444  3
   6823   6827   6828   6837     1  0.0000000  0.6508444  3
   6823   6827   6828   6838     1  0.0000000  0.6508444  3
   6823   6827   6829   6830     1  0.0000000  0.6508444  3
   6823   6827   6829   6832     1  0.0000000  0.6508444  3
   6824   6821   6823   6827     1  0.0000000  0.6508444  3
   6824   6821   6823   6825     1  0.0000000  0.6508444  3
   6824   6821   6823   6826     1  0.0000000  0.6508444  3
   6825   6823   6827   6828     1  0.0000000  0.6508444  3
   6825   6823   6827   6829     1  0.0000000  0.6508444  3
   6825   6823   6827   6892     1  0.0000000  0.6508444  3
   6826   6823   6827   6828     1  0.0000000  0.6508444  3
   6826   6823   6827   6829     1  0.0000000  0.6508444  3
   6826   6823   6827   6892     1  0.0000000  0.6508444  3
   6827   6828   6839   6840     1  0.0000000  0.6508444  3
   6827   6828   6839   6841     1  0.0000000  0.6508444  3
   6827   6829   6831   6833     1  0.0000000  0.6508444  3
   6827   6829   6831   6834     1  0.0000000  0.6508444  3
   6828   6827   6829   6830     1  0.0000000  0.6508444  3
   6828   6827   6829   6832     1  0.0000000  0.6508444  3
   6829   6827   6828   6837     1  0.0000000  0.6508444  3
   6829   6827   6828   6838     1  0.0000000  0.6508444  3
   6830   6829   6827   6892     1  0.0000000  0.6508444  3
   6830   6829   6831   6835     1  0.0000000  0.6508444  3
   6830   6829   6831   6833     1  0.0000000  0.6508444  3
   6830   6829   6831   6834     1  0.0000000  0.6508444  3
   6831   6829   6827   6892     1  0.0000000  0.6508444  3
   6831   6835   6867   6857     1  180.0000771  6.0668000  2
   6831   6835   6867   6857     1  180.0000771  1.4644000  4
   6832   6829   6827   6892     1  0.0000000  0.6508444  3
   6832   6829   6831   6835     1  0.0000000  0.6508444  3
   6832   6829   6831   6833     1  0.0000000  0.6508444  3
   6832   6829   6831   6834     1  0.0000000  0.6508444  3
   6833   6831   6835   6836     1  0.0000000  3.3472000  1
   6833   6831   6835   6836     1  0.0000000  0.0000000  2
   6833   6831   6835   6836     1  180.0000771  0.3347200  3
   6833   6831   6835   6867     1  180.0000771  0.0000000  2
   6834   6831   6835   6836     1  0.0000000  3.3472000  1
   6834   6831   6835   6836     1  0.0000000  0.0000000  2
   6834   6831   6835   6836     1  180.0000771  0.3347200  3
   6834   6831   6835   6867     1  180.0000771  0.0000000  2
   6835   6867   6848   6850     1  0.0000000  1.2552000  3
   6836   6835   6867   6857     1  180.0000771  6.0668000  2
   6836   6835   6867   6857     1  180.0000771  1.4644000  4
   6837   6828   6827   6892     1  0.0000000  0.6508444  3
   6837   6828   6839   6842     1  0.0000000  0.6508444  3
   6837   6828   6839   6840     1  0.0000000  0.6508444  3
   6837   6828   6839   6841     1  0.0000000  0.6508444  3
   6838   6828   6827   6892     1  0.0000000  0.6508444  3
   6838   6828   6839   6842     1  0.0000000  0.6508444  3
   6838   6828   6839   6840     1  0.0000000  0.6508444  3
   6838   6828   6839   6841     1  0.0000000  0.6508444  3
   6839   6828   6827   6892     1  0.0000000  0.6508444  3
   6839   6842   6891   6881     1  180.0000771  6.0668000  2
   6839   6842   6891   6881     1  180.0000771  1.4644000  4
   6840   6839   6842   6843     1  0.0000000  3.3472000  1
   6840   6839   6842   6843     1  0.0000000  0.0000000  2
   6840   6839   6842   6843     1  180.0000771  0.3347200  3
   6840   6839   6842   6891     1  180.0000771  0.0000000  2
   6841   6839   6842   6843     1  0.0000000  3.3472000  1
   6841   6839   6842   6843     1  0.0000000  0.0000000  2
   6841   6839   6842   6843     1  180.0000771  0.3347200  3
   6841   6839   6842   6891     1  180.0000771  0.0000000  2
   6842   6891   6872   6874     1  0.0000000  1.2552000  3
   6843   6842   6891   6881     1  180.0000771  6.0668000  2
   6843   6842   6891   6881     1  180.0000771  1.4644000  4
   6844   6845   6847   6851     1  0.0000000  0.6508444  3
   6844   6845   6865   6866     1  0.0000000  1.0460000  1
   6844   6845   6865   6866     1  0.0000000  0.6694400  3
   6844   6855   6860   6861     1  0.0000000  1.0460000  1
   6844   6855   6860   6861     1  0.0000000  0.6694400  3
   6844   6862   6849   6852     1  0.0000000  1.6038667  3
   6845   6844   6855   6858     1  0.0000000  0.6508444  3
   6845   6844   6855   6859     1  0.0000000  0.6508444  3
   6845   6847   6848   6850     1  0.0000000  0.6508444  3
   6845   6847   6854   6856     1  0.0000000  1.0460000  1
   6845   6847   6854   6856     1  0.0000000  0.6694400  3
   6846   6844   6845   6847     1  0.0000000  0.6508444  3
   6846   6844   6845   6865     1  0.0000000  1.0460000  1
   6846   6844   6845   6865     1  0.0000000  0.0000000  3
   6846   6844   6845   6864     1  0.0000000  0.6508444  3
   6846   6844   6855   6860     1  0.0000000  1.0460000  1
   6846   6844   6855   6860     1  0.0000000  0.0000000  3
   6846   6844   6855   6858     1  0.0000000  0.6508444  3
   6846   6844   6855   6859     1  0.0000000  0.6508444  3
   6846   6844   6862   6849     1  0.0000000  1.6038667  3
   6847   6845   6865   6866     1  0.0000000  1.0460000  1
   6847   6845   6865   6866     1  0.0000000  0.6694400  3
   6847   6848   6849   6852     1  0.0000000  0.6508444  3
   6847   6848   6867   6857     1  0.0000000  1.2552000  3
   6848   6847   6845   6864     1  0.0000000  0.6508444  3
   6848   6847   6854   6856     1  0.0000000  1.0460000  1
   6848   6847   6854   6856     1  0.0000000  0.6694400  3
   6848   6849   6853   6863     1  0.0000000  1.0460000  1
   6848   6849   6853   6863     1  0.0000000  0.6694400  3
   6849   6848   6847   6851     1  0.0000000  0.6508444  3
   6849   6848   6867   6857     1  0.0000000  1.2552000  3
   6850   6848   6847   6854     1  0.0000000  1.0460000  1
   6850   6848   6847   6854     1  0.0000000  0.0000000  3
   6850   6848   6847   6851     1  0.0000000  0.6508444  3
   6850   6848   6849   6853     1  0.0000000  1.0460000  1
   6850   6848   6849   6853     1  0.0000000  0.0000000  3
   6850   6848   6849   6862     1  0.0000000  1.0460000  1
   6850   6848   6849   6862     1  0.0000000  0.0000000  3
   6850   6848   6849   6852     1  0.0000000  0.6508444  3
   6850   6848   6867   6857     1  0.0000000  1.2552000  3
   6851   6847   6845   6865     1  0.0000000  1.0460000  1
   6851   6847   6845   6865     1  0.0000000  0.0000000  3
   6851   6847   6845   6864     1  0.0000000  0.6508444  3
   6851   6847   6848   6867     1  0.0000000  0.6508444  3
   6851   6847   6854   6856     1  0.0000000  0.6973333  3
   6852   6849   6848   6867     1  0.0000000  0.6508444  3
   6852   6849   6853   6863     1  0.0000000  0.6973333  3
   6854   6847   6845   6864     1  0.0000000  1.0460000  1
   6854   6847   6845   6864     1  0.0000000  0.0000000  3
   6855   6844   6845   6864     1  0.0000000  0.6508444  3
   6858   6855   6844   6862     1  0.0000000  1.0460000  1
   6858   6855   6844   6862     1  0.0000000  0.0000000  3
   6858   6855   6860   6861     1  0.0000000  0.6973333  3
   6859   6855   6844   6862     1  0.0000000  1.0460000  1
   6859   6855   6844   6862     1  0.0000000  0.0000000  3
   6859   6855   6860   6861     1  0.0000000  0.6973333  3
   6862   6844   6845   6864     1  0.0000000  1.0460000  1
   6862   6844   6845   6864     1  0.0000000  0.0000000  3
   6862   6849   6853   6863     1  0.0000000  0.6973333  3
   6864   6845   6865   6866     1  0.0000000  0.6973333  3
   6868   6869   6871   6875     1  0.0000000  0.6508444  3
   6868   6869   6889   6890     1  0.0000000  1.0460000  1
   6868   6869   6889   6890     1  0.0000000  0.6694400  3
   6868   6879   6884   6885     1  0.0000000  1.0460000  1
   6868   6879   6884   6885     1  0.0000000  0.6694400  3
   6868   6886   6873   6876     1  0.0000000  1.6038667  3
   6869   6868   6879   6882     1  0.0000000  0.6508444  3
   6869   6868   6879   6883     1  0.0000000  0.6508444  3
   6869   6871   6872   6874     1  0.0000000  0.6508444  3
   6869   6871   6878   6880     1  0.0000000  1.0460000  1
   6869   6871   6878   6880     1  0.0000000  0.6694400  3
   6870   6868   6869   6871     1  0.0000000  0.6508444  3
   6870   6868   6869   6889     1  0.0000000  1.0460000  1
   6870   6868   6869   6889     1  0.0000000  0.0000000  3
   6870   6868   6869   6888     1  0.0000000  0.6508444  3
   6870   6868   6879   6884     1  0.0000000  1.0460000  1
   6870   6868   6879   6884     1  0.0000000  0.0000000  3
   6870   6868   6879   6882     1  0.0000000  0.6508444  3
   6870   6868   6879   6883     1  0.0000000  0.6508444  3
   6870   6868   6886   6873     1  0.0000000  1.6038667  3
   6871   6869   6889   6890     1  0.0000000  1.0460000  1
   6871   6869   6889   6890     1  0.0000000  0.6694400  3
   6871   6872   6873   6876     1  0.0000000  0.6508444  3
   6871   6872   6891   6881     1  0.0000000  1.2552000  3
   6872   6871   6869   6888     1  0.0000000  0.6508444  3
   6872   6871   6878   6880     1  0.0000000  1.0460000  1
   6872   6871   6878   6880     1  0.0000000  0.6694400  3
   6872   6873   6877   6887     1  0.0000000  1.0460000  1
   6872   6873   6877   6887     1  0.0000000  0.6694400  3
   6873   6872   6871   6875     1  0.0000000  0.6508444  3
   6873   6872   6891   6881     1  0.0000000  1.2552000  3
   6874   6872   6871   6878     1  0.0000000  1.0460000  1
   6874   6872   6871   6878     1  0.0000000  0.0000000  3
   6874   6872   6871   6875     1  0.0000000  0.6508444  3
   6874   6872   6873   6877     1  0.0000000  1.0460000  1
   6874   6872   6873   6877     1  0.0000000  0.0000000  3
   6874   6872   6873   6886     1  0.0000000  1.0460000  1
   6874   6872   6873   6886     1  0.0000000  0.0000000  3
   6874   6872   6873   6876     1  0.0000000  0.6508444  3
   6874   6872   6891   6881     1  0.0000000  1.2552000  3
   6875   6871   6869   6889     1  0.0000000  1.0460000  1
   6875   6871   6869   6889     1  0.0000000  0.0000000  3
   6875   6871   6869   6888     1  0.0000000  0.6508444  3
   6875   6871   6872   6891     1  0.0000000  0.6508444  3
   6875   6871   6878   6880     1  0.0000000  0.6973333  3
   6876   6873   6872   6891     1  0.0000000  0.6508444  3
   6876   6873   6877   6887     1  0.0000000  0.6973333  3
   6878   6871   6869   6888     1  0.0000000  1.0460000  1
   6878   6871   6869   6888     1  0.0000000  0.0000000  3
   6879   6868   6869   6888     1  0.0000000  0.6508444  3
   6882   6879   6868   6886     1  0.0000000  1.0460000  1
   6882   6879   6868   6886     1  0.0000000  0.0000000  3
   6882   6879   6884   6885     1  0.0000000  0.6973333  3
   6883   6879   6868   6886     1  0.0000000  1.0460000  1
   6883   6879   6868   6886     1  0.0000000  0.0000000  3
   6883   6879   6884   6885     1  0.0000000  0.6973333  3
   6886   6868   6869   6888     1  0.0000000  1.0460000  1
   6886   6868   6869   6888     1  0.0000000  0.0000000  3
   6886   6873   6877   6887     1  0.0000000  0.6973333  3
   6888   6869   6889   6890     1  0.0000000  0.6973333  3
   6893   6895   6897   6899     1  0.0000000  0.6508444  3
   6893   6895   6897   6900     1  0.0000000  0.6508444  3
   6894   6893   6895   6897     1  0.0000000  0.0000000  2
   6894   6893   6895   6896     1  0.0000000  0.0000000  2
   6894   6893   6895   6898     1  0.0000000  0.0000000  2
   6895   6897   6901   6966     1  0.0000000  0.6508444  3
   6896   6895   6897   6901     1  0.0000000  0.6508444  3
   6896   6895   6897   6899     1  0.0000000  0.6508444  3
   6896   6895   6897   6900     1  0.0000000  0.6508444  3
   6897   6901   6902   6911     1  0.0000000  0.6508444  3
   6897   6901   6902   6912     1  0.0000000  0.6508444  3
   6897   6901   6903   6904     1  0.0000000  0.6508444  3
   6897   6901   6903   6906     1  0.0000000  0.6508444  3
   6898   6895   6897   6901     1  0.0000000  0.6508444  3
   6898   6895   6897   6899     1  0.0000000  0.6508444  3
   6898   6895   6897   6900     1  0.0000000  0.6508444  3
   6899   6897   6901   6902     1  0.0000000  0.6508444  3
   6899   6897   6901   6903     1  0.0000000  0.6508444  3
   6899   6897   6901   6966     1  0.0000000  0.6508444  3
   6900   6897   6901   6902     1  0.0000000  0.6508444  3
   6900   6897   6901   6903     1  0.0000000  0.6508444  3
   6900   6897   6901   6966     1  0.0000000  0.6508444  3
   6901   6902   6913   6914     1  0.0000000  0.6508444  3
   6901   6902   6913   6915     1  0.0000000  0.6508444  3
   6901   6903   6905   6907     1  0.0000000  0.6508444  3
   6901   6903   6905   6908     1  0.0000000  0.6508444  3
   6902   6901   6903   6904     1  0.0000000  0.6508444  3
   6902   6901   6903   6906     1  0.0000000  0.6508444  3
   6903   6901   6902   6911     1  0.0000000  0.6508444  3
   6903   6901   6902   6912     1  0.0000000  0.6508444  3
   6904   6903   6905   6909     1  0.0000000  0.6508444  3
   6904   6903   6905   6907     1  0.0000000  0.6508444  3
   6904   6903   6905   6908     1  0.0000000  0.6508444  3
   6904   6903   6901   6966     1  0.0000000  0.6508444  3
   6905   6909   6941   6931     1  180.0000771  6.0668000  2
   6905   6909   6941   6931     1  180.0000771  1.4644000  4
   6905   6903   6901   6966     1  0.0000000  0.6508444  3
   6906   6903   6905   6909     1  0.0000000  0.6508444  3
   6906   6903   6905   6907     1  0.0000000  0.6508444  3
   6906   6903   6905   6908     1  0.0000000  0.6508444  3
   6906   6903   6901   6966     1  0.0000000  0.6508444  3
   6907   6905   6909   6910     1  0.0000000  3.3472000  1
   6907   6905   6909   6910     1  0.0000000  0.0000000  2
   6907   6905   6909   6910     1  180.0000771  0.3347200  3
   6907   6905   6909   6941     1  180.0000771  0.0000000  2
   6908   6905   6909   6910     1  0.0000000  3.3472000  1
   6908   6905   6909   6910     1  0.0000000  0.0000000  2
   6908   6905   6909   6910     1  180.0000771  0.3347200  3
   6908   6905   6909   6941     1  180.0000771  0.0000000  2
   6909   6941   6922   6924     1  0.0000000  1.2552000  3
   6910   6909   6941   6931     1  180.0000771  6.0668000  2
   6910   6909   6941   6931     1  180.0000771  1.4644000  4
   6911   6902   6913   6916     1  0.0000000  0.6508444  3
   6911   6902   6913   6914     1  0.0000000  0.6508444  3
   6911   6902   6913   6915     1  0.0000000  0.6508444  3
   6911   6902   6901   6966     1  0.0000000  0.6508444  3
   6912   6902   6913   6916     1  0.0000000  0.6508444  3
   6912   6902   6913   6914     1  0.0000000  0.6508444  3
   6912   6902   6913   6915     1  0.0000000  0.6508444  3
   6912   6902   6901   6966     1  0.0000000  0.6508444  3
   6913   6916   6965   6955     1  180.0000771  6.0668000  2
   6913   6916   6965   6955     1  180.0000771  1.4644000  4
   6913   6902   6901   6966     1  0.0000000  0.6508444  3
   6914   6913   6916   6917     1  0.0000000  3.3472000  1
   6914   6913   6916   6917     1  0.0000000  0.0000000  2
   6914   6913   6916   6917     1  180.0000771  0.3347200  3
   6914   6913   6916   6965     1  180.0000771  0.0000000  2
   6915   6913   6916   6917     1  0.0000000  3.3472000  1
   6915   6913   6916   6917     1  0.0000000  0.0000000  2
   6915   6913   6916   6917     1  180.0000771  0.3347200  3
   6915   6913   6916   6965     1  180.0000771  0.0000000  2
   6916   6965   6946   6948     1  0.0000000  1.2552000  3
   6917   6916   6965   6955     1  180.0000771  6.0668000  2
   6917   6916   6965   6955     1  180.0000771  1.4644000  4
   6918   6919   6921   6925     1  0.0000000  0.6508444  3
   6918   6919   6939   6940     1  0.0000000  1.0460000  1
   6918   6919   6939   6940     1  0.0000000  0.6694400  3
   6918   6929   6934   6935     1  0.0000000  1.0460000  1
   6918   6929   6934   6935     1  0.0000000  0.6694400  3
   6918   6936   6923   6926     1  0.0000000  1.6038667  3
   6919   6921   6922   6924     1  0.0000000  0.6508444  3
   6919   6921   6928   6930     1  0.0000000  1.0460000  1
   6919   6921   6928   6930     1  0.0000000  0.6694400  3
   6919   6918   6929   6932     1  0.0000000  0.6508444  3
   6919   6918   6929   6933     1  0.0000000  0.6508444  3
   6920   6918   6919   6921     1  0.0000000  0.6508444  3
   6920   6918   6919   6939     1  0.0000000  1.0460000  1
   6920   6918   6919   6939     1  0.0000000  0.0000000  3
   6920   6918   6919   6938     1  0.0000000  0.6508444  3
   6920   6918   6929   6934     1  0.0000000  1.0460000  1
   6920   6918   6929   6934     1  0.0000000  0.0000000  3
   6920   6918   6929   6932     1  0.0000000  0.6508444  3
   6920   6918   6929   6933     1  0.0000000  0.6508444  3
   6920   6918   6936   6923     1  0.0000000  1.6038667  3
   6921   6922   6923   6926     1  0.0000000  0.6508444  3
   6921   6922   6941   6931     1  0.0000000  1.2552000  3
   6921   6919   6939   6940     1  0.0000000  1.0460000  1
   6921   6919   6939   6940     1  0.0000000  0.6694400  3
   6922   6923   6927   6937     1  0.0000000  1.0460000  1
   6922   6923   6927   6937     1  0.0000000  0.6694400  3
   6922   6921   6928   6930     1  0.0000000  1.0460000  1
   6922   6921   6928   6930     1  0.0000000  0.6694400  3
   6922   6921   6919   6938     1  0.0000000  0.6508444  3
   6923   6922   6941   6931     1  0.0000000  1.2552000  3
   6923   6922   6921   6925     1  0.0000000  0.6508444  3
   6924   6922   6923   6927     1  0.0000000  1.0460000  1
   6924   6922   6923   6927     1  0.0000000  0.0000000  3
   6924   6922   6923   6936     1  0.0000000  1.0460000  1
   6924   6922   6923   6936     1  0.0000000  0.0000000  3
   6924   6922   6923   6926     1  0.0000000  0.6508444  3
   6924   6922   6941   6931     1  0.0000000  1.2552000  3
   6924   6922   6921   6928     1  0.0000000  1.0460000  1
   6924   6922   6921   6928     1  0.0000000  0.0000000  3
   6924   6922   6921   6925     1  0.0000000  0.6508444  3
   6925   6921   6922   6941     1  0.0000000  0.6508444  3
   6925   6921   6928   6930     1  0.0000000  0.6973333  3
   6925   6921   6919   6939     1  0.0000000  1.0460000  1
   6925   6921   6919   6939     1  0.0000000  0.0000000  3
   6925   6921   6919   6938     1  0.0000000  0.6508444  3
   6926   6923   6927   6937     1  0.0000000  0.6973333  3
   6926   6923   6922   6941     1  0.0000000  0.6508444  3
   6928   6921   6919   6938     1  0.0000000  1.0460000  1
   6928   6921   6919   6938     1  0.0000000  0.0000000  3
   6929   6918   6919   6938     1  0.0000000  0.6508444  3
   6932   6929   6934   6935     1  0.0000000  0.6973333  3
   6932   6929   6918   6936     1  0.0000000  1.0460000  1
   6932   6929   6918   6936     1  0.0000000  0.0000000  3
   6933   6929   6934   6935     1  0.0000000  0.6973333  3
   6933   6929   6918   6936     1  0.0000000  1.0460000  1
   6933   6929   6918   6936     1  0.0000000  0.0000000  3
   6936   6923   6927   6937     1  0.0000000  0.6973333  3
   6936   6918   6919   6938     1  0.0000000  1.0460000  1
   6936   6918   6919   6938     1  0.0000000  0.0000000  3
   6938   6919   6939   6940     1  0.0000000  0.6973333  3
   6942   6943   6945   6949     1  0.0000000  0.6508444  3
   6942   6943   6963   6964     1  0.0000000  1.0460000  1
   6942   6943   6963   6964     1  0.0000000  0.6694400  3
   6942   6953   6958   6959     1  0.0000000  1.0460000  1
   6942   6953   6958   6959     1  0.0000000  0.6694400  3
   6942   6960   6947   6950     1  0.0000000  1.6038667  3
   6943   6945   6946   6948     1  0.0000000  0.6508444  3
   6943   6945   6952   6954     1  0.0000000  1.0460000  1
   6943   6945   6952   6954     1  0.0000000  0.6694400  3
   6943   6942   6953   6956     1  0.0000000  0.6508444  3
   6943   6942   6953   6957     1  0.0000000  0.6508444  3
   6944   6942   6943   6945     1  0.0000000  0.6508444  3
   6944   6942   6943   6963     1  0.0000000  1.0460000  1
   6944   6942   6943   6963     1  0.0000000  0.0000000  3
   6944   6942   6943   6962     1  0.0000000  0.6508444  3
   6944   6942   6953   6958     1  0.0000000  1.0460000  1
   6944   6942   6953   6958     1  0.0000000  0.0000000  3
   6944   6942   6953   6956     1  0.0000000  0.6508444  3
   6944   6942   6953   6957     1  0.0000000  0.6508444  3
   6944   6942   6960   6947     1  0.0000000  1.6038667  3
   6945   6946   6947   6950     1  0.0000000  0.6508444  3
   6945   6946   6965   6955     1  0.0000000  1.2552000  3
   6945   6943   6963   6964     1  0.0000000  1.0460000  1
   6945   6943   6963   6964     1  0.0000000  0.6694400  3
   6946   6947   6951   6961     1  0.0000000  1.0460000  1
   6946   6947   6951   6961     1  0.0000000  0.6694400  3
   6946   6945   6952   6954     1  0.0000000  1.0460000  1
   6946   6945   6952   6954     1  0.0000000  0.6694400  3
   6946   6945   6943   6962     1  0.0000000  0.6508444  3
   6947   6946   6965   6955     1  0.0000000  1.2552000  3
   6947   6946   6945   6949     1  0.0000000  0.6508444  3
   6948   6946   6947   6951     1  0.0000000  1.0460000  1
   6948   6946   6947   6951     1  0.0000000  0.0000000  3
   6948   6946   6947   6960     1  0.0000000  1.0460000  1
   6948   6946   6947   6960     1  0.0000000  0.0000000  3
   6948   6946   6947   6950     1  0.0000000  0.6508444  3
   6948   6946   6965   6955     1  0.0000000  1.2552000  3
   6948   6946   6945   6952     1  0.0000000  1.0460000  1
   6948   6946   6945   6952     1  0.0000000  0.0000000  3
   6948   6946   6945   6949     1  0.0000000  0.6508444  3
   6949   6945   6946   6965     1  0.0000000  0.6508444  3
   6949   6945   6952   6954     1  0.0000000  0.6973333  3
   6949   6945   6943   6963     1  0.0000000  1.0460000  1
   6949   6945   6943   6963     1  0.0000000  0.0000000  3
   6949   6945   6943   6962     1  0.0000000  0.6508444  3
   6950   6947   6951   6961     1  0.0000000  0.6973333  3
   6950   6947   6946   6965     1  0.0000000  0.6508444  3
   6952   6945   6943   6962     1  0.0000000  1.0460000  1
   6952   6945   6943   6962     1  0.0000000  0.0000000  3
   6953   6942   6943   6962     1  0.0000000  0.6508444  3
   6956   6953   6958   6959     1  0.0000000  0.6973333  3
   6956   6953   6942   6960     1  0.0000000  1.0460000  1
   6956   6953   6942   6960     1  0.0000000  0.0000000  3
   6957   6953   6958   6959     1  0.0000000  0.6973333  3
   6957   6953   6942   6960     1  0.0000000  1.0460000  1
   6957   6953   6942   6960     1  0.0000000  0.0000000  3
   6960   6947   6951   6961     1  0.0000000  0.6973333  3
   6960   6942   6943   6962     1  0.0000000  1.0460000  1
   6960   6942   6943   6962     1  0.0000000  0.0000000  3
   6962   6943   6963   6964     1  0.0000000  0.6973333  3
   6967   6969   6971   6973     1  0.0000000  0.6508444  3
   6967   6969   6971   6974     1  0.0000000  0.6508444  3
   6968   6967   6969   6971     1  0.0000000  0.0000000  2
   6968   6967   6969   6970     1  0.0000000  0.0000000  2
   6968   6967   6969   6972     1  0.0000000  0.0000000  2
   6969   6971   6975   7040     1  0.0000000  0.6508444  3
   6970   6969   6971   6975     1  0.0000000  0.6508444  3
   6970   6969   6971   6973     1  0.0000000  0.6508444  3
   6970   6969   6971   6974     1  0.0000000  0.6508444  3
   6971   6975   6976   6985     1  0.0000000  0.6508444  3
   6971   6975   6976   6986     1  0.0000000  0.6508444  3
   6971   6975   6977   6978     1  0.0000000  0.6508444  3
   6971   6975   6977   6980     1  0.0000000  0.6508444  3
   6972   6969   6971   6975     1  0.0000000  0.6508444  3
   6972   6969   6971   6973     1  0.0000000  0.6508444  3
   6972   6969   6971   6974     1  0.0000000  0.6508444  3
   6973   6971   6975   6976     1  0.0000000  0.6508444  3
   6973   6971   6975   6977     1  0.0000000  0.6508444  3
   6973   6971   6975   7040     1  0.0000000  0.6508444  3
   6974   6971   6975   6976     1  0.0000000  0.6508444  3
   6974   6971   6975   6977     1  0.0000000  0.6508444  3
   6974   6971   6975   7040     1  0.0000000  0.6508444  3
   6975   6976   6987   6988     1  0.0000000  0.6508444  3
   6975   6976   6987   6989     1  0.0000000  0.6508444  3
   6975   6977   6979   6981     1  0.0000000  0.6508444  3
   6975   6977   6979   6982     1  0.0000000  0.6508444  3
   6976   6975   6977   6978     1  0.0000000  0.6508444  3
   6976   6975   6977   6980     1  0.0000000  0.6508444  3
   6977   6975   6976   6985     1  0.0000000  0.6508444  3
   6977   6975   6976   6986     1  0.0000000  0.6508444  3
   6978   6977   6975   7040     1  0.0000000  0.6508444  3
   6978   6977   6979   6983     1  0.0000000  0.6508444  3
   6978   6977   6979   6981     1  0.0000000  0.6508444  3
   6978   6977   6979   6982     1  0.0000000  0.6508444  3
   6979   6977   6975   7040     1  0.0000000  0.6508444  3
   6979   6983   7015   7005     1  180.0000771  6.0668000  2
   6979   6983   7015   7005     1  180.0000771  1.4644000  4
   6980   6977   6975   7040     1  0.0000000  0.6508444  3
   6980   6977   6979   6983     1  0.0000000  0.6508444  3
   6980   6977   6979   6981     1  0.0000000  0.6508444  3
   6980   6977   6979   6982     1  0.0000000  0.6508444  3
   6981   6979   6983   6984     1  0.0000000  3.3472000  1
   6981   6979   6983   6984     1  0.0000000  0.0000000  2
   6981   6979   6983   6984     1  180.0000771  0.3347200  3
   6981   6979   6983   7015     1  180.0000771  0.0000000  2
   6982   6979   6983   6984     1  0.0000000  3.3472000  1
   6982   6979   6983   6984     1  0.0000000  0.0000000  2
   6982   6979   6983   6984     1  180.0000771  0.3347200  3
   6982   6979   6983   7015     1  180.0000771  0.0000000  2
   6983   7015   6996   6998     1  0.0000000  1.2552000  3
   6984   6983   7015   7005     1  180.0000771  6.0668000  2
   6984   6983   7015   7005     1  180.0000771  1.4644000  4
   6985   6976   6975   7040     1  0.0000000  0.6508444  3
   6985   6976   6987   6990     1  0.0000000  0.6508444  3
   6985   6976   6987   6988     1  0.0000000  0.6508444  3
   6985   6976   6987   6989     1  0.0000000  0.6508444  3
   6986   6976   6975   7040     1  0.0000000  0.6508444  3
   6986   6976   6987   6990     1  0.0000000  0.6508444  3
   6986   6976   6987   6988     1  0.0000000  0.6508444  3
   6986   6976   6987   6989     1  0.0000000  0.6508444  3
   6987   6976   6975   7040     1  0.0000000  0.6508444  3
   6987   6990   7039   7029     1  180.0000771  6.0668000  2
   6987   6990   7039   7029     1  180.0000771  1.4644000  4
   6988   6987   6990   6991     1  0.0000000  3.3472000  1
   6988   6987   6990   6991     1  0.0000000  0.0000000  2
   6988   6987   6990   6991     1  180.0000771  0.3347200  3
   6988   6987   6990   7039     1  180.0000771  0.0000000  2
   6989   6987   6990   6991     1  0.0000000  3.3472000  1
   6989   6987   6990   6991     1  0.0000000  0.0000000  2
   6989   6987   6990   6991     1  180.0000771  0.3347200  3
   6989   6987   6990   7039     1  180.0000771  0.0000000  2
   6990   7039   7020   7022     1  0.0000000  1.2552000  3
   6991   6990   7039   7029     1  180.0000771  6.0668000  2
   6991   6990   7039   7029     1  180.0000771  1.4644000  4
   6992   6993   6995   6999     1  0.0000000  0.6508444  3
   6992   6993   7013   7014     1  0.0000000  1.0460000  1
   6992   6993   7013   7014     1  0.0000000  0.6694400  3
   6992   7003   7008   7009     1  0.0000000  1.0460000  1
   6992   7003   7008   7009     1  0.0000000  0.6694400  3
   6992   7010   6997   7000     1  0.0000000  1.6038667  3
   6993   6992   7003   7006     1  0.0000000  0.6508444  3
   6993   6992   7003   7007     1  0.0000000  0.6508444  3
   6993   6995   6996   6998     1  0.0000000  0.6508444  3
   6993   6995   7002   7004     1  0.0000000  1.0460000  1
   6993   6995   7002   7004     1  0.0000000  0.6694400  3
   6994   6992   6993   6995     1  0.0000000  0.6508444  3
   6994   6992   6993   7013     1  0.0000000  1.0460000  1
   6994   6992   6993   7013     1  0.0000000  0.0000000  3
   6994   6992   6993   7012     1  0.0000000  0.6508444  3
   6994   6992   7003   7008     1  0.0000000  1.0460000  1
   6994   6992   7003   7008     1  0.0000000  0.0000000  3
   6994   6992   7003   7006     1  0.0000000  0.6508444  3
   6994   6992   7003   7007     1  0.0000000  0.6508444  3
   6994   6992   7010   6997     1  0.0000000  1.6038667  3
   6995   6993   7013   7014     1  0.0000000  1.0460000  1
   6995   6993   7013   7014     1  0.0000000  0.6694400  3
   6995   6996   6997   7000     1  0.0000000  0.6508444  3
   6995   6996   7015   7005     1  0.0000000  1.2552000  3
   6996   6995   6993   7012     1  0.0000000  0.6508444  3
   6996   6995   7002   7004     1  0.0000000  1.0460000  1
   6996   6995   7002   7004     1  0.0000000  0.6694400  3
   6996   6997   7001   7011     1  0.0000000  1.0460000  1
   6996   6997   7001   7011     1  0.0000000  0.6694400  3
   6997   6996   6995   6999     1  0.0000000  0.6508444  3
   6997   6996   7015   7005     1  0.0000000  1.2552000  3
   6998   6996   6995   7002     1  0.0000000  1.0460000  1
   6998   6996   6995   7002     1  0.0000000  0.0000000  3
   6998   6996   6995   6999     1  0.0000000  0.6508444  3
   6998   6996   6997   7001     1  0.0000000  1.0460000  1
   6998   6996   6997   7001     1  0.0000000  0.0000000  3
   6998   6996   6997   7010     1  0.0000000  1.0460000  1
   6998   6996   6997   7010     1  0.0000000  0.0000000  3
   6998   6996   6997   7000     1  0.0000000  0.6508444  3
   6998   6996   7015   7005     1  0.0000000  1.2552000  3
   6999   6995   6993   7013     1  0.0000000  1.0460000  1
   6999   6995   6993   7013     1  0.0000000  0.0000000  3
   6999   6995   6993   7012     1  0.0000000  0.6508444  3
   6999   6995   6996   7015     1  0.0000000  0.6508444  3
   6999   6995   7002   7004     1  0.0000000  0.6973333  3
   7000   6997   6996   7015     1  0.0000000  0.6508444  3
   7000   6997   7001   7011     1  0.0000000  0.6973333  3
   7002   6995   6993   7012     1  0.0000000  1.0460000  1
   7002   6995   6993   7012     1  0.0000000  0.0000000  3
   7003   6992   6993   7012     1  0.0000000  0.6508444  3
   7006   7003   6992   7010     1  0.0000000  1.0460000  1
   7006   7003   6992   7010     1  0.0000000  0.0000000  3
   7006   7003   7008   7009     1  0.0000000  0.6973333  3
   7007   7003   6992   7010     1  0.0000000  1.0460000  1
   7007   7003   6992   7010     1  0.0000000  0.0000000  3
   7007   7003   7008   7009     1  0.0000000  0.6973333  3
   7010   6992   6993   7012     1  0.0000000  1.0460000  1
   7010   6992   6993   7012     1  0.0000000  0.0000000  3
   7010   6997   7001   7011     1  0.0000000  0.6973333  3
   7012   6993   7013   7014     1  0.0000000  0.6973333  3
   7016   7017   7019   7023     1  0.0000000  0.6508444  3
   7016   7017   7037   7038     1  0.0000000  1.0460000  1
   7016   7017   7037   7038     1  0.0000000  0.6694400  3
   7016   7027   7032   7033     1  0.0000000  1.0460000  1
   7016   7027   7032   7033     1  0.0000000  0.6694400  3
   7016   7034   7021   7024     1  0.0000000  1.6038667  3
   7017   7016   7027   7030     1  0.0000000  0.6508444  3
   7017   7016   7027   7031     1  0.0000000  0.6508444  3
   7017   7019   7020   7022     1  0.0000000  0.6508444  3
   7017   7019   7026   7028     1  0.0000000  1.0460000  1
   7017   7019   7026   7028     1  0.0000000  0.6694400  3
   7018   7016   7017   7019     1  0.0000000  0.6508444  3
   7018   7016   7017   7037     1  0.0000000  1.0460000  1
   7018   7016   7017   7037     1  0.0000000  0.0000000  3
   7018   7016   7017   7036     1  0.0000000  0.6508444  3
   7018   7016   7027   7032     1  0.0000000  1.0460000  1
   7018   7016   7027   7032     1  0.0000000  0.0000000  3
   7018   7016   7027   7030     1  0.0000000  0.6508444  3
   7018   7016   7027   7031     1  0.0000000  0.6508444  3
   7018   7016   7034   7021     1  0.0000000  1.6038667  3
   7019   7017   7037   7038     1  0.0000000  1.0460000  1
   7019   7017   7037   7038     1  0.0000000  0.6694400  3
   7019   7020   7021   7024     1  0.0000000  0.6508444  3
   7019   7020   7039   7029     1  0.0000000  1.2552000  3
   7020   7019   7017   7036     1  0.0000000  0.6508444  3
   7020   7019   7026   7028     1  0.0000000  1.0460000  1
   7020   7019   7026   7028     1  0.0000000  0.6694400  3
   7020   7021   7025   7035     1  0.0000000  1.0460000  1
   7020   7021   7025   7035     1  0.0000000  0.6694400  3
   7021   7020   7019   7023     1  0.0000000  0.6508444  3
   7021   7020   7039   7029     1  0.0000000  1.2552000  3
   7022   7020   7019   7026     1  0.0000000  1.0460000  1
   7022   7020   7019   7026     1  0.0000000  0.0000000  3
   7022   7020   7019   7023     1  0.0000000  0.6508444  3
   7022   7020   7021   7025     1  0.0000000  1.0460000  1
   7022   7020   7021   7025     1  0.0000000  0.0000000  3
   7022   7020   7021   7034     1  0.0000000  1.0460000  1
   7022   7020   7021   7034     1  0.0000000  0.0000000  3
   7022   7020   7021   7024     1  0.0000000  0.6508444  3
   7022   7020   7039   7029     1  0.0000000  1.2552000  3
   7023   7019   7017   7037     1  0.0000000  1.0460000  1
   7023   7019   7017   7037     1  0.0000000  0.0000000  3
   7023   7019   7017   7036     1  0.0000000  0.6508444  3
   7023   7019   7020   7039     1  0.0000000  0.6508444  3
   7023   7019   7026   7028     1  0.0000000  0.6973333  3
   7024   7021   7020   7039     1  0.0000000  0.6508444  3
   7024   7021   7025   7035     1  0.0000000  0.6973333  3
   7026   7019   7017   7036     1  0.0000000  1.0460000  1
   7026   7019   7017   7036     1  0.0000000  0.0000000  3
   7027   7016   7017   7036     1  0.0000000  0.6508444  3
   7030   7027   7016   7034     1  0.0000000  1.0460000  1
   7030   7027   7016   7034     1  0.0000000  0.0000000  3
   7030   7027   7032   7033     1  0.0000000  0.6973333  3
   7031   7027   7016   7034     1  0.0000000  1.0460000  1
   7031   7027   7016   7034     1  0.0000000  0.0000000  3
   7031   7027   7032   7033     1  0.0000000  0.6973333  3
   7034   7016   7017   7036     1  0.0000000  1.0460000  1
   7034   7016   7017   7036     1  0.0000000  0.0000000  3
   7034   7021   7025   7035     1  0.0000000  0.6973333  3
   7036   7017   7037   7038     1  0.0000000  0.6973333  3
   7041   7043   7045   7047     1  0.0000000  0.6508444  3
   7041   7043   7045   7048     1  0.0000000  0.6508444  3
   7042   7041   7043   7045     1  0.0000000  0.0000000  2
   7042   7041   7043   7044     1  0.0000000  0.0000000  2
   7042   7041   7043   7046     1  0.0000000  0.0000000  2
   7043   7045   7049   7114     1  0.0000000  0.6508444  3
   7044   7043   7045   7049     1  0.0000000  0.6508444  3
   7044   7043   7045   7047     1  0.0000000  0.6508444  3
   7044   7043   7045   7048     1  0.0000000  0.6508444  3
   7045   7049   7050   7059     1  0.0000000  0.6508444  3
   7045   7049   7050   7060     1  0.0000000  0.6508444  3
   7045   7049   7051   7052     1  0.0000000  0.6508444  3
   7045   7049   7051   7054     1  0.0000000  0.6508444  3
   7046   7043   7045   7049     1  0.0000000  0.6508444  3
   7046   7043   7045   7047     1  0.0000000  0.6508444  3
   7046   7043   7045   7048     1  0.0000000  0.6508444  3
   7047   7045   7049   7050     1  0.0000000  0.6508444  3
   7047   7045   7049   7051     1  0.0000000  0.6508444  3
   7047   7045   7049   7114     1  0.0000000  0.6508444  3
   7048   7045   7049   7050     1  0.0000000  0.6508444  3
   7048   7045   7049   7051     1  0.0000000  0.6508444  3
   7048   7045   7049   7114     1  0.0000000  0.6508444  3
   7049   7050   7061   7062     1  0.0000000  0.6508444  3
   7049   7050   7061   7063     1  0.0000000  0.6508444  3
   7049   7051   7053   7055     1  0.0000000  0.6508444  3
   7049   7051   7053   7056     1  0.0000000  0.6508444  3
   7050   7049   7051   7052     1  0.0000000  0.6508444  3
   7050   7049   7051   7054     1  0.0000000  0.6508444  3
   7051   7049   7050   7059     1  0.0000000  0.6508444  3
   7051   7049   7050   7060     1  0.0000000  0.6508444  3
   7052   7051   7053   7057     1  0.0000000  0.6508444  3
   7052   7051   7053   7055     1  0.0000000  0.6508444  3
   7052   7051   7053   7056     1  0.0000000  0.6508444  3
   7052   7051   7049   7114     1  0.0000000  0.6508444  3
   7053   7057   7089   7079     1  180.0000771  6.0668000  2
   7053   7057   7089   7079     1  180.0000771  1.4644000  4
   7053   7051   7049   7114     1  0.0000000  0.6508444  3
   7054   7051   7053   7057     1  0.0000000  0.6508444  3
   7054   7051   7053   7055     1  0.0000000  0.6508444  3
   7054   7051   7053   7056     1  0.0000000  0.6508444  3
   7054   7051   7049   7114     1  0.0000000  0.6508444  3
   7055   7053   7057   7058     1  0.0000000  3.3472000  1
   7055   7053   7057   7058     1  0.0000000  0.0000000  2
   7055   7053   7057   7058     1  180.0000771  0.3347200  3
   7055   7053   7057   7089     1  180.0000771  0.0000000  2
   7056   7053   7057   7058     1  0.0000000  3.3472000  1
   7056   7053   7057   7058     1  0.0000000  0.0000000  2
   7056   7053   7057   7058     1  180.0000771  0.3347200  3
   7056   7053   7057   7089     1  180.0000771  0.0000000  2
   7057   7089   7070   7072     1  0.0000000  1.2552000  3
   7058   7057   7089   7079     1  180.0000771  6.0668000  2
   7058   7057   7089   7079     1  180.0000771  1.4644000  4
   7059   7050   7061   7064     1  0.0000000  0.6508444  3
   7059   7050   7061   7062     1  0.0000000  0.6508444  3
   7059   7050   7061   7063     1  0.0000000  0.6508444  3
   7059   7050   7049   7114     1  0.0000000  0.6508444  3
   7060   7050   7061   7064     1  0.0000000  0.6508444  3
   7060   7050   7061   7062     1  0.0000000  0.6508444  3
   7060   7050   7061   7063     1  0.0000000  0.6508444  3
   7060   7050   7049   7114     1  0.0000000  0.6508444  3
   7061   7064   7113   7103     1  180.0000771  6.0668000  2
   7061   7064   7113   7103     1  180.0000771  1.4644000  4
   7061   7050   7049   7114     1  0.0000000  0.6508444  3
   7062   7061   7064   7065     1  0.0000000  3.3472000  1
   7062   7061   7064   7065     1  0.0000000  0.0000000  2
   7062   7061   7064   7065     1  180.0000771  0.3347200  3
   7062   7061   7064   7113     1  180.0000771  0.0000000  2
   7063   7061   7064   7065     1  0.0000000  3.3472000  1
   7063   7061   7064   7065     1  0.0000000  0.0000000  2
   7063   7061   7064   7065     1  180.0000771  0.3347200  3
   7063   7061   7064   7113     1  180.0000771  0.0000000  2
   7064   7113   7094   7096     1  0.0000000  1.2552000  3
   7065   7064   7113   7103     1  180.0000771  6.0668000  2
   7065   7064   7113   7103     1  180.0000771  1.4644000  4
   7066   7067   7069   7073     1  0.0000000  0.6508444  3
   7066   7067   7087   7088     1  0.0000000  1.0460000  1
   7066   7067   7087   7088     1  0.0000000  0.6694400  3
   7066   7077   7082   7083     1  0.0000000  1.0460000  1
   7066   7077   7082   7083     1  0.0000000  0.6694400  3
   7066   7084   7071   7074     1  0.0000000  1.6038667  3
   7067   7069   7070   7072     1  0.0000000  0.6508444  3
   7067   7069   7076   7078     1  0.0000000  1.0460000  1
   7067   7069   7076   7078     1  0.0000000  0.6694400  3
   7067   7066   7077   7080     1  0.0000000  0.6508444  3
   7067   7066   7077   7081     1  0.0000000  0.6508444  3
   7068   7066   7067   7069     1  0.0000000  0.6508444  3
   7068   7066   7067   7087     1  0.0000000  1.0460000  1
   7068   7066   7067   7087     1  0.0000000  0.0000000  3
   7068   7066   7067   7086     1  0.0000000  0.6508444  3
   7068   7066   7077   7082     1  0.0000000  1.0460000  1
   7068   7066   7077   7082     1  0.0000000  0.0000000  3
   7068   7066   7077   7080     1  0.0000000  0.6508444  3
   7068   7066   7077   7081     1  0.0000000  0.6508444  3
   7068   7066   7084   7071     1  0.0000000  1.6038667  3
   7069   7070   7071   7074     1  0.0000000  0.6508444  3
   7069   7070   7089   7079     1  0.0000000  1.2552000  3
   7069   7067   7087   7088     1  0.0000000  1.0460000  1
   7069   7067   7087   7088     1  0.0000000  0.6694400  3
   7070   7071   7075   7085     1  0.0000000  1.0460000  1
   7070   7071   7075   7085     1  0.0000000  0.6694400  3
   7070   7069   7076   7078     1  0.0000000  1.0460000  1
   7070   7069   7076   7078     1  0.0000000  0.6694400  3
   7070   7069   7067   7086     1  0.0000000  0.6508444  3
   7071   7070   7089   7079     1  0.0000000  1.2552000  3
   7071   7070   7069   7073     1  0.0000000  0.6508444  3
   7072   7070   7071   7075     1  0.0000000  1.0460000  1
   7072   7070   7071   7075     1  0.0000000  0.0000000  3
   7072   7070   7071   7084     1  0.0000000  1.0460000  1
   7072   7070   7071   7084     1  0.0000000  0.0000000  3
   7072   7070   7071   7074     1  0.0000000  0.6508444  3
   7072   7070   7089   7079     1  0.0000000  1.2552000  3
   7072   7070   7069   7076     1  0.0000000  1.0460000  1
   7072   7070   7069   7076     1  0.0000000  0.0000000  3
   7072   7070   7069   7073     1  0.0000000  0.6508444  3
   7073   7069   7070   7089     1  0.0000000  0.6508444  3
   7073   7069   7076   7078     1  0.0000000  0.6973333  3
   7073   7069   7067   7087     1  0.0000000  1.0460000  1
   7073   7069   7067   7087     1  0.0000000  0.0000000  3
   7073   7069   7067   7086     1  0.0000000  0.6508444  3
   7074   7071   7075   7085     1  0.0000000  0.6973333  3
   7074   7071   7070   7089     1  0.0000000  0.6508444  3
   7076   7069   7067   7086     1  0.0000000  1.0460000  1
   7076   7069   7067   7086     1  0.0000000  0.0000000  3
   7077   7066   7067   7086     1  0.0000000  0.6508444  3
   7080   7077   7082   7083     1  0.0000000  0.6973333  3
   7080   7077   7066   7084     1  0.0000000  1.0460000  1
   7080   7077   7066   7084     1  0.0000000  0.0000000  3
   7081   7077   7082   7083     1  0.0000000  0.6973333  3
   7081   7077   7066   7084     1  0.0000000  1.0460000  1
   7081   7077   7066   7084     1  0.0000000  0.0000000  3
   7084   7071   7075   7085     1  0.0000000  0.6973333  3
   7084   7066   7067   7086     1  0.0000000  1.0460000  1
   7084   7066   7067   7086     1  0.0000000  0.0000000  3
   7086   7067   7087   7088     1  0.0000000  0.6973333  3
   7090   7091   7093   7097     1  0.0000000  0.6508444  3
   7090   7091   7111   7112     1  0.0000000  1.0460000  1
   7090   7091   7111   7112     1  0.0000000  0.6694400  3
   7090   7101   7106   7107     1  0.0000000  1.0460000  1
   7090   7101   7106   7107     1  0.0000000  0.6694400  3
   7090   7108   7095   7098     1  0.0000000  1.6038667  3
   7091   7093   7094   7096     1  0.0000000  0.6508444  3
   7091   7093   7100   7102     1  0.0000000  1.0460000  1
   7091   7093   7100   7102     1  0.0000000  0.6694400  3
   7091   7090   7101   7104     1  0.0000000  0.6508444  3
   7091   7090   7101   7105     1  0.0000000  0.6508444  3
   7092   7090   7091   7093     1  0.0000000  0.6508444  3
   7092   7090   7091   7111     1  0.0000000  1.0460000  1
   7092   7090   7091   7111     1  0.0000000  0.0000000  3
   7092   7090   7091   7110     1  0.0000000  0.6508444  3
   7092   7090   7101   7106     1  0.0000000  1.0460000  1
   7092   7090   7101   7106     1  0.0000000  0.0000000  3
   7092   7090   7101   7104     1  0.0000000  0.6508444  3
   7092   7090   7101   7105     1  0.0000000  0.6508444  3
   7092   7090   7108   7095     1  0.0000000  1.6038667  3
   7093   7094   7095   7098     1  0.0000000  0.6508444  3
   7093   7094   7113   7103     1  0.0000000  1.2552000  3
   7093   7091   7111   7112     1  0.0000000  1.0460000  1
   7093   7091   7111   7112     1  0.0000000  0.6694400  3
   7094   7095   7099   7109     1  0.0000000  1.0460000  1
   7094   7095   7099   7109     1  0.0000000  0.6694400  3
   7094   7093   7100   7102     1  0.0000000  1.0460000  1
   7094   7093   7100   7102     1  0.0000000  0.6694400  3
   7094   7093   7091   7110     1  0.0000000  0.6508444  3
   7095   7094   7113   7103     1  0.0000000  1.2552000  3
   7095   7094   7093   7097     1  0.0000000  0.6508444  3
   7096   7094   7095   7099     1  0.0000000  1.0460000  1
   7096   7094   7095   7099     1  0.0000000  0.0000000  3
   7096   7094   7095   7108     1  0.0000000  1.0460000  1
   7096   7094   7095   7108     1  0.0000000  0.0000000  3
   7096   7094   7095   7098     1  0.0000000  0.6508444  3
   7096   7094   7113   7103     1  0.0000000  1.2552000  3
   7096   7094   7093   7100     1  0.0000000  1.0460000  1
   7096   7094   7093   7100     1  0.0000000  0.0000000  3
   7096   7094   7093   7097     1  0.0000000  0.6508444  3
   7097   7093   7094   7113     1  0.0000000  0.6508444  3
   7097   7093   7100   7102     1  0.0000000  0.6973333  3
   7097   7093   7091   7111     1  0.0000000  1.0460000  1
   7097   7093   7091   7111     1  0.0000000  0.0000000  3
   7097   7093   7091   7110     1  0.0000000  0.6508444  3
   7098   7095   7099   7109     1  0.0000000  0.6973333  3
   7098   7095   7094   7113     1  0.0000000  0.6508444  3
   7100   7093   7091   7110     1  0.0000000  1.0460000  1
   7100   7093   7091   7110     1  0.0000000  0.0000000  3
   7101   7090   7091   7110     1  0.0000000  0.6508444  3
   7104   7101   7106   7107     1  0.0000000  0.6973333  3
   7104   7101   7090   7108     1  0.0000000  1.0460000  1
   7104   7101   7090   7108     1  0.0000000  0.0000000  3
   7105   7101   7106   7107     1  0.0000000  0.6973333  3
   7105   7101   7090   7108     1  0.0000000  1.0460000  1
   7105   7101   7090   7108     1  0.0000000  0.0000000  3
   7108   7095   7099   7109     1  0.0000000  0.6973333  3
   7108   7090   7091   7110     1  0.0000000  1.0460000  1
   7108   7090   7091   7110     1  0.0000000  0.0000000  3
   7110   7091   7111   7112     1  0.0000000  0.6973333  3
   7115   7117   7119   7121     1  0.0000000  0.6508444  3
   7115   7117   7119   7122     1  0.0000000  0.6508444  3
   7116   7115   7117   7119     1  0.0000000  0.0000000  2
   7116   7115   7117   7118     1  0.0000000  0.0000000  2
   7116   7115   7117   7120     1  0.0000000  0.0000000  2
   7117   7119   7123   7188     1  0.0000000  0.6508444  3
   7118   7117   7119   7123     1  0.0000000  0.6508444  3
   7118   7117   7119   7121     1  0.0000000  0.6508444  3
   7118   7117   7119   7122     1  0.0000000  0.6508444  3
   7119   7123   7124   7133     1  0.0000000  0.6508444  3
   7119   7123   7124   7134     1  0.0000000  0.6508444  3
   7119   7123   7125   7126     1  0.0000000  0.6508444  3
   7119   7123   7125   7128     1  0.0000000  0.6508444  3
   7120   7117   7119   7123     1  0.0000000  0.6508444  3
   7120   7117   7119   7121     1  0.0000000  0.6508444  3
   7120   7117   7119   7122     1  0.0000000  0.6508444  3
   7121   7119   7123   7124     1  0.0000000  0.6508444  3
   7121   7119   7123   7125     1  0.0000000  0.6508444  3
   7121   7119   7123   7188     1  0.0000000  0.6508444  3
   7122   7119   7123   7124     1  0.0000000  0.6508444  3
   7122   7119   7123   7125     1  0.0000000  0.6508444  3
   7122   7119   7123   7188     1  0.0000000  0.6508444  3
   7123   7124   7135   7136     1  0.0000000  0.6508444  3
   7123   7124   7135   7137     1  0.0000000  0.6508444  3
   7123   7125   7127   7129     1  0.0000000  0.6508444  3
   7123   7125   7127   7130     1  0.0000000  0.6508444  3
   7124   7123   7125   7126     1  0.0000000  0.6508444  3
   7124   7123   7125   7128     1  0.0000000  0.6508444  3
   7125   7123   7124   7133     1  0.0000000  0.6508444  3
   7125   7123   7124   7134     1  0.0000000  0.6508444  3
   7126   7125   7123   7188     1  0.0000000  0.6508444  3
   7126   7125   7127   7131     1  0.0000000  0.6508444  3
   7126   7125   7127   7129     1  0.0000000  0.6508444  3
   7126   7125   7127   7130     1  0.0000000  0.6508444  3
   7127   7125   7123   7188     1  0.0000000  0.6508444  3
   7127   7131   7163   7153     1  180.0000771  6.0668000  2
   7127   7131   7163   7153     1  180.0000771  1.4644000  4
   7128   7125   7123   7188     1  0.0000000  0.6508444  3
   7128   7125   7127   7131     1  0.0000000  0.6508444  3
   7128   7125   7127   7129     1  0.0000000  0.6508444  3
   7128   7125   7127   7130     1  0.0000000  0.6508444  3
   7129   7127   7131   7132     1  0.0000000  3.3472000  1
   7129   7127   7131   7132     1  0.0000000  0.0000000  2
   7129   7127   7131   7132     1  180.0000771  0.3347200  3
   7129   7127   7131   7163     1  180.0000771  0.0000000  2
   7130   7127   7131   7132     1  0.0000000  3.3472000  1
   7130   7127   7131   7132     1  0.0000000  0.0000000  2
   7130   7127   7131   7132     1  180.0000771  0.3347200  3
   7130   7127   7131   7163     1  180.0000771  0.0000000  2
   7131   7163   7144   7146     1  0.0000000  1.2552000  3
   7132   7131   7163   7153     1  180.0000771  6.0668000  2
   7132   7131   7163   7153     1  180.0000771  1.4644000  4
   7133   7124   7123   7188     1  0.0000000  0.6508444  3
   7133   7124   7135   7138     1  0.0000000  0.6508444  3
   7133   7124   7135   7136     1  0.0000000  0.6508444  3
   7133   7124   7135   7137     1  0.0000000  0.6508444  3
   7134   7124   7123   7188     1  0.0000000  0.6508444  3
   7134   7124   7135   7138     1  0.0000000  0.6508444  3
   7134   7124   7135   7136     1  0.0000000  0.6508444  3
   7134   7124   7135   7137     1  0.0000000  0.6508444  3
   7135   7124   7123   7188     1  0.0000000  0.6508444  3
   7135   7138   7187   7177     1  180.0000771  6.0668000  2
   7135   7138   7187   7177     1  180.0000771  1.4644000  4
   7136   7135   7138   7139     1  0.0000000  3.3472000  1
   7136   7135   7138   7139     1  0.0000000  0.0000000  2
   7136   7135   7138   7139     1  180.0000771  0.3347200  3
   7136   7135   7138   7187     1  180.0000771  0.0000000  2
   7137   7135   7138   7139     1  0.0000000  3.3472000  1
   7137   7135   7138   7139     1  0.0000000  0.0000000  2
   7137   7135   7138   7139     1  180.0000771  0.3347200  3
   7137   7135   7138   7187     1  180.0000771  0.0000000  2
   7138   7187   7168   7170     1  0.0000000  1.2552000  3
   7139   7138   7187   7177     1  180.0000771  6.0668000  2
   7139   7138   7187   7177     1  180.0000771  1.4644000  4
   7140   7141   7143   7147     1  0.0000000  0.6508444  3
   7140   7141   7161   7162     1  0.0000000  1.0460000  1
   7140   7141   7161   7162     1  0.0000000  0.6694400  3
   7140   7151   7156   7157     1  0.0000000  1.0460000  1
   7140   7151   7156   7157     1  0.0000000  0.6694400  3
   7140   7158   7145   7148     1  0.0000000  1.6038667  3
   7141   7140   7151   7154     1  0.0000000  0.6508444  3
   7141   7140   7151   7155     1  0.0000000  0.6508444  3
   7141   7143   7144   7146     1  0.0000000  0.6508444  3
   7141   7143   7150   7152     1  0.0000000  1.0460000  1
   7141   7143   7150   7152     1  0.0000000  0.6694400  3
   7142   7140   7141   7143     1  0.0000000  0.6508444  3
   7142   7140   7141   7161     1  0.0000000  1.0460000  1
   7142   7140   7141   7161     1  0.0000000  0.0000000  3
   7142   7140   7141   7160     1  0.0000000  0.6508444  3
   7142   7140   7151   7156     1  0.0000000  1.0460000  1
   7142   7140   7151   7156     1  0.0000000  0.0000000  3
   7142   7140   7151   7154     1  0.0000000  0.6508444  3
   7142   7140   7151   7155     1  0.0000000  0.6508444  3
   7142   7140   7158   7145     1  0.0000000  1.6038667  3
   7143   7141   7161   7162     1  0.0000000  1.0460000  1
   7143   7141   7161   7162     1  0.0000000  0.6694400  3
   7143   7144   7145   7148     1  0.0000000  0.6508444  3
   7143   7144   7163   7153     1  0.0000000  1.2552000  3
   7144   7143   7141   7160     1  0.0000000  0.6508444  3
   7144   7143   7150   7152     1  0.0000000  1.0460000  1
   7144   7143   7150   7152     1  0.0000000  0.6694400  3
   7144   7145   7149   7159     1  0.0000000  1.0460000  1
   7144   7145   7149   7159     1  0.0000000  0.6694400  3
   7145   7144   7143   7147     1  0.0000000  0.6508444  3
   7145   7144   7163   7153     1  0.0000000  1.2552000  3
   7146   7144   7143   7150     1  0.0000000  1.0460000  1
   7146   7144   7143   7150     1  0.0000000  0.0000000  3
   7146   7144   7143   7147     1  0.0000000  0.6508444  3
   7146   7144   7145   7149     1  0.0000000  1.0460000  1
   7146   7144   7145   7149     1  0.0000000  0.0000000  3
   7146   7144   7145   7158     1  0.0000000  1.0460000  1
   7146   7144   7145   7158     1  0.0000000  0.0000000  3
   7146   7144   7145   7148     1  0.0000000  0.6508444  3
   7146   7144   7163   7153     1  0.0000000  1.2552000  3
   7147   7143   7141   7161     1  0.0000000  1.0460000  1
   7147   7143   7141   7161     1  0.0000000  0.0000000  3
   7147   7143   7141   7160     1  0.0000000  0.6508444  3
   7147   7143   7144   7163     1  0.0000000  0.6508444  3
   7147   7143   7150   7152     1  0.0000000  0.6973333  3
   7148   7145   7144   7163     1  0.0000000  0.6508444  3
   7148   7145   7149   7159     1  0.0000000  0.6973333  3
   7150   7143   7141   7160     1  0.0000000  1.0460000  1
   7150   7143   7141   7160     1  0.0000000  0.0000000  3
   7151   7140   7141   7160     1  0.0000000  0.6508444  3
   7154   7151   7140   7158     1  0.0000000  1.0460000  1
   7154   7151   7140   7158     1  0.0000000  0.0000000  3
   7154   7151   7156   7157     1  0.0000000  0.6973333  3
   7155   7151   7140   7158     1  0.0000000  1.0460000  1
   7155   7151   7140   7158     1  0.0000000  0.0000000  3
   7155   7151   7156   7157     1  0.0000000  0.6973333  3
   7158   7140   7141   7160     1  0.0000000  1.0460000  1
   7158   7140   7141   7160     1  0.0000000  0.0000000  3
   7158   7145   7149   7159     1  0.0000000  0.6973333  3
   7160   7141   7161   7162     1  0.0000000  0.6973333  3
   7164   7165   7167   7171     1  0.0000000  0.6508444  3
   7164   7165   7185   7186     1  0.0000000  1.0460000  1
   7164   7165   7185   7186     1  0.0000000  0.6694400  3
   7164   7175   7180   7181     1  0.0000000  1.0460000  1
   7164   7175   7180   7181     1  0.0000000  0.6694400  3
   7164   7182   7169   7172     1  0.0000000  1.6038667  3
   7165   7164   7175   7178     1  0.0000000  0.6508444  3
   7165   7164   7175   7179     1  0.0000000  0.6508444  3
   7165   7167   7168   7170     1  0.0000000  0.6508444  3
   7165   7167   7174   7176     1  0.0000000  1.0460000  1
   7165   7167   7174   7176     1  0.0000000  0.6694400  3
   7166   7164   7165   7167     1  0.0000000  0.6508444  3
   7166   7164   7165   7185     1  0.0000000  1.0460000  1
   7166   7164   7165   7185     1  0.0000000  0.0000000  3
   7166   7164   7165   7184     1  0.0000000  0.6508444  3
   7166   7164   7175   7180     1  0.0000000  1.0460000  1
   7166   7164   7175   7180     1  0.0000000  0.0000000  3
   7166   7164   7175   7178     1  0.0000000  0.6508444  3
   7166   7164   7175   7179     1  0.0000000  0.6508444  3
   7166   7164   7182   7169     1  0.0000000  1.6038667  3
   7167   7165   7185   7186     1  0.0000000  1.0460000  1
   7167   7165   7185   7186     1  0.0000000  0.6694400  3
   7167   7168   7169   7172     1  0.0000000  0.6508444  3
   7167   7168   7187   7177     1  0.0000000  1.2552000  3
   7168   7167   7165   7184     1  0.0000000  0.6508444  3
   7168   7167   7174   7176     1  0.0000000  1.0460000  1
   7168   7167   7174   7176     1  0.0000000  0.6694400  3
   7168   7169   7173   7183     1  0.0000000  1.0460000  1
   7168   7169   7173   7183     1  0.0000000  0.6694400  3
   7169   7168   7167   7171     1  0.0000000  0.6508444  3
   7169   7168   7187   7177     1  0.0000000  1.2552000  3
   7170   7168   7167   7174     1  0.0000000  1.0460000  1
   7170   7168   7167   7174     1  0.0000000  0.0000000  3
   7170   7168   7167   7171     1  0.0000000  0.6508444  3
   7170   7168   7169   7173     1  0.0000000  1.0460000  1
   7170   7168   7169   7173     1  0.0000000  0.0000000  3
   7170   7168   7169   7182     1  0.0000000  1.0460000  1
   7170   7168   7169   7182     1  0.0000000  0.0000000  3
   7170   7168   7169   7172     1  0.0000000  0.6508444  3
   7170   7168   7187   7177     1  0.0000000  1.2552000  3
   7171   7167   7165   7185     1  0.0000000  1.0460000  1
   7171   7167   7165   7185     1  0.0000000  0.0000000  3
   7171   7167   7165   7184     1  0.0000000  0.6508444  3
   7171   7167   7168   7187     1  0.0000000  0.6508444  3
   7171   7167   7174   7176     1  0.0000000  0.6973333  3
   7172   7169   7168   7187     1  0.0000000  0.6508444  3
   7172   7169   7173   7183     1  0.0000000  0.6973333  3
   7174   7167   7165   7184     1  0.0000000  1.0460000  1
   7174   7167   7165   7184     1  0.0000000  0.0000000  3
   7175   7164   7165   7184     1  0.0000000  0.6508444  3
   7178   7175   7164   7182     1  0.0000000  1.0460000  1
   7178   7175   7164   7182     1  0.0000000  0.0000000  3
   7178   7175   7180   7181     1  0.0000000  0.6973333  3
   7179   7175   7164   7182     1  0.0000000  1.0460000  1
   7179   7175   7164   7182     1  0.0000000  0.0000000  3
   7179   7175   7180   7181     1  0.0000000  0.6973333  3
   7182   7164   7165   7184     1  0.0000000  1.0460000  1
   7182   7164   7165   7184     1  0.0000000  0.0000000  3
   7182   7169   7173   7183     1  0.0000000  0.6973333  3
   7184   7165   7185   7186     1  0.0000000  0.6973333  3
   7189   7191   7193   7195     1  0.0000000  0.6508444  3
   7189   7191   7193   7196     1  0.0000000  0.6508444  3
   7190   7189   7191   7193     1  0.0000000  0.0000000  2
   7190   7189   7191   7192     1  0.0000000  0.0000000  2
   7190   7189   7191   7194     1  0.0000000  0.0000000  2
   7191   7193   7197   7262     1  0.0000000  0.6508444  3
   7192   7191   7193   7197     1  0.0000000  0.6508444  3
   7192   7191   7193   7195     1  0.0000000  0.6508444  3
   7192   7191   7193   7196     1  0.0000000  0.6508444  3
   7193   7197   7198   7207     1  0.0000000  0.6508444  3
   7193   7197   7198   7208     1  0.0000000  0.6508444  3
   7193   7197   7199   7200     1  0.0000000  0.6508444  3
   7193   7197   7199   7202     1  0.0000000  0.6508444  3
   7194   7191   7193   7197     1  0.0000000  0.6508444  3
   7194   7191   7193   7195     1  0.0000000  0.6508444  3
   7194   7191   7193   7196     1  0.0000000  0.6508444  3
   7195   7193   7197   7198     1  0.0000000  0.6508444  3
   7195   7193   7197   7199     1  0.0000000  0.6508444  3
   7195   7193   7197   7262     1  0.0000000  0.6508444  3
   7196   7193   7197   7198     1  0.0000000  0.6508444  3
   7196   7193   7197   7199     1  0.0000000  0.6508444  3
   7196   7193   7197   7262     1  0.0000000  0.6508444  3
   7197   7198   7209   7210     1  0.0000000  0.6508444  3
   7197   7198   7209   7211     1  0.0000000  0.6508444  3
   7197   7199   7201   7203     1  0.0000000  0.6508444  3
   7197   7199   7201   7204     1  0.0000000  0.6508444  3
   7198   7197   7199   7200     1  0.0000000  0.6508444  3
   7198   7197   7199   7202     1  0.0000000  0.6508444  3
   7199   7197   7198   7207     1  0.0000000  0.6508444  3
   7199   7197   7198   7208     1  0.0000000  0.6508444  3
   7200   7199   7201   7205     1  0.0000000  0.6508444  3
   7200   7199   7201   7203     1  0.0000000  0.6508444  3
   7200   7199   7201   7204     1  0.0000000  0.6508444  3
   7200   7199   7197   7262     1  0.0000000  0.6508444  3
   7201   7205   7237   7227     1  180.0000771  6.0668000  2
   7201   7205   7237   7227     1  180.0000771  1.4644000  4
   7201   7199   7197   7262     1  0.0000000  0.6508444  3
   7202   7199   7201   7205     1  0.0000000  0.6508444  3
   7202   7199   7201   7203     1  0.0000000  0.6508444  3
   7202   7199   7201   7204     1  0.0000000  0.6508444  3
   7202   7199   7197   7262     1  0.0000000  0.6508444  3
   7203   7201   7205   7206     1  0.0000000  3.3472000  1
   7203   7201   7205   7206     1  0.0000000  0.0000000  2
   7203   7201   7205   7206     1  180.0000771  0.3347200  3
   7203   7201   7205   7237     1  180.0000771  0.0000000  2
   7204   7201   7205   7206     1  0.0000000  3.3472000  1
   7204   7201   7205   7206     1  0.0000000  0.0000000  2
   7204   7201   7205   7206     1  180.0000771  0.3347200  3
   7204   7201   7205   7237     1  180.0000771  0.0000000  2
   7205   7237   7218   7220     1  0.0000000  1.2552000  3
   7206   7205   7237   7227     1  180.0000771  6.0668000  2
   7206   7205   7237   7227     1  180.0000771  1.4644000  4
   7207   7198   7209   7212     1  0.0000000  0.6508444  3
   7207   7198   7209   7210     1  0.0000000  0.6508444  3
   7207   7198   7209   7211     1  0.0000000  0.6508444  3
   7207   7198   7197   7262     1  0.0000000  0.6508444  3
   7208   7198   7209   7212     1  0.0000000  0.6508444  3
   7208   7198   7209   7210     1  0.0000000  0.6508444  3
   7208   7198   7209   7211     1  0.0000000  0.6508444  3
   7208   7198   7197   7262     1  0.0000000  0.6508444  3
   7209   7212   7261   7251     1  180.0000771  6.0668000  2
   7209   7212   7261   7251     1  180.0000771  1.4644000  4
   7209   7198   7197   7262     1  0.0000000  0.6508444  3
   7210   7209   7212   7213     1  0.0000000  3.3472000  1
   7210   7209   7212   7213     1  0.0000000  0.0000000  2
   7210   7209   7212   7213     1  180.0000771  0.3347200  3
   7210   7209   7212   7261     1  180.0000771  0.0000000  2
   7211   7209   7212   7213     1  0.0000000  3.3472000  1
   7211   7209   7212   7213     1  0.0000000  0.0000000  2
   7211   7209   7212   7213     1  180.0000771  0.3347200  3
   7211   7209   7212   7261     1  180.0000771  0.0000000  2
   7212   7261   7242   7244     1  0.0000000  1.2552000  3
   7213   7212   7261   7251     1  180.0000771  6.0668000  2
   7213   7212   7261   7251     1  180.0000771  1.4644000  4
   7214   7215   7217   7221     1  0.0000000  0.6508444  3
   7214   7215   7235   7236     1  0.0000000  1.0460000  1
   7214   7215   7235   7236     1  0.0000000  0.6694400  3
   7214   7225   7230   7231     1  0.0000000  1.0460000  1
   7214   7225   7230   7231     1  0.0000000  0.6694400  3
   7214   7232   7219   7222     1  0.0000000  1.6038667  3
   7215   7217   7218   7220     1  0.0000000  0.6508444  3
   7215   7217   7224   7226     1  0.0000000  1.0460000  1
   7215   7217   7224   7226     1  0.0000000  0.6694400  3
   7215   7214   7225   7228     1  0.0000000  0.6508444  3
   7215   7214   7225   7229     1  0.0000000  0.6508444  3
   7216   7214   7215   7217     1  0.0000000  0.6508444  3
   7216   7214   7215   7235     1  0.0000000  1.0460000  1
   7216   7214   7215   7235     1  0.0000000  0.0000000  3
   7216   7214   7215   7234     1  0.0000000  0.6508444  3
   7216   7214   7225   7230     1  0.0000000  1.0460000  1
   7216   7214   7225   7230     1  0.0000000  0.0000000  3
   7216   7214   7225   7228     1  0.0000000  0.6508444  3
   7216   7214   7225   7229     1  0.0000000  0.6508444  3
   7216   7214   7232   7219     1  0.0000000  1.6038667  3
   7217   7218   7219   7222     1  0.0000000  0.6508444  3
   7217   7218   7237   7227     1  0.0000000  1.2552000  3
   7217   7215   7235   7236     1  0.0000000  1.0460000  1
   7217   7215   7235   7236     1  0.0000000  0.6694400  3
   7218   7219   7223   7233     1  0.0000000  1.0460000  1
   7218   7219   7223   7233     1  0.0000000  0.6694400  3
   7218   7217   7224   7226     1  0.0000000  1.0460000  1
   7218   7217   7224   7226     1  0.0000000  0.6694400  3
   7218   7217   7215   7234     1  0.0000000  0.6508444  3
   7219   7218   7237   7227     1  0.0000000  1.2552000  3
   7219   7218   7217   7221     1  0.0000000  0.6508444  3
   7220   7218   7219   7223     1  0.0000000  1.0460000  1
   7220   7218   7219   7223     1  0.0000000  0.0000000  3
   7220   7218   7219   7232     1  0.0000000  1.0460000  1
   7220   7218   7219   7232     1  0.0000000  0.0000000  3
   7220   7218   7219   7222     1  0.0000000  0.6508444  3
   7220   7218   7237   7227     1  0.0000000  1.2552000  3
   7220   7218   7217   7224     1  0.0000000  1.0460000  1
   7220   7218   7217   7224     1  0.0000000  0.0000000  3
   7220   7218   7217   7221     1  0.0000000  0.6508444  3
   7221   7217   7218   7237     1  0.0000000  0.6508444  3
   7221   7217   7224   7226     1  0.0000000  0.6973333  3
   7221   7217   7215   7235     1  0.0000000  1.0460000  1
   7221   7217   7215   7235     1  0.0000000  0.0000000  3
   7221   7217   7215   7234     1  0.0000000  0.6508444  3
   7222   7219   7223   7233     1  0.0000000  0.6973333  3
   7222   7219   7218   7237     1  0.0000000  0.6508444  3
   7224   7217   7215   7234     1  0.0000000  1.0460000  1
   7224   7217   7215   7234     1  0.0000000  0.0000000  3
   7225   7214   7215   7234     1  0.0000000  0.6508444  3
   7228   7225   7230   7231     1  0.0000000  0.6973333  3
   7228   7225   7214   7232     1  0.0000000  1.0460000  1
   7228   7225   7214   7232     1  0.0000000  0.0000000  3
   7229   7225   7230   7231     1  0.0000000  0.6973333  3
   7229   7225   7214   7232     1  0.0000000  1.0460000  1
   7229   7225   7214   7232     1  0.0000000  0.0000000  3
   7232   7219   7223   7233     1  0.0000000  0.6973333  3
   7232   7214   7215   7234     1  0.0000000  1.0460000  1
   7232   7214   7215   7234     1  0.0000000  0.0000000  3
   7234   7215   7235   7236     1  0.0000000  0.6973333  3
   7238   7239   7241   7245     1  0.0000000  0.6508444  3
   7238   7239   7259   7260     1  0.0000000  1.0460000  1
   7238   7239   7259   7260     1  0.0000000  0.6694400  3
   7238   7249   7254   7255     1  0.0000000  1.0460000  1
   7238   7249   7254   7255     1  0.0000000  0.6694400  3
   7238   7256   7243   7246     1  0.0000000  1.6038667  3
   7239   7241   7242   7244     1  0.0000000  0.6508444  3
   7239   7241   7248   7250     1  0.0000000  1.0460000  1
   7239   7241   7248   7250     1  0.0000000  0.6694400  3
   7239   7238   7249   7252     1  0.0000000  0.6508444  3
   7239   7238   7249   7253     1  0.0000000  0.6508444  3
   7240   7238   7239   7241     1  0.0000000  0.6508444  3
   7240   7238   7239   7259     1  0.0000000  1.0460000  1
   7240   7238   7239   7259     1  0.0000000  0.0000000  3
   7240   7238   7239   7258     1  0.0000000  0.6508444  3
   7240   7238   7249   7254     1  0.0000000  1.0460000  1
   7240   7238   7249   7254     1  0.0000000  0.0000000  3
   7240   7238   7249   7252     1  0.0000000  0.6508444  3
   7240   7238   7249   7253     1  0.0000000  0.6508444  3
   7240   7238   7256   7243     1  0.0000000  1.6038667  3
   7241   7242   7243   7246     1  0.0000000  0.6508444  3
   7241   7242   7261   7251     1  0.0000000  1.2552000  3
   7241   7239   7259   7260     1  0.0000000  1.0460000  1
   7241   7239   7259   7260     1  0.0000000  0.6694400  3
   7242   7243   7247   7257     1  0.0000000  1.0460000  1
   7242   7243   7247   7257     1  0.0000000  0.6694400  3
   7242   7241   7248   7250     1  0.0000000  1.0460000  1
   7242   7241   7248   7250     1  0.0000000  0.6694400  3
   7242   7241   7239   7258     1  0.0000000  0.6508444  3
   7243   7242   7261   7251     1  0.0000000  1.2552000  3
   7243   7242   7241   7245     1  0.0000000  0.6508444  3
   7244   7242   7243   7247     1  0.0000000  1.0460000  1
   7244   7242   7243   7247     1  0.0000000  0.0000000  3
   7244   7242   7243   7256     1  0.0000000  1.0460000  1
   7244   7242   7243   7256     1  0.0000000  0.0000000  3
   7244   7242   7243   7246     1  0.0000000  0.6508444  3
   7244   7242   7261   7251     1  0.0000000  1.2552000  3
   7244   7242   7241   7248     1  0.0000000  1.0460000  1
   7244   7242   7241   7248     1  0.0000000  0.0000000  3
   7244   7242   7241   7245     1  0.0000000  0.6508444  3
   7245   7241   7242   7261     1  0.0000000  0.6508444  3
   7245   7241   7248   7250     1  0.0000000  0.6973333  3
   7245   7241   7239   7259     1  0.0000000  1.0460000  1
   7245   7241   7239   7259     1  0.0000000  0.0000000  3
   7245   7241   7239   7258     1  0.0000000  0.6508444  3
   7246   7243   7247   7257     1  0.0000000  0.6973333  3
   7246   7243   7242   7261     1  0.0000000  0.6508444  3
   7248   7241   7239   7258     1  0.0000000  1.0460000  1
   7248   7241   7239   7258     1  0.0000000  0.0000000  3
   7249   7238   7239   7258     1  0.0000000  0.6508444  3
   7252   7249   7254   7255     1  0.0000000  0.6973333  3
   7252   7249   7238   7256     1  0.0000000  1.0460000  1
   7252   7249   7238   7256     1  0.0000000  0.0000000  3
   7253   7249   7254   7255     1  0.0000000  0.6973333  3
   7253   7249   7238   7256     1  0.0000000  1.0460000  1
   7253   7249   7238   7256     1  0.0000000  0.0000000  3
   7256   7243   7247   7257     1  0.0000000  0.6973333  3
   7256   7238   7239   7258     1  0.0000000  1.0460000  1
   7256   7238   7239   7258     1  0.0000000  0.0000000  3
   7258   7239   7259   7260     1  0.0000000  0.6973333  3
   7263   7265   7267   7269     1  0.0000000  0.6508444  3
   7263   7265   7267   7270     1  0.0000000  0.6508444  3
   7264   7263   7265   7267     1  0.0000000  0.0000000  2
   7264   7263   7265   7266     1  0.0000000  0.0000000  2
   7264   7263   7265   7268     1  0.0000000  0.0000000  2
   7265   7267   7271   7336     1  0.0000000  0.6508444  3
   7266   7265   7267   7271     1  0.0000000  0.6508444  3
   7266   7265   7267   7269     1  0.0000000  0.6508444  3
   7266   7265   7267   7270     1  0.0000000  0.6508444  3
   7267   7271   7272   7281     1  0.0000000  0.6508444  3
   7267   7271   7272   7282     1  0.0000000  0.6508444  3
   7267   7271   7273   7274     1  0.0000000  0.6508444  3
   7267   7271   7273   7276     1  0.0000000  0.6508444  3
   7268   7265   7267   7271     1  0.0000000  0.6508444  3
   7268   7265   7267   7269     1  0.0000000  0.6508444  3
   7268   7265   7267   7270     1  0.0000000  0.6508444  3
   7269   7267   7271   7272     1  0.0000000  0.6508444  3
   7269   7267   7271   7273     1  0.0000000  0.6508444  3
   7269   7267   7271   7336     1  0.0000000  0.6508444  3
   7270   7267   7271   7272     1  0.0000000  0.6508444  3
   7270   7267   7271   7273     1  0.0000000  0.6508444  3
   7270   7267   7271   7336     1  0.0000000  0.6508444  3
   7271   7272   7283   7284     1  0.0000000  0.6508444  3
   7271   7272   7283   7285     1  0.0000000  0.6508444  3
   7271   7273   7275   7277     1  0.0000000  0.6508444  3
   7271   7273   7275   7278     1  0.0000000  0.6508444  3
   7272   7271   7273   7274     1  0.0000000  0.6508444  3
   7272   7271   7273   7276     1  0.0000000  0.6508444  3
   7273   7271   7272   7281     1  0.0000000  0.6508444  3
   7273   7271   7272   7282     1  0.0000000  0.6508444  3
   7274   7273   7271   7336     1  0.0000000  0.6508444  3
   7274   7273   7275   7279     1  0.0000000  0.6508444  3
   7274   7273   7275   7277     1  0.0000000  0.6508444  3
   7274   7273   7275   7278     1  0.0000000  0.6508444  3
   7275   7273   7271   7336     1  0.0000000  0.6508444  3
   7275   7279   7311   7301     1  180.0000771  6.0668000  2
   7275   7279   7311   7301     1  180.0000771  1.4644000  4
   7276   7273   7271   7336     1  0.0000000  0.6508444  3
   7276   7273   7275   7279     1  0.0000000  0.6508444  3
   7276   7273   7275   7277     1  0.0000000  0.6508444  3
   7276   7273   7275   7278     1  0.0000000  0.6508444  3
   7277   7275   7279   7280     1  0.0000000  3.3472000  1
   7277   7275   7279   7280     1  0.0000000  0.0000000  2
   7277   7275   7279   7280     1  180.0000771  0.3347200  3
   7277   7275   7279   7311     1  180.0000771  0.0000000  2
   7278   7275   7279   7280     1  0.0000000  3.3472000  1
   7278   7275   7279   7280     1  0.0000000  0.0000000  2
   7278   7275   7279   7280     1  180.0000771  0.3347200  3
   7278   7275   7279   7311     1  180.0000771  0.0000000  2
   7279   7311   7292   7294     1  0.0000000  1.2552000  3
   7280   7279   7311   7301     1  180.0000771  6.0668000  2
   7280   7279   7311   7301     1  180.0000771  1.4644000  4
   7281   7272   7271   7336     1  0.0000000  0.6508444  3
   7281   7272   7283   7286     1  0.0000000  0.6508444  3
   7281   7272   7283   7284     1  0.0000000  0.6508444  3
   7281   7272   7283   7285     1  0.0000000  0.6508444  3
   7282   7272   7271   7336     1  0.0000000  0.6508444  3
   7282   7272   7283   7286     1  0.0000000  0.6508444  3
   7282   7272   7283   7284     1  0.0000000  0.6508444  3
   7282   7272   7283   7285     1  0.0000000  0.6508444  3
   7283   7272   7271   7336     1  0.0000000  0.6508444  3
   7283   7286   7335   7325     1  180.0000771  6.0668000  2
   7283   7286   7335   7325     1  180.0000771  1.4644000  4
   7284   7283   7286   7287     1  0.0000000  3.3472000  1
   7284   7283   7286   7287     1  0.0000000  0.0000000  2
   7284   7283   7286   7287     1  180.0000771  0.3347200  3
   7284   7283   7286   7335     1  180.0000771  0.0000000  2
   7285   7283   7286   7287     1  0.0000000  3.3472000  1
   7285   7283   7286   7287     1  0.0000000  0.0000000  2
   7285   7283   7286   7287     1  180.0000771  0.3347200  3
   7285   7283   7286   7335     1  180.0000771  0.0000000  2
   7286   7335   7316   7318     1  0.0000000  1.2552000  3
   7287   7286   7335   7325     1  180.0000771  6.0668000  2
   7287   7286   7335   7325     1  180.0000771  1.4644000  4
   7288   7289   7291   7295     1  0.0000000  0.6508444  3
   7288   7289   7309   7310     1  0.0000000  1.0460000  1
   7288   7289   7309   7310     1  0.0000000  0.6694400  3
   7288   7299   7304   7305     1  0.0000000  1.0460000  1
   7288   7299   7304   7305     1  0.0000000  0.6694400  3
   7288   7306   7293   7296     1  0.0000000  1.6038667  3
   7289   7288   7299   7302     1  0.0000000  0.6508444  3
   7289   7288   7299   7303     1  0.0000000  0.6508444  3
   7289   7291   7292   7294     1  0.0000000  0.6508444  3
   7289   7291   7298   7300     1  0.0000000  1.0460000  1
   7289   7291   7298   7300     1  0.0000000  0.6694400  3
   7290   7288   7289   7291     1  0.0000000  0.6508444  3
   7290   7288   7289   7309     1  0.0000000  1.0460000  1
   7290   7288   7289   7309     1  0.0000000  0.0000000  3
   7290   7288   7289   7308     1  0.0000000  0.6508444  3
   7290   7288   7299   7304     1  0.0000000  1.0460000  1
   7290   7288   7299   7304     1  0.0000000  0.0000000  3
   7290   7288   7299   7302     1  0.0000000  0.6508444  3
   7290   7288   7299   7303     1  0.0000000  0.6508444  3
   7290   7288   7306   7293     1  0.0000000  1.6038667  3
   7291   7289   7309   7310     1  0.0000000  1.0460000  1
   7291   7289   7309   7310     1  0.0000000  0.6694400  3
   7291   7292   7293   7296     1  0.0000000  0.6508444  3
   7291   7292   7311   7301     1  0.0000000  1.2552000  3
   7292   7291   7289   7308     1  0.0000000  0.6508444  3
   7292   7291   7298   7300     1  0.0000000  1.0460000  1
   7292   7291   7298   7300     1  0.0000000  0.6694400  3
   7292   7293   7297   7307     1  0.0000000  1.0460000  1
   7292   7293   7297   7307     1  0.0000000  0.6694400  3
   7293   7292   7291   7295     1  0.0000000  0.6508444  3
   7293   7292   7311   7301     1  0.0000000  1.2552000  3
   7294   7292   7291   7298     1  0.0000000  1.0460000  1
   7294   7292   7291   7298     1  0.0000000  0.0000000  3
   7294   7292   7291   7295     1  0.0000000  0.6508444  3
   7294   7292   7293   7297     1  0.0000000  1.0460000  1
   7294   7292   7293   7297     1  0.0000000  0.0000000  3
   7294   7292   7293   7306     1  0.0000000  1.0460000  1
   7294   7292   7293   7306     1  0.0000000  0.0000000  3
   7294   7292   7293   7296     1  0.0000000  0.6508444  3
   7294   7292   7311   7301     1  0.0000000  1.2552000  3
   7295   7291   7289   7309     1  0.0000000  1.0460000  1
   7295   7291   7289   7309     1  0.0000000  0.0000000  3
   7295   7291   7289   7308     1  0.0000000  0.6508444  3
   7295   7291   7292   7311     1  0.0000000  0.6508444  3
   7295   7291   7298   7300     1  0.0000000  0.6973333  3
   7296   7293   7292   7311     1  0.0000000  0.6508444  3
   7296   7293   7297   7307     1  0.0000000  0.6973333  3
   7298   7291   7289   7308     1  0.0000000  1.0460000  1
   7298   7291   7289   7308     1  0.0000000  0.0000000  3
   7299   7288   7289   7308     1  0.0000000  0.6508444  3
   7302   7299   7288   7306     1  0.0000000  1.0460000  1
   7302   7299   7288   7306     1  0.0000000  0.0000000  3
   7302   7299   7304   7305     1  0.0000000  0.6973333  3
   7303   7299   7288   7306     1  0.0000000  1.0460000  1
   7303   7299   7288   7306     1  0.0000000  0.0000000  3
   7303   7299   7304   7305     1  0.0000000  0.6973333  3
   7306   7288   7289   7308     1  0.0000000  1.0460000  1
   7306   7288   7289   7308     1  0.0000000  0.0000000  3
   7306   7293   7297   7307     1  0.0000000  0.6973333  3
   7308   7289   7309   7310     1  0.0000000  0.6973333  3
   7312   7313   7315   7319     1  0.0000000  0.6508444  3
   7312   7313   7333   7334     1  0.0000000  1.0460000  1
   7312   7313   7333   7334     1  0.0000000  0.6694400  3
   7312   7323   7328   7329     1  0.0000000  1.0460000  1
   7312   7323   7328   7329     1  0.0000000  0.6694400  3
   7312   7330   7317   7320     1  0.0000000  1.6038667  3
   7313   7312   7323   7326     1  0.0000000  0.6508444  3
   7313   7312   7323   7327     1  0.0000000  0.6508444  3
   7313   7315   7316   7318     1  0.0000000  0.6508444  3
   7313   7315   7322   7324     1  0.0000000  1.0460000  1
   7313   7315   7322   7324     1  0.0000000  0.6694400  3
   7314   7312   7313   7315     1  0.0000000  0.6508444  3
   7314   7312   7313   7333     1  0.0000000  1.0460000  1
   7314   7312   7313   7333     1  0.0000000  0.0000000  3
   7314   7312   7313   7332     1  0.0000000  0.6508444  3
   7314   7312   7323   7328     1  0.0000000  1.0460000  1
   7314   7312   7323   7328     1  0.0000000  0.0000000  3
   7314   7312   7323   7326     1  0.0000000  0.6508444  3
   7314   7312   7323   7327     1  0.0000000  0.6508444  3
   7314   7312   7330   7317     1  0.0000000  1.6038667  3
   7315   7313   7333   7334     1  0.0000000  1.0460000  1
   7315   7313   7333   7334     1  0.0000000  0.6694400  3
   7315   7316   7317   7320     1  0.0000000  0.6508444  3
   7315   7316   7335   7325     1  0.0000000  1.2552000  3
   7316   7315   7313   7332     1  0.0000000  0.6508444  3
   7316   7315   7322   7324     1  0.0000000  1.0460000  1
   7316   7315   7322   7324     1  0.0000000  0.6694400  3
   7316   7317   7321   7331     1  0.0000000  1.0460000  1
   7316   7317   7321   7331     1  0.0000000  0.6694400  3
   7317   7316   7315   7319     1  0.0000000  0.6508444  3
   7317   7316   7335   7325     1  0.0000000  1.2552000  3
   7318   7316   7315   7322     1  0.0000000  1.0460000  1
   7318   7316   7315   7322     1  0.0000000  0.0000000  3
   7318   7316   7315   7319     1  0.0000000  0.6508444  3
   7318   7316   7317   7321     1  0.0000000  1.0460000  1
   7318   7316   7317   7321     1  0.0000000  0.0000000  3
   7318   7316   7317   7330     1  0.0000000  1.0460000  1
   7318   7316   7317   7330     1  0.0000000  0.0000000  3
   7318   7316   7317   7320     1  0.0000000  0.6508444  3
   7318   7316   7335   7325     1  0.0000000  1.2552000  3
   7319   7315   7313   7333     1  0.0000000  1.0460000  1
   7319   7315   7313   7333     1  0.0000000  0.0000000  3
   7319   7315   7313   7332     1  0.0000000  0.6508444  3
   7319   7315   7316   7335     1  0.0000000  0.6508444  3
   7319   7315   7322   7324     1  0.0000000  0.6973333  3
   7320   7317   7316   7335     1  0.0000000  0.6508444  3
   7320   7317   7321   7331     1  0.0000000  0.6973333  3
   7322   7315   7313   7332     1  0.0000000  1.0460000  1
   7322   7315   7313   7332     1  0.0000000  0.0000000  3
   7323   7312   7313   7332     1  0.0000000  0.6508444  3
   7326   7323   7312   7330     1  0.0000000  1.0460000  1
   7326   7323   7312   7330     1  0.0000000  0.0000000  3
   7326   7323   7328   7329     1  0.0000000  0.6973333  3
   7327   7323   7312   7330     1  0.0000000  1.0460000  1
   7327   7323   7312   7330     1  0.0000000  0.0000000  3
   7327   7323   7328   7329     1  0.0000000  0.6973333  3
   7330   7312   7313   7332     1  0.0000000  1.0460000  1
   7330   7312   7313   7332     1  0.0000000  0.0000000  3
   7330   7317   7321   7331     1  0.0000000  0.6973333  3
   7332   7313   7333   7334     1  0.0000000  0.6973333  3
   7337   7339   7341   7343     1  0.0000000  0.6508444  3
   7337   7339   7341   7344     1  0.0000000  0.6508444  3
   7338   7337   7339   7341     1  0.0000000  0.0000000  2
   7338   7337   7339   7340     1  0.0000000  0.0000000  2
   7338   7337   7339   7342     1  0.0000000  0.0000000  2
   7339   7341   7345   7410     1  0.0000000  0.6508444  3
   7340   7339   7341   7345     1  0.0000000  0.6508444  3
   7340   7339   7341   7343     1  0.0000000  0.6508444  3
   7340   7339   7341   7344     1  0.0000000  0.6508444  3
   7341   7345   7346   7355     1  0.0000000  0.6508444  3
   7341   7345   7346   7356     1  0.0000000  0.6508444  3
   7341   7345   7347   7348     1  0.0000000  0.6508444  3
   7341   7345   7347   7350     1  0.0000000  0.6508444  3
   7342   7339   7341   7345     1  0.0000000  0.6508444  3
   7342   7339   7341   7343     1  0.0000000  0.6508444  3
   7342   7339   7341   7344     1  0.0000000  0.6508444  3
   7343   7341   7345   7346     1  0.0000000  0.6508444  3
   7343   7341   7345   7347     1  0.0000000  0.6508444  3
   7343   7341   7345   7410     1  0.0000000  0.6508444  3
   7344   7341   7345   7346     1  0.0000000  0.6508444  3
   7344   7341   7345   7347     1  0.0000000  0.6508444  3
   7344   7341   7345   7410     1  0.0000000  0.6508444  3
   7345   7346   7357   7358     1  0.0000000  0.6508444  3
   7345   7346   7357   7359     1  0.0000000  0.6508444  3
   7345   7347   7349   7351     1  0.0000000  0.6508444  3
   7345   7347   7349   7352     1  0.0000000  0.6508444  3
   7346   7345   7347   7348     1  0.0000000  0.6508444  3
   7346   7345   7347   7350     1  0.0000000  0.6508444  3
   7347   7345   7346   7355     1  0.0000000  0.6508444  3
   7347   7345   7346   7356     1  0.0000000  0.6508444  3
   7348   7347   7349   7353     1  0.0000000  0.6508444  3
   7348   7347   7349   7351     1  0.0000000  0.6508444  3
   7348   7347   7349   7352     1  0.0000000  0.6508444  3
   7348   7347   7345   7410     1  0.0000000  0.6508444  3
   7349   7353   7385   7375     1  180.0000771  6.0668000  2
   7349   7353   7385   7375     1  180.0000771  1.4644000  4
   7349   7347   7345   7410     1  0.0000000  0.6508444  3
   7350   7347   7349   7353     1  0.0000000  0.6508444  3
   7350   7347   7349   7351     1  0.0000000  0.6508444  3
   7350   7347   7349   7352     1  0.0000000  0.6508444  3
   7350   7347   7345   7410     1  0.0000000  0.6508444  3
   7351   7349   7353   7354     1  0.0000000  3.3472000  1
   7351   7349   7353   7354     1  0.0000000  0.0000000  2
   7351   7349   7353   7354     1  180.0000771  0.3347200  3
   7351   7349   7353   7385     1  180.0000771  0.0000000  2
   7352   7349   7353   7354     1  0.0000000  3.3472000  1
   7352   7349   7353   7354     1  0.0000000  0.0000000  2
   7352   7349   7353   7354     1  180.0000771  0.3347200  3
   7352   7349   7353   7385     1  180.0000771  0.0000000  2
   7353   7385   7366   7368     1  0.0000000  1.2552000  3
   7354   7353   7385   7375     1  180.0000771  6.0668000  2
   7354   7353   7385   7375     1  180.0000771  1.4644000  4
   7355   7346   7357   7360     1  0.0000000  0.6508444  3
   7355   7346   7357   7358     1  0.0000000  0.6508444  3
   7355   7346   7357   7359     1  0.0000000  0.6508444  3
   7355   7346   7345   7410     1  0.0000000  0.6508444  3
   7356   7346   7357   7360     1  0.0000000  0.6508444  3
   7356   7346   7357   7358     1  0.0000000  0.6508444  3
   7356   7346   7357   7359     1  0.0000000  0.6508444  3
   7356   7346   7345   7410     1  0.0000000  0.6508444  3
   7357   7360   7409   7399     1  180.0000771  6.0668000  2
   7357   7360   7409   7399     1  180.0000771  1.4644000  4
   7357   7346   7345   7410     1  0.0000000  0.6508444  3
   7358   7357   7360   7361     1  0.0000000  3.3472000  1
   7358   7357   7360   7361     1  0.0000000  0.0000000  2
   7358   7357   7360   7361     1  180.0000771  0.3347200  3
   7358   7357   7360   7409     1  180.0000771  0.0000000  2
   7359   7357   7360   7361     1  0.0000000  3.3472000  1
   7359   7357   7360   7361     1  0.0000000  0.0000000  2
   7359   7357   7360   7361     1  180.0000771  0.3347200  3
   7359   7357   7360   7409     1  180.0000771  0.0000000  2
   7360   7409   7390   7392     1  0.0000000  1.2552000  3
   7361   7360   7409   7399     1  180.0000771  6.0668000  2
   7361   7360   7409   7399     1  180.0000771  1.4644000  4
   7362   7363   7365   7369     1  0.0000000  0.6508444  3
   7362   7363   7383   7384     1  0.0000000  1.0460000  1
   7362   7363   7383   7384     1  0.0000000  0.6694400  3
   7362   7373   7378   7379     1  0.0000000  1.0460000  1
   7362   7373   7378   7379     1  0.0000000  0.6694400  3
   7362   7380   7367   7370     1  0.0000000  1.6038667  3
   7363   7365   7366   7368     1  0.0000000  0.6508444  3
   7363   7365   7372   7374     1  0.0000000  1.0460000  1
   7363   7365   7372   7374     1  0.0000000  0.6694400  3
   7363   7362   7373   7376     1  0.0000000  0.6508444  3
   7363   7362   7373   7377     1  0.0000000  0.6508444  3
   7364   7362   7363   7365     1  0.0000000  0.6508444  3
   7364   7362   7363   7383     1  0.0000000  1.0460000  1
   7364   7362   7363   7383     1  0.0000000  0.0000000  3
   7364   7362   7363   7382     1  0.0000000  0.6508444  3
   7364   7362   7373   7378     1  0.0000000  1.0460000  1
   7364   7362   7373   7378     1  0.0000000  0.0000000  3
   7364   7362   7373   7376     1  0.0000000  0.6508444  3
   7364   7362   7373   7377     1  0.0000000  0.6508444  3
   7364   7362   7380   7367     1  0.0000000  1.6038667  3
   7365   7366   7367   7370     1  0.0000000  0.6508444  3
   7365   7366   7385   7375     1  0.0000000  1.2552000  3
   7365   7363   7383   7384     1  0.0000000  1.0460000  1
   7365   7363   7383   7384     1  0.0000000  0.6694400  3
   7366   7367   7371   7381     1  0.0000000  1.0460000  1
   7366   7367   7371   7381     1  0.0000000  0.6694400  3
   7366   7365   7372   7374     1  0.0000000  1.0460000  1
   7366   7365   7372   7374     1  0.0000000  0.6694400  3
   7366   7365   7363   7382     1  0.0000000  0.6508444  3
   7367   7366   7385   7375     1  0.0000000  1.2552000  3
   7367   7366   7365   7369     1  0.0000000  0.6508444  3
   7368   7366   7367   7371     1  0.0000000  1.0460000  1
   7368   7366   7367   7371     1  0.0000000  0.0000000  3
   7368   7366   7367   7380     1  0.0000000  1.0460000  1
   7368   7366   7367   7380     1  0.0000000  0.0000000  3
   7368   7366   7367   7370     1  0.0000000  0.6508444  3
   7368   7366   7385   7375     1  0.0000000  1.2552000  3
   7368   7366   7365   7372     1  0.0000000  1.0460000  1
   7368   7366   7365   7372     1  0.0000000  0.0000000  3
   7368   7366   7365   7369     1  0.0000000  0.6508444  3
   7369   7365   7366   7385     1  0.0000000  0.6508444  3
   7369   7365   7372   7374     1  0.0000000  0.6973333  3
   7369   7365   7363   7383     1  0.0000000  1.0460000  1
   7369   7365   7363   7383     1  0.0000000  0.0000000  3
   7369   7365   7363   7382     1  0.0000000  0.6508444  3
   7370   7367   7371   7381     1  0.0000000  0.6973333  3
   7370   7367   7366   7385     1  0.0000000  0.6508444  3
   7372   7365   7363   7382     1  0.0000000  1.0460000  1
   7372   7365   7363   7382     1  0.0000000  0.0000000  3
   7373   7362   7363   7382     1  0.0000000  0.6508444  3
   7376   7373   7378   7379     1  0.0000000  0.6973333  3
   7376   7373   7362   7380     1  0.0000000  1.0460000  1
   7376   7373   7362   7380     1  0.0000000  0.0000000  3
   7377   7373   7378   7379     1  0.0000000  0.6973333  3
   7377   7373   7362   7380     1  0.0000000  1.0460000  1
   7377   7373   7362   7380     1  0.0000000  0.0000000  3
   7380   7367   7371   7381     1  0.0000000  0.6973333  3
   7380   7362   7363   7382     1  0.0000000  1.0460000  1
   7380   7362   7363   7382     1  0.0000000  0.0000000  3
   7382   7363   7383   7384     1  0.0000000  0.6973333  3
   7386   7387   7389   7393     1  0.0000000  0.6508444  3
   7386   7387   7407   7408     1  0.0000000  1.0460000  1
   7386   7387   7407   7408     1  0.0000000  0.6694400  3
   7386   7397   7402   7403     1  0.0000000  1.0460000  1
   7386   7397   7402   7403     1  0.0000000  0.6694400  3
   7386   7404   7391   7394     1  0.0000000  1.6038667  3
   7387   7389   7390   7392     1  0.0000000  0.6508444  3
   7387   7389   7396   7398     1  0.0000000  1.0460000  1
   7387   7389   7396   7398     1  0.0000000  0.6694400  3
   7387   7386   7397   7400     1  0.0000000  0.6508444  3
   7387   7386   7397   7401     1  0.0000000  0.6508444  3
   7388   7386   7387   7389     1  0.0000000  0.6508444  3
   7388   7386   7387   7407     1  0.0000000  1.0460000  1
   7388   7386   7387   7407     1  0.0000000  0.0000000  3
   7388   7386   7387   7406     1  0.0000000  0.6508444  3
   7388   7386   7397   7402     1  0.0000000  1.0460000  1
   7388   7386   7397   7402     1  0.0000000  0.0000000  3
   7388   7386   7397   7400     1  0.0000000  0.6508444  3
   7388   7386   7397   7401     1  0.0000000  0.6508444  3
   7388   7386   7404   7391     1  0.0000000  1.6038667  3
   7389   7390   7391   7394     1  0.0000000  0.6508444  3
   7389   7390   7409   7399     1  0.0000000  1.2552000  3
   7389   7387   7407   7408     1  0.0000000  1.0460000  1
   7389   7387   7407   7408     1  0.0000000  0.6694400  3
   7390   7391   7395   7405     1  0.0000000  1.0460000  1
   7390   7391   7395   7405     1  0.0000000  0.6694400  3
   7390   7389   7396   7398     1  0.0000000  1.0460000  1
   7390   7389   7396   7398     1  0.0000000  0.6694400  3
   7390   7389   7387   7406     1  0.0000000  0.6508444  3
   7391   7390   7409   7399     1  0.0000000  1.2552000  3
   7391   7390   7389   7393     1  0.0000000  0.6508444  3
   7392   7390   7391   7395     1  0.0000000  1.0460000  1
   7392   7390   7391   7395     1  0.0000000  0.0000000  3
   7392   7390   7391   7404     1  0.0000000  1.0460000  1
   7392   7390   7391   7404     1  0.0000000  0.0000000  3
   7392   7390   7391   7394     1  0.0000000  0.6508444  3
   7392   7390   7409   7399     1  0.0000000  1.2552000  3
   7392   7390   7389   7396     1  0.0000000  1.0460000  1
   7392   7390   7389   7396     1  0.0000000  0.0000000  3
   7392   7390   7389   7393     1  0.0000000  0.6508444  3
   7393   7389   7390   7409     1  0.0000000  0.6508444  3
   7393   7389   7396   7398     1  0.0000000  0.6973333  3
   7393   7389   7387   7407     1  0.0000000  1.0460000  1
   7393   7389   7387   7407     1  0.0000000  0.0000000  3
   7393   7389   7387   7406     1  0.0000000  0.6508444  3
   7394   7391   7395   7405     1  0.0000000  0.6973333  3
   7394   7391   7390   7409     1  0.0000000  0.6508444  3
   7396   7389   7387   7406     1  0.0000000  1.0460000  1
   7396   7389   7387   7406     1  0.0000000  0.0000000  3
   7397   7386   7387   7406     1  0.0000000  0.6508444  3
   7400   7397   7402   7403     1  0.0000000  0.6973333  3
   7400   7397   7386   7404     1  0.0000000  1.0460000  1
   7400   7397   7386   7404     1  0.0000000  0.0000000  3
   7401   7397   7402   7403     1  0.0000000  0.6973333  3
   7401   7397   7386   7404     1  0.0000000  1.0460000  1
   7401   7397   7386   7404     1  0.0000000  0.0000000  3
   7404   7391   7395   7405     1  0.0000000  0.6973333  3
   7404   7386   7387   7406     1  0.0000000  1.0460000  1
   7404   7386   7387   7406     1  0.0000000  0.0000000  3
   7406   7387   7407   7408     1  0.0000000  0.6973333  3
   7411   7413   7415   7417     1  0.0000000  0.6508444  3
   7411   7413   7415   7418     1  0.0000000  0.6508444  3
   7412   7411   7413   7415     1  0.0000000  0.0000000  2
   7412   7411   7413   7414     1  0.0000000  0.0000000  2
   7412   7411   7413   7416     1  0.0000000  0.0000000  2
   7413   7415   7419   7484     1  0.0000000  0.6508444  3
   7414   7413   7415   7419     1  0.0000000  0.6508444  3
   7414   7413   7415   7417     1  0.0000000  0.6508444  3
   7414   7413   7415   7418     1  0.0000000  0.6508444  3
   7415   7419   7420   7429     1  0.0000000  0.6508444  3
   7415   7419   7420   7430     1  0.0000000  0.6508444  3
   7415   7419   7421   7422     1  0.0000000  0.6508444  3
   7415   7419   7421   7424     1  0.0000000  0.6508444  3
   7416   7413   7415   7419     1  0.0000000  0.6508444  3
   7416   7413   7415   7417     1  0.0000000  0.6508444  3
   7416   7413   7415   7418     1  0.0000000  0.6508444  3
   7417   7415   7419   7420     1  0.0000000  0.6508444  3
   7417   7415   7419   7421     1  0.0000000  0.6508444  3
   7417   7415   7419   7484     1  0.0000000  0.6508444  3
   7418   7415   7419   7420     1  0.0000000  0.6508444  3
   7418   7415   7419   7421     1  0.0000000  0.6508444  3
   7418   7415   7419   7484     1  0.0000000  0.6508444  3
   7419   7420   7431   7432     1  0.0000000  0.6508444  3
   7419   7420   7431   7433     1  0.0000000  0.6508444  3
   7419   7421   7423   7425     1  0.0000000  0.6508444  3
   7419   7421   7423   7426     1  0.0000000  0.6508444  3
   7420   7419   7421   7422     1  0.0000000  0.6508444  3
   7420   7419   7421   7424     1  0.0000000  0.6508444  3
   7421   7419   7420   7429     1  0.0000000  0.6508444  3
   7421   7419   7420   7430     1  0.0000000  0.6508444  3
   7422   7421   7419   7484     1  0.0000000  0.6508444  3
   7422   7421   7423   7427     1  0.0000000  0.6508444  3
   7422   7421   7423   7425     1  0.0000000  0.6508444  3
   7422   7421   7423   7426     1  0.0000000  0.6508444  3
   7423   7421   7419   7484     1  0.0000000  0.6508444  3
   7423   7427   7459   7449     1  180.0000771  6.0668000  2
   7423   7427   7459   7449     1  180.0000771  1.4644000  4
   7424   7421   7419   7484     1  0.0000000  0.6508444  3
   7424   7421   7423   7427     1  0.0000000  0.6508444  3
   7424   7421   7423   7425     1  0.0000000  0.6508444  3
   7424   7421   7423   7426     1  0.0000000  0.6508444  3
   7425   7423   7427   7428     1  0.0000000  3.3472000  1
   7425   7423   7427   7428     1  0.0000000  0.0000000  2
   7425   7423   7427   7428     1  180.0000771  0.3347200  3
   7425   7423   7427   7459     1  180.0000771  0.0000000  2
   7426   7423   7427   7428     1  0.0000000  3.3472000  1
   7426   7423   7427   7428     1  0.0000000  0.0000000  2
   7426   7423   7427   7428     1  180.0000771  0.3347200  3
   7426   7423   7427   7459     1  180.0000771  0.0000000  2
   7427   7459   7440   7442     1  0.0000000  1.2552000  3
   7428   7427   7459   7449     1  180.0000771  6.0668000  2
   7428   7427   7459   7449     1  180.0000771  1.4644000  4
   7429   7420   7419   7484     1  0.0000000  0.6508444  3
   7429   7420   7431   7434     1  0.0000000  0.6508444  3
   7429   7420   7431   7432     1  0.0000000  0.6508444  3
   7429   7420   7431   7433     1  0.0000000  0.6508444  3
   7430   7420   7419   7484     1  0.0000000  0.6508444  3
   7430   7420   7431   7434     1  0.0000000  0.6508444  3
   7430   7420   7431   7432     1  0.0000000  0.6508444  3
   7430   7420   7431   7433     1  0.0000000  0.6508444  3
   7431   7420   7419   7484     1  0.0000000  0.6508444  3
   7431   7434   7483   7473     1  180.0000771  6.0668000  2
   7431   7434   7483   7473     1  180.0000771  1.4644000  4
   7432   7431   7434   7435     1  0.0000000  3.3472000  1
   7432   7431   7434   7435     1  0.0000000  0.0000000  2
   7432   7431   7434   7435     1  180.0000771  0.3347200  3
   7432   7431   7434   7483     1  180.0000771  0.0000000  2
   7433   7431   7434   7435     1  0.0000000  3.3472000  1
   7433   7431   7434   7435     1  0.0000000  0.0000000  2
   7433   7431   7434   7435     1  180.0000771  0.3347200  3
   7433   7431   7434   7483     1  180.0000771  0.0000000  2
   7434   7483   7464   7466     1  0.0000000  1.2552000  3
   7435   7434   7483   7473     1  180.0000771  6.0668000  2
   7435   7434   7483   7473     1  180.0000771  1.4644000  4
   7436   7437   7439   7443     1  0.0000000  0.6508444  3
   7436   7437   7457   7458     1  0.0000000  1.0460000  1
   7436   7437   7457   7458     1  0.0000000  0.6694400  3
   7436   7447   7452   7453     1  0.0000000  1.0460000  1
   7436   7447   7452   7453     1  0.0000000  0.6694400  3
   7436   7454   7441   7444     1  0.0000000  1.6038667  3
   7437   7436   7447   7450     1  0.0000000  0.6508444  3
   7437   7436   7447   7451     1  0.0000000  0.6508444  3
   7437   7439   7440   7442     1  0.0000000  0.6508444  3
   7437   7439   7446   7448     1  0.0000000  1.0460000  1
   7437   7439   7446   7448     1  0.0000000  0.6694400  3
   7438   7436   7437   7439     1  0.0000000  0.6508444  3
   7438   7436   7437   7457     1  0.0000000  1.0460000  1
   7438   7436   7437   7457     1  0.0000000  0.0000000  3
   7438   7436   7437   7456     1  0.0000000  0.6508444  3
   7438   7436   7447   7452     1  0.0000000  1.0460000  1
   7438   7436   7447   7452     1  0.0000000  0.0000000  3
   7438   7436   7447   7450     1  0.0000000  0.6508444  3
   7438   7436   7447   7451     1  0.0000000  0.6508444  3
   7438   7436   7454   7441     1  0.0000000  1.6038667  3
   7439   7437   7457   7458     1  0.0000000  1.0460000  1
   7439   7437   7457   7458     1  0.0000000  0.6694400  3
   7439   7440   7441   7444     1  0.0000000  0.6508444  3
   7439   7440   7459   7449     1  0.0000000  1.2552000  3
   7440   7439   7437   7456     1  0.0000000  0.6508444  3
   7440   7439   7446   7448     1  0.0000000  1.0460000  1
   7440   7439   7446   7448     1  0.0000000  0.6694400  3
   7440   7441   7445   7455     1  0.0000000  1.0460000  1
   7440   7441   7445   7455     1  0.0000000  0.6694400  3
   7441   7440   7439   7443     1  0.0000000  0.6508444  3
   7441   7440   7459   7449     1  0.0000000  1.2552000  3
   7442   7440   7439   7446     1  0.0000000  1.0460000  1
   7442   7440   7439   7446     1  0.0000000  0.0000000  3
   7442   7440   7439   7443     1  0.0000000  0.6508444  3
   7442   7440   7441   7445     1  0.0000000  1.0460000  1
   7442   7440   7441   7445     1  0.0000000  0.0000000  3
   7442   7440   7441   7454     1  0.0000000  1.0460000  1
   7442   7440   7441   7454     1  0.0000000  0.0000000  3
   7442   7440   7441   7444     1  0.0000000  0.6508444  3
   7442   7440   7459   7449     1  0.0000000  1.2552000  3
   7443   7439   7437   7457     1  0.0000000  1.0460000  1
   7443   7439   7437   7457     1  0.0000000  0.0000000  3
   7443   7439   7437   7456     1  0.0000000  0.6508444  3
   7443   7439   7440   7459     1  0.0000000  0.6508444  3
   7443   7439   7446   7448     1  0.0000000  0.6973333  3
   7444   7441   7440   7459     1  0.0000000  0.6508444  3
   7444   7441   7445   7455     1  0.0000000  0.6973333  3
   7446   7439   7437   7456     1  0.0000000  1.0460000  1
   7446   7439   7437   7456     1  0.0000000  0.0000000  3
   7447   7436   7437   7456     1  0.0000000  0.6508444  3
   7450   7447   7436   7454     1  0.0000000  1.0460000  1
   7450   7447   7436   7454     1  0.0000000  0.0000000  3
   7450   7447   7452   7453     1  0.0000000  0.6973333  3
   7451   7447   7436   7454     1  0.0000000  1.0460000  1
   7451   7447   7436   7454     1  0.0000000  0.0000000  3
   7451   7447   7452   7453     1  0.0000000  0.6973333  3
   7454   7436   7437   7456     1  0.0000000  1.0460000  1
   7454   7436   7437   7456     1  0.0000000  0.0000000  3
   7454   7441   7445   7455     1  0.0000000  0.6973333  3
   7456   7437   7457   7458     1  0.0000000  0.6973333  3
   7460   7461   7463   7467     1  0.0000000  0.6508444  3
   7460   7461   7481   7482     1  0.0000000  1.0460000  1
   7460   7461   7481   7482     1  0.0000000  0.6694400  3
   7460   7471   7476   7477     1  0.0000000  1.0460000  1
   7460   7471   7476   7477     1  0.0000000  0.6694400  3
   7460   7478   7465   7468     1  0.0000000  1.6038667  3
   7461   7460   7471   7474     1  0.0000000  0.6508444  3
   7461   7460   7471   7475     1  0.0000000  0.6508444  3
   7461   7463   7464   7466     1  0.0000000  0.6508444  3
   7461   7463   7470   7472     1  0.0000000  1.0460000  1
   7461   7463   7470   7472     1  0.0000000  0.6694400  3
   7462   7460   7461   7463     1  0.0000000  0.6508444  3
   7462   7460   7461   7481     1  0.0000000  1.0460000  1
   7462   7460   7461   7481     1  0.0000000  0.0000000  3
   7462   7460   7461   7480     1  0.0000000  0.6508444  3
   7462   7460   7471   7476     1  0.0000000  1.0460000  1
   7462   7460   7471   7476     1  0.0000000  0.0000000  3
   7462   7460   7471   7474     1  0.0000000  0.6508444  3
   7462   7460   7471   7475     1  0.0000000  0.6508444  3
   7462   7460   7478   7465     1  0.0000000  1.6038667  3
   7463   7461   7481   7482     1  0.0000000  1.0460000  1
   7463   7461   7481   7482     1  0.0000000  0.6694400  3
   7463   7464   7465   7468     1  0.0000000  0.6508444  3
   7463   7464   7483   7473     1  0.0000000  1.2552000  3
   7464   7463   7461   7480     1  0.0000000  0.6508444  3
   7464   7463   7470   7472     1  0.0000000  1.0460000  1
   7464   7463   7470   7472     1  0.0000000  0.6694400  3
   7464   7465   7469   7479     1  0.0000000  1.0460000  1
   7464   7465   7469   7479     1  0.0000000  0.6694400  3
   7465   7464   7463   7467     1  0.0000000  0.6508444  3
   7465   7464   7483   7473     1  0.0000000  1.2552000  3
   7466   7464   7463   7470     1  0.0000000  1.0460000  1
   7466   7464   7463   7470     1  0.0000000  0.0000000  3
   7466   7464   7463   7467     1  0.0000000  0.6508444  3
   7466   7464   7465   7469     1  0.0000000  1.0460000  1
   7466   7464   7465   7469     1  0.0000000  0.0000000  3
   7466   7464   7465   7478     1  0.0000000  1.0460000  1
   7466   7464   7465   7478     1  0.0000000  0.0000000  3
   7466   7464   7465   7468     1  0.0000000  0.6508444  3
   7466   7464   7483   7473     1  0.0000000  1.2552000  3
   7467   7463   7461   7481     1  0.0000000  1.0460000  1
   7467   7463   7461   7481     1  0.0000000  0.0000000  3
   7467   7463   7461   7480     1  0.0000000  0.6508444  3
   7467   7463   7464   7483     1  0.0000000  0.6508444  3
   7467   7463   7470   7472     1  0.0000000  0.6973333  3
   7468   7465   7464   7483     1  0.0000000  0.6508444  3
   7468   7465   7469   7479     1  0.0000000  0.6973333  3
   7470   7463   7461   7480     1  0.0000000  1.0460000  1
   7470   7463   7461   7480     1  0.0000000  0.0000000  3
   7471   7460   7461   7480     1  0.0000000  0.6508444  3
   7474   7471   7460   7478     1  0.0000000  1.0460000  1
   7474   7471   7460   7478     1  0.0000000  0.0000000  3
   7474   7471   7476   7477     1  0.0000000  0.6973333  3
   7475   7471   7460   7478     1  0.0000000  1.0460000  1
   7475   7471   7460   7478     1  0.0000000  0.0000000  3
   7475   7471   7476   7477     1  0.0000000  0.6973333  3
   7478   7460   7461   7480     1  0.0000000  1.0460000  1
   7478   7460   7461   7480     1  0.0000000  0.0000000  3
   7478   7465   7469   7479     1  0.0000000  0.6973333  3
   7480   7461   7481   7482     1  0.0000000  0.6973333  3
   7485   7487   7489   7491     1  0.0000000  0.6508444  3
   7485   7487   7489   7492     1  0.0000000  0.6508444  3
   7486   7485   7487   7489     1  0.0000000  0.0000000  2
   7486   7485   7487   7488     1  0.0000000  0.0000000  2
   7486   7485   7487   7490     1  0.0000000  0.0000000  2
   7487   7489   7493   7558     1  0.0000000  0.6508444  3
   7488   7487   7489   7493     1  0.0000000  0.6508444  3
   7488   7487   7489   7491     1  0.0000000  0.6508444  3
   7488   7487   7489   7492     1  0.0000000  0.6508444  3
   7489   7493   7494   7503     1  0.0000000  0.6508444  3
   7489   7493   7494   7504     1  0.0000000  0.6508444  3
   7489   7493   7495   7496     1  0.0000000  0.6508444  3
   7489   7493   7495   7498     1  0.0000000  0.6508444  3
   7490   7487   7489   7493     1  0.0000000  0.6508444  3
   7490   7487   7489   7491     1  0.0000000  0.6508444  3
   7490   7487   7489   7492     1  0.0000000  0.6508444  3
   7491   7489   7493   7494     1  0.0000000  0.6508444  3
   7491   7489   7493   7495     1  0.0000000  0.6508444  3
   7491   7489   7493   7558     1  0.0000000  0.6508444  3
   7492   7489   7493   7494     1  0.0000000  0.6508444  3
   7492   7489   7493   7495     1  0.0000000  0.6508444  3
   7492   7489   7493   7558     1  0.0000000  0.6508444  3
   7493   7494   7505   7506     1  0.0000000  0.6508444  3
   7493   7494   7505   7507     1  0.0000000  0.6508444  3
   7493   7495   7497   7499     1  0.0000000  0.6508444  3
   7493   7495   7497   7500     1  0.0000000  0.6508444  3
   7494   7493   7495   7496     1  0.0000000  0.6508444  3
   7494   7493   7495   7498     1  0.0000000  0.6508444  3
   7495   7493   7494   7503     1  0.0000000  0.6508444  3
   7495   7493   7494   7504     1  0.0000000  0.6508444  3
   7496   7495   7497   7501     1  0.0000000  0.6508444  3
   7496   7495   7497   7499     1  0.0000000  0.6508444  3
   7496   7495   7497   7500     1  0.0000000  0.6508444  3
   7496   7495   7493   7558     1  0.0000000  0.6508444  3
   7497   7501   7533   7523     1  180.0000771  6.0668000  2
   7497   7501   7533   7523     1  180.0000771  1.4644000  4
   7497   7495   7493   7558     1  0.0000000  0.6508444  3
   7498   7495   7497   7501     1  0.0000000  0.6508444  3
   7498   7495   7497   7499     1  0.0000000  0.6508444  3
   7498   7495   7497   7500     1  0.0000000  0.6508444  3
   7498   7495   7493   7558     1  0.0000000  0.6508444  3
   7499   7497   7501   7502     1  0.0000000  3.3472000  1
   7499   7497   7501   7502     1  0.0000000  0.0000000  2
   7499   7497   7501   7502     1  180.0000771  0.3347200  3
   7499   7497   7501   7533     1  180.0000771  0.0000000  2
   7500   7497   7501   7502     1  0.0000000  3.3472000  1
   7500   7497   7501   7502     1  0.0000000  0.0000000  2
   7500   7497   7501   7502     1  180.0000771  0.3347200  3
   7500   7497   7501   7533     1  180.0000771  0.0000000  2
   7501   7533   7514   7516     1  0.0000000  1.2552000  3
   7502   7501   7533   7523     1  180.0000771  6.0668000  2
   7502   7501   7533   7523     1  180.0000771  1.4644000  4
   7503   7494   7505   7508     1  0.0000000  0.6508444  3
   7503   7494   7505   7506     1  0.0000000  0.6508444  3
   7503   7494   7505   7507     1  0.0000000  0.6508444  3
   7503   7494   7493   7558     1  0.0000000  0.6508444  3
   7504   7494   7505   7508     1  0.0000000  0.6508444  3
   7504   7494   7505   7506     1  0.0000000  0.6508444  3
   7504   7494   7505   7507     1  0.0000000  0.6508444  3
   7504   7494   7493   7558     1  0.0000000  0.6508444  3
   7505   7508   7557   7547     1  180.0000771  6.0668000  2
   7505   7508   7557   7547     1  180.0000771  1.4644000  4
   7505   7494   7493   7558     1  0.0000000  0.6508444  3
   7506   7505   7508   7509     1  0.0000000  3.3472000  1
   7506   7505   7508   7509     1  0.0000000  0.0000000  2
   7506   7505   7508   7509     1  180.0000771  0.3347200  3
   7506   7505   7508   7557     1  180.0000771  0.0000000  2
   7507   7505   7508   7509     1  0.0000000  3.3472000  1
   7507   7505   7508   7509     1  0.0000000  0.0000000  2
   7507   7505   7508   7509     1  180.0000771  0.3347200  3
   7507   7505   7508   7557     1  180.0000771  0.0000000  2
   7508   7557   7538   7540     1  0.0000000  1.2552000  3
   7509   7508   7557   7547     1  180.0000771  6.0668000  2
   7509   7508   7557   7547     1  180.0000771  1.4644000  4
   7510   7511   7513   7517     1  0.0000000  0.6508444  3
   7510   7511   7531   7532     1  0.0000000  1.0460000  1
   7510   7511   7531   7532     1  0.0000000  0.6694400  3
   7510   7521   7526   7527     1  0.0000000  1.0460000  1
   7510   7521   7526   7527     1  0.0000000  0.6694400  3
   7510   7528   7515   7518     1  0.0000000  1.6038667  3
   7511   7513   7514   7516     1  0.0000000  0.6508444  3
   7511   7513   7520   7522     1  0.0000000  1.0460000  1
   7511   7513   7520   7522     1  0.0000000  0.6694400  3
   7511   7510   7521   7524     1  0.0000000  0.6508444  3
   7511   7510   7521   7525     1  0.0000000  0.6508444  3
   7512   7510   7511   7513     1  0.0000000  0.6508444  3
   7512   7510   7511   7531     1  0.0000000  1.0460000  1
   7512   7510   7511   7531     1  0.0000000  0.0000000  3
   7512   7510   7511   7530     1  0.0000000  0.6508444  3
   7512   7510   7521   7526     1  0.0000000  1.0460000  1
   7512   7510   7521   7526     1  0.0000000  0.0000000  3
   7512   7510   7521   7524     1  0.0000000  0.6508444  3
   7512   7510   7521   7525     1  0.0000000  0.6508444  3
   7512   7510   7528   7515     1  0.0000000  1.6038667  3
   7513   7514   7515   7518     1  0.0000000  0.6508444  3
   7513   7514   7533   7523     1  0.0000000  1.2552000  3
   7513   7511   7531   7532     1  0.0000000  1.0460000  1
   7513   7511   7531   7532     1  0.0000000  0.6694400  3
   7514   7515   7519   7529     1  0.0000000  1.0460000  1
   7514   7515   7519   7529     1  0.0000000  0.6694400  3
   7514   7513   7520   7522     1  0.0000000  1.0460000  1
   7514   7513   7520   7522     1  0.0000000  0.6694400  3
   7514   7513   7511   7530     1  0.0000000  0.6508444  3
   7515   7514   7533   7523     1  0.0000000  1.2552000  3
   7515   7514   7513   7517     1  0.0000000  0.6508444  3
   7516   7514   7515   7519     1  0.0000000  1.0460000  1
   7516   7514   7515   7519     1  0.0000000  0.0000000  3
   7516   7514   7515   7528     1  0.0000000  1.0460000  1
   7516   7514   7515   7528     1  0.0000000  0.0000000  3
   7516   7514   7515   7518     1  0.0000000  0.6508444  3
   7516   7514   7533   7523     1  0.0000000  1.2552000  3
   7516   7514   7513   7520     1  0.0000000  1.0460000  1
   7516   7514   7513   7520     1  0.0000000  0.0000000  3
   7516   7514   7513   7517     1  0.0000000  0.6508444  3
   7517   7513   7514   7533     1  0.0000000  0.6508444  3
   7517   7513   7520   7522     1  0.0000000  0.6973333  3
   7517   7513   7511   7531     1  0.0000000  1.0460000  1
   7517   7513   7511   7531     1  0.0000000  0.0000000  3
   7517   7513   7511   7530     1  0.0000000  0.6508444  3
   7518   7515   7519   7529     1  0.0000000  0.6973333  3
   7518   7515   7514   7533     1  0.0000000  0.6508444  3
   7520   7513   7511   7530     1  0.0000000  1.0460000  1
   7520   7513   7511   7530     1  0.0000000  0.0000000  3
   7521   7510   7511   7530     1  0.0000000  0.6508444  3
   7524   7521   7526   7527     1  0.0000000  0.6973333  3
   7524   7521   7510   7528     1  0.0000000  1.0460000  1
   7524   7521   7510   7528     1  0.0000000  0.0000000  3
   7525   7521   7526   7527     1  0.0000000  0.6973333  3
   7525   7521   7510   7528     1  0.0000000  1.0460000  1
   7525   7521   7510   7528     1  0.0000000  0.0000000  3
   7528   7515   7519   7529     1  0.0000000  0.6973333  3
   7528   7510   7511   7530     1  0.0000000  1.0460000  1
   7528   7510   7511   7530     1  0.0000000  0.0000000  3
   7530   7511   7531   7532     1  0.0000000  0.6973333  3
   7534   7535   7537   7541     1  0.0000000  0.6508444  3
   7534   7535   7555   7556     1  0.0000000  1.0460000  1
   7534   7535   7555   7556     1  0.0000000  0.6694400  3
   7534   7545   7550   7551     1  0.0000000  1.0460000  1
   7534   7545   7550   7551     1  0.0000000  0.6694400  3
   7534   7552   7539   7542     1  0.0000000  1.6038667  3
   7535   7537   7538   7540     1  0.0000000  0.6508444  3
   7535   7537   7544   7546     1  0.0000000  1.0460000  1
   7535   7537   7544   7546     1  0.0000000  0.6694400  3
   7535   7534   7545   7548     1  0.0000000  0.6508444  3
   7535   7534   7545   7549     1  0.0000000  0.6508444  3
   7536   7534   7535   7537     1  0.0000000  0.6508444  3
   7536   7534   7535   7555     1  0.0000000  1.0460000  1
   7536   7534   7535   7555     1  0.0000000  0.0000000  3
   7536   7534   7535   7554     1  0.0000000  0.6508444  3
   7536   7534   7545   7550     1  0.0000000  1.0460000  1
   7536   7534   7545   7550     1  0.0000000  0.0000000  3
   7536   7534   7545   7548     1  0.0000000  0.6508444  3
   7536   7534   7545   7549     1  0.0000000  0.6508444  3
   7536   7534   7552   7539     1  0.0000000  1.6038667  3
   7537   7538   7539   7542     1  0.0000000  0.6508444  3
   7537   7538   7557   7547     1  0.0000000  1.2552000  3
   7537   7535   7555   7556     1  0.0000000  1.0460000  1
   7537   7535   7555   7556     1  0.0000000  0.6694400  3
   7538   7539   7543   7553     1  0.0000000  1.0460000  1
   7538   7539   7543   7553     1  0.0000000  0.6694400  3
   7538   7537   7544   7546     1  0.0000000  1.0460000  1
   7538   7537   7544   7546     1  0.0000000  0.6694400  3
   7538   7537   7535   7554     1  0.0000000  0.6508444  3
   7539   7538   7557   7547     1  0.0000000  1.2552000  3
   7539   7538   7537   7541     1  0.0000000  0.6508444  3
   7540   7538   7539   7543     1  0.0000000  1.0460000  1
   7540   7538   7539   7543     1  0.0000000  0.0000000  3
   7540   7538   7539   7552     1  0.0000000  1.0460000  1
   7540   7538   7539   7552     1  0.0000000  0.0000000  3
   7540   7538   7539   7542     1  0.0000000  0.6508444  3
   7540   7538   7557   7547     1  0.0000000  1.2552000  3
   7540   7538   7537   7544     1  0.0000000  1.0460000  1
   7540   7538   7537   7544     1  0.0000000  0.0000000  3
   7540   7538   7537   7541     1  0.0000000  0.6508444  3
   7541   7537   7538   7557     1  0.0000000  0.6508444  3
   7541   7537   7544   7546     1  0.0000000  0.6973333  3
   7541   7537   7535   7555     1  0.0000000  1.0460000  1
   7541   7537   7535   7555     1  0.0000000  0.0000000  3
   7541   7537   7535   7554     1  0.0000000  0.6508444  3
   7542   7539   7543   7553     1  0.0000000  0.6973333  3
   7542   7539   7538   7557     1  0.0000000  0.6508444  3
   7544   7537   7535   7554     1  0.0000000  1.0460000  1
   7544   7537   7535   7554     1  0.0000000  0.0000000  3
   7545   7534   7535   7554     1  0.0000000  0.6508444  3
   7548   7545   7550   7551     1  0.0000000  0.6973333  3
   7548   7545   7534   7552     1  0.0000000  1.0460000  1
   7548   7545   7534   7552     1  0.0000000  0.0000000  3
   7549   7545   7550   7551     1  0.0000000  0.6973333  3
   7549   7545   7534   7552     1  0.0000000  1.0460000  1
   7549   7545   7534   7552     1  0.0000000  0.0000000  3
   7552   7539   7543   7553     1  0.0000000  0.6973333  3
   7552   7534   7535   7554     1  0.0000000  1.0460000  1
   7552   7534   7535   7554     1  0.0000000  0.0000000  3
   7554   7535   7555   7556     1  0.0000000  0.6973333  3
   7559   7561   7563   7565     1  0.0000000  0.6508444  3
   7559   7561   7563   7566     1  0.0000000  0.6508444  3
   7560   7559   7561   7563     1  0.0000000  0.0000000  2
   7560   7559   7561   7562     1  0.0000000  0.0000000  2
   7560   7559   7561   7564     1  0.0000000  0.0000000  2
   7561   7563   7567   7632     1  0.0000000  0.6508444  3
   7562   7561   7563   7567     1  0.0000000  0.6508444  3
   7562   7561   7563   7565     1  0.0000000  0.6508444  3
   7562   7561   7563   7566     1  0.0000000  0.6508444  3
   7563   7567   7568   7577     1  0.0000000  0.6508444  3
   7563   7567   7568   7578     1  0.0000000  0.6508444  3
   7563   7567   7569   7570     1  0.0000000  0.6508444  3
   7563   7567   7569   7572     1  0.0000000  0.6508444  3
   7564   7561   7563   7567     1  0.0000000  0.6508444  3
   7564   7561   7563   7565     1  0.0000000  0.6508444  3
   7564   7561   7563   7566     1  0.0000000  0.6508444  3
   7565   7563   7567   7568     1  0.0000000  0.6508444  3
   7565   7563   7567   7569     1  0.0000000  0.6508444  3
   7565   7563   7567   7632     1  0.0000000  0.6508444  3
   7566   7563   7567   7568     1  0.0000000  0.6508444  3
   7566   7563   7567   7569     1  0.0000000  0.6508444  3
   7566   7563   7567   7632     1  0.0000000  0.6508444  3
   7567   7568   7579   7580     1  0.0000000  0.6508444  3
   7567   7568   7579   7581     1  0.0000000  0.6508444  3
   7567   7569   7571   7573     1  0.0000000  0.6508444  3
   7567   7569   7571   7574     1  0.0000000  0.6508444  3
   7568   7567   7569   7570     1  0.0000000  0.6508444  3
   7568   7567   7569   7572     1  0.0000000  0.6508444  3
   7569   7567   7568   7577     1  0.0000000  0.6508444  3
   7569   7567   7568   7578     1  0.0000000  0.6508444  3
   7570   7569   7567   7632     1  0.0000000  0.6508444  3
   7570   7569   7571   7575     1  0.0000000  0.6508444  3
   7570   7569   7571   7573     1  0.0000000  0.6508444  3
   7570   7569   7571   7574     1  0.0000000  0.6508444  3
   7571   7569   7567   7632     1  0.0000000  0.6508444  3
   7571   7575   7607   7597     1  180.0000771  6.0668000  2
   7571   7575   7607   7597     1  180.0000771  1.4644000  4
   7572   7569   7567   7632     1  0.0000000  0.6508444  3
   7572   7569   7571   7575     1  0.0000000  0.6508444  3
   7572   7569   7571   7573     1  0.0000000  0.6508444  3
   7572   7569   7571   7574     1  0.0000000  0.6508444  3
   7573   7571   7575   7576     1  0.0000000  3.3472000  1
   7573   7571   7575   7576     1  0.0000000  0.0000000  2
   7573   7571   7575   7576     1  180.0000771  0.3347200  3
   7573   7571   7575   7607     1  180.0000771  0.0000000  2
   7574   7571   7575   7576     1  0.0000000  3.3472000  1
   7574   7571   7575   7576     1  0.0000000  0.0000000  2
   7574   7571   7575   7576     1  180.0000771  0.3347200  3
   7574   7571   7575   7607     1  180.0000771  0.0000000  2
   7575   7607   7588   7590     1  0.0000000  1.2552000  3
   7576   7575   7607   7597     1  180.0000771  6.0668000  2
   7576   7575   7607   7597     1  180.0000771  1.4644000  4
   7577   7568   7567   7632     1  0.0000000  0.6508444  3
   7577   7568   7579   7582     1  0.0000000  0.6508444  3
   7577   7568   7579   7580     1  0.0000000  0.6508444  3
   7577   7568   7579   7581     1  0.0000000  0.6508444  3
   7578   7568   7567   7632     1  0.0000000  0.6508444  3
   7578   7568   7579   7582     1  0.0000000  0.6508444  3
   7578   7568   7579   7580     1  0.0000000  0.6508444  3
   7578   7568   7579   7581     1  0.0000000  0.6508444  3
   7579   7568   7567   7632     1  0.0000000  0.6508444  3
   7579   7582   7631   7621     1  180.0000771  6.0668000  2
   7579   7582   7631   7621     1  180.0000771  1.4644000  4
   7580   7579   7582   7583     1  0.0000000  3.3472000  1
   7580   7579   7582   7583     1  0.0000000  0.0000000  2
   7580   7579   7582   7583     1  180.0000771  0.3347200  3
   7580   7579   7582   7631     1  180.0000771  0.0000000  2
   7581   7579   7582   7583     1  0.0000000  3.3472000  1
   7581   7579   7582   7583     1  0.0000000  0.0000000  2
   7581   7579   7582   7583     1  180.0000771  0.3347200  3
   7581   7579   7582   7631     1  180.0000771  0.0000000  2
   7582   7631   7612   7614     1  0.0000000  1.2552000  3
   7583   7582   7631   7621     1  180.0000771  6.0668000  2
   7583   7582   7631   7621     1  180.0000771  1.4644000  4
   7584   7585   7587   7591     1  0.0000000  0.6508444  3
   7584   7585   7605   7606     1  0.0000000  1.0460000  1
   7584   7585   7605   7606     1  0.0000000  0.6694400  3
   7584   7595   7600   7601     1  0.0000000  1.0460000  1
   7584   7595   7600   7601     1  0.0000000  0.6694400  3
   7584   7602   7589   7592     1  0.0000000  1.6038667  3
   7585   7584   7595   7598     1  0.0000000  0.6508444  3
   7585   7584   7595   7599     1  0.0000000  0.6508444  3
   7585   7587   7588   7590     1  0.0000000  0.6508444  3
   7585   7587   7594   7596     1  0.0000000  1.0460000  1
   7585   7587   7594   7596     1  0.0000000  0.6694400  3
   7586   7584   7585   7587     1  0.0000000  0.6508444  3
   7586   7584   7585   7605     1  0.0000000  1.0460000  1
   7586   7584   7585   7605     1  0.0000000  0.0000000  3
   7586   7584   7585   7604     1  0.0000000  0.6508444  3
   7586   7584   7595   7600     1  0.0000000  1.0460000  1
   7586   7584   7595   7600     1  0.0000000  0.0000000  3
   7586   7584   7595   7598     1  0.0000000  0.6508444  3
   7586   7584   7595   7599     1  0.0000000  0.6508444  3
   7586   7584   7602   7589     1  0.0000000  1.6038667  3
   7587   7585   7605   7606     1  0.0000000  1.0460000  1
   7587   7585   7605   7606     1  0.0000000  0.6694400  3
   7587   7588   7589   7592     1  0.0000000  0.6508444  3
   7587   7588   7607   7597     1  0.0000000  1.2552000  3
   7588   7587   7585   7604     1  0.0000000  0.6508444  3
   7588   7587   7594   7596     1  0.0000000  1.0460000  1
   7588   7587   7594   7596     1  0.0000000  0.6694400  3
   7588   7589   7593   7603     1  0.0000000  1.0460000  1
   7588   7589   7593   7603     1  0.0000000  0.6694400  3
   7589   7588   7587   7591     1  0.0000000  0.6508444  3
   7589   7588   7607   7597     1  0.0000000  1.2552000  3
   7590   7588   7587   7594     1  0.0000000  1.0460000  1
   7590   7588   7587   7594     1  0.0000000  0.0000000  3
   7590   7588   7587   7591     1  0.0000000  0.6508444  3
   7590   7588   7589   7593     1  0.0000000  1.0460000  1
   7590   7588   7589   7593     1  0.0000000  0.0000000  3
   7590   7588   7589   7602     1  0.0000000  1.0460000  1
   7590   7588   7589   7602     1  0.0000000  0.0000000  3
   7590   7588   7589   7592     1  0.0000000  0.6508444  3
   7590   7588   7607   7597     1  0.0000000  1.2552000  3
   7591   7587   7585   7605     1  0.0000000  1.0460000  1
   7591   7587   7585   7605     1  0.0000000  0.0000000  3
   7591   7587   7585   7604     1  0.0000000  0.6508444  3
   7591   7587   7588   7607     1  0.0000000  0.6508444  3
   7591   7587   7594   7596     1  0.0000000  0.6973333  3
   7592   7589   7588   7607     1  0.0000000  0.6508444  3
   7592   7589   7593   7603     1  0.0000000  0.6973333  3
   7594   7587   7585   7604     1  0.0000000  1.0460000  1
   7594   7587   7585   7604     1  0.0000000  0.0000000  3
   7595   7584   7585   7604     1  0.0000000  0.6508444  3
   7598   7595   7584   7602     1  0.0000000  1.0460000  1
   7598   7595   7584   7602     1  0.0000000  0.0000000  3
   7598   7595   7600   7601     1  0.0000000  0.6973333  3
   7599   7595   7584   7602     1  0.0000000  1.0460000  1
   7599   7595   7584   7602     1  0.0000000  0.0000000  3
   7599   7595   7600   7601     1  0.0000000  0.6973333  3
   7602   7584   7585   7604     1  0.0000000  1.0460000  1
   7602   7584   7585   7604     1  0.0000000  0.0000000  3
   7602   7589   7593   7603     1  0.0000000  0.6973333  3
   7604   7585   7605   7606     1  0.0000000  0.6973333  3
   7608   7609   7611   7615     1  0.0000000  0.6508444  3
   7608   7609   7629   7630     1  0.0000000  1.0460000  1
   7608   7609   7629   7630     1  0.0000000  0.6694400  3
   7608   7619   7624   7625     1  0.0000000  1.0460000  1
   7608   7619   7624   7625     1  0.0000000  0.6694400  3
   7608   7626   7613   7616     1  0.0000000  1.6038667  3
   7609   7608   7619   7622     1  0.0000000  0.6508444  3
   7609   7608   7619   7623     1  0.0000000  0.6508444  3
   7609   7611   7612   7614     1  0.0000000  0.6508444  3
   7609   7611   7618   7620     1  0.0000000  1.0460000  1
   7609   7611   7618   7620     1  0.0000000  0.6694400  3
   7610   7608   7609   7611     1  0.0000000  0.6508444  3
   7610   7608   7609   7629     1  0.0000000  1.0460000  1
   7610   7608   7609   7629     1  0.0000000  0.0000000  3
   7610   7608   7609   7628     1  0.0000000  0.6508444  3
   7610   7608   7619   7624     1  0.0000000  1.0460000  1
   7610   7608   7619   7624     1  0.0000000  0.0000000  3
   7610   7608   7619   7622     1  0.0000000  0.6508444  3
   7610   7608   7619   7623     1  0.0000000  0.6508444  3
   7610   7608   7626   7613     1  0.0000000  1.6038667  3
   7611   7609   7629   7630     1  0.0000000  1.0460000  1
   7611   7609   7629   7630     1  0.0000000  0.6694400  3
   7611   7612   7613   7616     1  0.0000000  0.6508444  3
   7611   7612   7631   7621     1  0.0000000  1.2552000  3
   7612   7611   7609   7628     1  0.0000000  0.6508444  3
   7612   7611   7618   7620     1  0.0000000  1.0460000  1
   7612   7611   7618   7620     1  0.0000000  0.6694400  3
   7612   7613   7617   7627     1  0.0000000  1.0460000  1
   7612   7613   7617   7627     1  0.0000000  0.6694400  3
   7613   7612   7611   7615     1  0.0000000  0.6508444  3
   7613   7612   7631   7621     1  0.0000000  1.2552000  3
   7614   7612   7611   7618     1  0.0000000  1.0460000  1
   7614   7612   7611   7618     1  0.0000000  0.0000000  3
   7614   7612   7611   7615     1  0.0000000  0.6508444  3
   7614   7612   7613   7617     1  0.0000000  1.0460000  1
   7614   7612   7613   7617     1  0.0000000  0.0000000  3
   7614   7612   7613   7626     1  0.0000000  1.0460000  1
   7614   7612   7613   7626     1  0.0000000  0.0000000  3
   7614   7612   7613   7616     1  0.0000000  0.6508444  3
   7614   7612   7631   7621     1  0.0000000  1.2552000  3
   7615   7611   7609   7629     1  0.0000000  1.0460000  1
   7615   7611   7609   7629     1  0.0000000  0.0000000  3
   7615   7611   7609   7628     1  0.0000000  0.6508444  3
   7615   7611   7612   7631     1  0.0000000  0.6508444  3
   7615   7611   7618   7620     1  0.0000000  0.6973333  3
   7616   7613   7612   7631     1  0.0000000  0.6508444  3
   7616   7613   7617   7627     1  0.0000000  0.6973333  3
   7618   7611   7609   7628     1  0.0000000  1.0460000  1
   7618   7611   7609   7628     1  0.0000000  0.0000000  3
   7619   7608   7609   7628     1  0.0000000  0.6508444  3
   7622   7619   7608   7626     1  0.0000000  1.0460000  1
   7622   7619   7608   7626     1  0.0000000  0.0000000  3
   7622   7619   7624   7625     1  0.0000000  0.6973333  3
   7623   7619   7608   7626     1  0.0000000  1.0460000  1
   7623   7619   7608   7626     1  0.0000000  0.0000000  3
   7623   7619   7624   7625     1  0.0000000  0.6973333  3
   7626   7608   7609   7628     1  0.0000000  1.0460000  1
   7626   7608   7609   7628     1  0.0000000  0.0000000  3
   7626   7613   7617   7627     1  0.0000000  0.6973333  3
   7628   7609   7629   7630     1  0.0000000  0.6973333  3
   7633   7635   7637   7639     1  0.0000000  0.6508444  3
   7633   7635   7637   7640     1  0.0000000  0.6508444  3
   7634   7633   7635   7637     1  0.0000000  0.0000000  2
   7634   7633   7635   7636     1  0.0000000  0.0000000  2
   7634   7633   7635   7638     1  0.0000000  0.0000000  2
   7635   7637   7641   7706     1  0.0000000  0.6508444  3
   7636   7635   7637   7641     1  0.0000000  0.6508444  3
   7636   7635   7637   7639     1  0.0000000  0.6508444  3
   7636   7635   7637   7640     1  0.0000000  0.6508444  3
   7637   7641   7642   7651     1  0.0000000  0.6508444  3
   7637   7641   7642   7652     1  0.0000000  0.6508444  3
   7637   7641   7643   7644     1  0.0000000  0.6508444  3
   7637   7641   7643   7646     1  0.0000000  0.6508444  3
   7638   7635   7637   7641     1  0.0000000  0.6508444  3
   7638   7635   7637   7639     1  0.0000000  0.6508444  3
   7638   7635   7637   7640     1  0.0000000  0.6508444  3
   7639   7637   7641   7642     1  0.0000000  0.6508444  3
   7639   7637   7641   7643     1  0.0000000  0.6508444  3
   7639   7637   7641   7706     1  0.0000000  0.6508444  3
   7640   7637   7641   7642     1  0.0000000  0.6508444  3
   7640   7637   7641   7643     1  0.0000000  0.6508444  3
   7640   7637   7641   7706     1  0.0000000  0.6508444  3
   7641   7642   7653   7654     1  0.0000000  0.6508444  3
   7641   7642   7653   7655     1  0.0000000  0.6508444  3
   7641   7643   7645   7647     1  0.0000000  0.6508444  3
   7641   7643   7645   7648     1  0.0000000  0.6508444  3
   7642   7641   7643   7644     1  0.0000000  0.6508444  3
   7642   7641   7643   7646     1  0.0000000  0.6508444  3
   7643   7641   7642   7651     1  0.0000000  0.6508444  3
   7643   7641   7642   7652     1  0.0000000  0.6508444  3
   7644   7643   7645   7649     1  0.0000000  0.6508444  3
   7644   7643   7645   7647     1  0.0000000  0.6508444  3
   7644   7643   7645   7648     1  0.0000000  0.6508444  3
   7644   7643   7641   7706     1  0.0000000  0.6508444  3
   7645   7649   7681   7671     1  180.0000771  6.0668000  2
   7645   7649   7681   7671     1  180.0000771  1.4644000  4
   7645   7643   7641   7706     1  0.0000000  0.6508444  3
   7646   7643   7645   7649     1  0.0000000  0.6508444  3
   7646   7643   7645   7647     1  0.0000000  0.6508444  3
   7646   7643   7645   7648     1  0.0000000  0.6508444  3
   7646   7643   7641   7706     1  0.0000000  0.6508444  3
   7647   7645   7649   7650     1  0.0000000  3.3472000  1
   7647   7645   7649   7650     1  0.0000000  0.0000000  2
   7647   7645   7649   7650     1  180.0000771  0.3347200  3
   7647   7645   7649   7681     1  180.0000771  0.0000000  2
   7648   7645   7649   7650     1  0.0000000  3.3472000  1
   7648   7645   7649   7650     1  0.0000000  0.0000000  2
   7648   7645   7649   7650     1  180.0000771  0.3347200  3
   7648   7645   7649   7681     1  180.0000771  0.0000000  2
   7649   7681   7662   7664     1  0.0000000  1.2552000  3
   7650   7649   7681   7671     1  180.0000771  6.0668000  2
   7650   7649   7681   7671     1  180.0000771  1.4644000  4
   7651   7642   7653   7656     1  0.0000000  0.6508444  3
   7651   7642   7653   7654     1  0.0000000  0.6508444  3
   7651   7642   7653   7655     1  0.0000000  0.6508444  3
   7651   7642   7641   7706     1  0.0000000  0.6508444  3
   7652   7642   7653   7656     1  0.0000000  0.6508444  3
   7652   7642   7653   7654     1  0.0000000  0.6508444  3
   7652   7642   7653   7655     1  0.0000000  0.6508444  3
   7652   7642   7641   7706     1  0.0000000  0.6508444  3
   7653   7656   7705   7695     1  180.0000771  6.0668000  2
   7653   7656   7705   7695     1  180.0000771  1.4644000  4
   7653   7642   7641   7706     1  0.0000000  0.6508444  3
   7654   7653   7656   7657     1  0.0000000  3.3472000  1
   7654   7653   7656   7657     1  0.0000000  0.0000000  2
   7654   7653   7656   7657     1  180.0000771  0.3347200  3
   7654   7653   7656   7705     1  180.0000771  0.0000000  2
   7655   7653   7656   7657     1  0.0000000  3.3472000  1
   7655   7653   7656   7657     1  0.0000000  0.0000000  2
   7655   7653   7656   7657     1  180.0000771  0.3347200  3
   7655   7653   7656   7705     1  180.0000771  0.0000000  2
   7656   7705   7686   7688     1  0.0000000  1.2552000  3
   7657   7656   7705   7695     1  180.0000771  6.0668000  2
   7657   7656   7705   7695     1  180.0000771  1.4644000  4
   7658   7659   7661   7665     1  0.0000000  0.6508444  3
   7658   7659   7679   7680     1  0.0000000  1.0460000  1
   7658   7659   7679   7680     1  0.0000000  0.6694400  3
   7658   7669   7674   7675     1  0.0000000  1.0460000  1
   7658   7669   7674   7675     1  0.0000000  0.6694400  3
   7658   7676   7663   7666     1  0.0000000  1.6038667  3
   7659   7661   7662   7664     1  0.0000000  0.6508444  3
   7659   7661   7668   7670     1  0.0000000  1.0460000  1
   7659   7661   7668   7670     1  0.0000000  0.6694400  3
   7659   7658   7669   7672     1  0.0000000  0.6508444  3
   7659   7658   7669   7673     1  0.0000000  0.6508444  3
   7660   7658   7659   7661     1  0.0000000  0.6508444  3
   7660   7658   7659   7679     1  0.0000000  1.0460000  1
   7660   7658   7659   7679     1  0.0000000  0.0000000  3
   7660   7658   7659   7678     1  0.0000000  0.6508444  3
   7660   7658   7669   7674     1  0.0000000  1.0460000  1
   7660   7658   7669   7674     1  0.0000000  0.0000000  3
   7660   7658   7669   7672     1  0.0000000  0.6508444  3
   7660   7658   7669   7673     1  0.0000000  0.6508444  3
   7660   7658   7676   7663     1  0.0000000  1.6038667  3
   7661   7662   7663   7666     1  0.0000000  0.6508444  3
   7661   7662   7681   7671     1  0.0000000  1.2552000  3
   7661   7659   7679   7680     1  0.0000000  1.0460000  1
   7661   7659   7679   7680     1  0.0000000  0.6694400  3
   7662   7663   7667   7677     1  0.0000000  1.0460000  1
   7662   7663   7667   7677     1  0.0000000  0.6694400  3
   7662   7661   7668   7670     1  0.0000000  1.0460000  1
   7662   7661   7668   7670     1  0.0000000  0.6694400  3
   7662   7661   7659   7678     1  0.0000000  0.6508444  3
   7663   7662   7681   7671     1  0.0000000  1.2552000  3
   7663   7662   7661   7665     1  0.0000000  0.6508444  3
   7664   7662   7663   7667     1  0.0000000  1.0460000  1
   7664   7662   7663   7667     1  0.0000000  0.0000000  3
   7664   7662   7663   7676     1  0.0000000  1.0460000  1
   7664   7662   7663   7676     1  0.0000000  0.0000000  3
   7664   7662   7663   7666     1  0.0000000  0.6508444  3
   7664   7662   7681   7671     1  0.0000000  1.2552000  3
   7664   7662   7661   7668     1  0.0000000  1.0460000  1
   7664   7662   7661   7668     1  0.0000000  0.0000000  3
   7664   7662   7661   7665     1  0.0000000  0.6508444  3
   7665   7661   7662   7681     1  0.0000000  0.6508444  3
   7665   7661   7668   7670     1  0.0000000  0.6973333  3
   7665   7661   7659   7679     1  0.0000000  1.0460000  1
   7665   7661   7659   7679     1  0.0000000  0.0000000  3
   7665   7661   7659   7678     1  0.0000000  0.6508444  3
   7666   7663   7667   7677     1  0.0000000  0.6973333  3
   7666   7663   7662   7681     1  0.0000000  0.6508444  3
   7668   7661   7659   7678     1  0.0000000  1.0460000  1
   7668   7661   7659   7678     1  0.0000000  0.0000000  3
   7669   7658   7659   7678     1  0.0000000  0.6508444  3
   7672   7669   7674   7675     1  0.0000000  0.6973333  3
   7672   7669   7658   7676     1  0.0000000  1.0460000  1
   7672   7669   7658   7676     1  0.0000000  0.0000000  3
   7673   7669   7674   7675     1  0.0000000  0.6973333  3
   7673   7669   7658   7676     1  0.0000000  1.0460000  1
   7673   7669   7658   7676     1  0.0000000  0.0000000  3
   7676   7663   7667   7677     1  0.0000000  0.6973333  3
   7676   7658   7659   7678     1  0.0000000  1.0460000  1
   7676   7658   7659   7678     1  0.0000000  0.0000000  3
   7678   7659   7679   7680     1  0.0000000  0.6973333  3
   7682   7683   7685   7689     1  0.0000000  0.6508444  3
   7682   7683   7703   7704     1  0.0000000  1.0460000  1
   7682   7683   7703   7704     1  0.0000000  0.6694400  3
   7682   7693   7698   7699     1  0.0000000  1.0460000  1
   7682   7693   7698   7699     1  0.0000000  0.6694400  3
   7682   7700   7687   7690     1  0.0000000  1.6038667  3
   7683   7685   7686   7688     1  0.0000000  0.6508444  3
   7683   7685   7692   7694     1  0.0000000  1.0460000  1
   7683   7685   7692   7694     1  0.0000000  0.6694400  3
   7683   7682   7693   7696     1  0.0000000  0.6508444  3
   7683   7682   7693   7697     1  0.0000000  0.6508444  3
   7684   7682   7683   7685     1  0.0000000  0.6508444  3
   7684   7682   7683   7703     1  0.0000000  1.0460000  1
   7684   7682   7683   7703     1  0.0000000  0.0000000  3
   7684   7682   7683   7702     1  0.0000000  0.6508444  3
   7684   7682   7693   7698     1  0.0000000  1.0460000  1
   7684   7682   7693   7698     1  0.0000000  0.0000000  3
   7684   7682   7693   7696     1  0.0000000  0.6508444  3
   7684   7682   7693   7697     1  0.0000000  0.6508444  3
   7684   7682   7700   7687     1  0.0000000  1.6038667  3
   7685   7686   7687   7690     1  0.0000000  0.6508444  3
   7685   7686   7705   7695     1  0.0000000  1.2552000  3
   7685   7683   7703   7704     1  0.0000000  1.0460000  1
   7685   7683   7703   7704     1  0.0000000  0.6694400  3
   7686   7687   7691   7701     1  0.0000000  1.0460000  1
   7686   7687   7691   7701     1  0.0000000  0.6694400  3
   7686   7685   7692   7694     1  0.0000000  1.0460000  1
   7686   7685   7692   7694     1  0.0000000  0.6694400  3
   7686   7685   7683   7702     1  0.0000000  0.6508444  3
   7687   7686   7705   7695     1  0.0000000  1.2552000  3
   7687   7686   7685   7689     1  0.0000000  0.6508444  3
   7688   7686   7687   7691     1  0.0000000  1.0460000  1
   7688   7686   7687   7691     1  0.0000000  0.0000000  3
   7688   7686   7687   7700     1  0.0000000  1.0460000  1
   7688   7686   7687   7700     1  0.0000000  0.0000000  3
   7688   7686   7687   7690     1  0.0000000  0.6508444  3
   7688   7686   7705   7695     1  0.0000000  1.2552000  3
   7688   7686   7685   7692     1  0.0000000  1.0460000  1
   7688   7686   7685   7692     1  0.0000000  0.0000000  3
   7688   7686   7685   7689     1  0.0000000  0.6508444  3
   7689   7685   7686   7705     1  0.0000000  0.6508444  3
   7689   7685   7692   7694     1  0.0000000  0.6973333  3
   7689   7685   7683   7703     1  0.0000000  1.0460000  1
   7689   7685   7683   7703     1  0.0000000  0.0000000  3
   7689   7685   7683   7702     1  0.0000000  0.6508444  3
   7690   7687   7691   7701     1  0.0000000  0.6973333  3
   7690   7687   7686   7705     1  0.0000000  0.6508444  3
   7692   7685   7683   7702     1  0.0000000  1.0460000  1
   7692   7685   7683   7702     1  0.0000000  0.0000000  3
   7693   7682   7683   7702     1  0.0000000  0.6508444  3
   7696   7693   7698   7699     1  0.0000000  0.6973333  3
   7696   7693   7682   7700     1  0.0000000  1.0460000  1
   7696   7693   7682   7700     1  0.0000000  0.0000000  3
   7697   7693   7698   7699     1  0.0000000  0.6973333  3
   7697   7693   7682   7700     1  0.0000000  1.0460000  1
   7697   7693   7682   7700     1  0.0000000  0.0000000  3
   7700   7687   7691   7701     1  0.0000000  0.6973333  3
   7700   7682   7683   7702     1  0.0000000  1.0460000  1
   7700   7682   7683   7702     1  0.0000000  0.0000000  3
   7702   7683   7703   7704     1  0.0000000  0.6973333  3
   7707   7709   7711   7713     1  0.0000000  0.6508444  3
   7707   7709   7711   7714     1  0.0000000  0.6508444  3
   7708   7707   7709   7711     1  0.0000000  0.0000000  2
   7708   7707   7709   7710     1  0.0000000  0.0000000  2
   7708   7707   7709   7712     1  0.0000000  0.0000000  2
   7709   7711   7715   7780     1  0.0000000  0.6508444  3
   7710   7709   7711   7715     1  0.0000000  0.6508444  3
   7710   7709   7711   7713     1  0.0000000  0.6508444  3
   7710   7709   7711   7714     1  0.0000000  0.6508444  3
   7711   7715   7716   7725     1  0.0000000  0.6508444  3
   7711   7715   7716   7726     1  0.0000000  0.6508444  3
   7711   7715   7717   7718     1  0.0000000  0.6508444  3
   7711   7715   7717   7720     1  0.0000000  0.6508444  3
   7712   7709   7711   7715     1  0.0000000  0.6508444  3
   7712   7709   7711   7713     1  0.0000000  0.6508444  3
   7712   7709   7711   7714     1  0.0000000  0.6508444  3
   7713   7711   7715   7716     1  0.0000000  0.6508444  3
   7713   7711   7715   7717     1  0.0000000  0.6508444  3
   7713   7711   7715   7780     1  0.0000000  0.6508444  3
   7714   7711   7715   7716     1  0.0000000  0.6508444  3
   7714   7711   7715   7717     1  0.0000000  0.6508444  3
   7714   7711   7715   7780     1  0.0000000  0.6508444  3
   7715   7716   7727   7728     1  0.0000000  0.6508444  3
   7715   7716   7727   7729     1  0.0000000  0.6508444  3
   7715   7717   7719   7721     1  0.0000000  0.6508444  3
   7715   7717   7719   7722     1  0.0000000  0.6508444  3
   7716   7715   7717   7718     1  0.0000000  0.6508444  3
   7716   7715   7717   7720     1  0.0000000  0.6508444  3
   7717   7715   7716   7725     1  0.0000000  0.6508444  3
   7717   7715   7716   7726     1  0.0000000  0.6508444  3
   7718   7717   7715   7780     1  0.0000000  0.6508444  3
   7718   7717   7719   7723     1  0.0000000  0.6508444  3
   7718   7717   7719   7721     1  0.0000000  0.6508444  3
   7718   7717   7719   7722     1  0.0000000  0.6508444  3
   7719   7717   7715   7780     1  0.0000000  0.6508444  3
   7719   7723   7755   7745     1  180.0000771  6.0668000  2
   7719   7723   7755   7745     1  180.0000771  1.4644000  4
   7720   7717   7715   7780     1  0.0000000  0.6508444  3
   7720   7717   7719   7723     1  0.0000000  0.6508444  3
   7720   7717   7719   7721     1  0.0000000  0.6508444  3
   7720   7717   7719   7722     1  0.0000000  0.6508444  3
   7721   7719   7723   7724     1  0.0000000  3.3472000  1
   7721   7719   7723   7724     1  0.0000000  0.0000000  2
   7721   7719   7723   7724     1  180.0000771  0.3347200  3
   7721   7719   7723   7755     1  180.0000771  0.0000000  2
   7722   7719   7723   7724     1  0.0000000  3.3472000  1
   7722   7719   7723   7724     1  0.0000000  0.0000000  2
   7722   7719   7723   7724     1  180.0000771  0.3347200  3
   7722   7719   7723   7755     1  180.0000771  0.0000000  2
   7723   7755   7736   7738     1  0.0000000  1.2552000  3
   7724   7723   7755   7745     1  180.0000771  6.0668000  2
   7724   7723   7755   7745     1  180.0000771  1.4644000  4
   7725   7716   7715   7780     1  0.0000000  0.6508444  3
   7725   7716   7727   7730     1  0.0000000  0.6508444  3
   7725   7716   7727   7728     1  0.0000000  0.6508444  3
   7725   7716   7727   7729     1  0.0000000  0.6508444  3
   7726   7716   7715   7780     1  0.0000000  0.6508444  3
   7726   7716   7727   7730     1  0.0000000  0.6508444  3
   7726   7716   7727   7728     1  0.0000000  0.6508444  3
   7726   7716   7727   7729     1  0.0000000  0.6508444  3
   7727   7716   7715   7780     1  0.0000000  0.6508444  3
   7727   7730   7779   7769     1  180.0000771  6.0668000  2
   7727   7730   7779   7769     1  180.0000771  1.4644000  4
   7728   7727   7730   7731     1  0.0000000  3.3472000  1
   7728   7727   7730   7731     1  0.0000000  0.0000000  2
   7728   7727   7730   7731     1  180.0000771  0.3347200  3
   7728   7727   7730   7779     1  180.0000771  0.0000000  2
   7729   7727   7730   7731     1  0.0000000  3.3472000  1
   7729   7727   7730   7731     1  0.0000000  0.0000000  2
   7729   7727   7730   7731     1  180.0000771  0.3347200  3
   7729   7727   7730   7779     1  180.0000771  0.0000000  2
   7730   7779   7760   7762     1  0.0000000  1.2552000  3
   7731   7730   7779   7769     1  180.0000771  6.0668000  2
   7731   7730   7779   7769     1  180.0000771  1.4644000  4
   7732   7733   7735   7739     1  0.0000000  0.6508444  3
   7732   7733   7753   7754     1  0.0000000  1.0460000  1
   7732   7733   7753   7754     1  0.0000000  0.6694400  3
   7732   7743   7748   7749     1  0.0000000  1.0460000  1
   7732   7743   7748   7749     1  0.0000000  0.6694400  3
   7732   7750   7737   7740     1  0.0000000  1.6038667  3
   7733   7732   7743   7746     1  0.0000000  0.6508444  3
   7733   7732   7743   7747     1  0.0000000  0.6508444  3
   7733   7735   7736   7738     1  0.0000000  0.6508444  3
   7733   7735   7742   7744     1  0.0000000  1.0460000  1
   7733   7735   7742   7744     1  0.0000000  0.6694400  3
   7734   7732   7733   7735     1  0.0000000  0.6508444  3
   7734   7732   7733   7753     1  0.0000000  1.0460000  1
   7734   7732   7733   7753     1  0.0000000  0.0000000  3
   7734   7732   7733   7752     1  0.0000000  0.6508444  3
   7734   7732   7743   7748     1  0.0000000  1.0460000  1
   7734   7732   7743   7748     1  0.0000000  0.0000000  3
   7734   7732   7743   7746     1  0.0000000  0.6508444  3
   7734   7732   7743   7747     1  0.0000000  0.6508444  3
   7734   7732   7750   7737     1  0.0000000  1.6038667  3
   7735   7733   7753   7754     1  0.0000000  1.0460000  1
   7735   7733   7753   7754     1  0.0000000  0.6694400  3
   7735   7736   7737   7740     1  0.0000000  0.6508444  3
   7735   7736   7755   7745     1  0.0000000  1.2552000  3
   7736   7735   7733   7752     1  0.0000000  0.6508444  3
   7736   7735   7742   7744     1  0.0000000  1.0460000  1
   7736   7735   7742   7744     1  0.0000000  0.6694400  3
   7736   7737   7741   7751     1  0.0000000  1.0460000  1
   7736   7737   7741   7751     1  0.0000000  0.6694400  3
   7737   7736   7735   7739     1  0.0000000  0.6508444  3
   7737   7736   7755   7745     1  0.0000000  1.2552000  3
   7738   7736   7735   7742     1  0.0000000  1.0460000  1
   7738   7736   7735   7742     1  0.0000000  0.0000000  3
   7738   7736   7735   7739     1  0.0000000  0.6508444  3
   7738   7736   7737   7741     1  0.0000000  1.0460000  1
   7738   7736   7737   7741     1  0.0000000  0.0000000  3
   7738   7736   7737   7750     1  0.0000000  1.0460000  1
   7738   7736   7737   7750     1  0.0000000  0.0000000  3
   7738   7736   7737   7740     1  0.0000000  0.6508444  3
   7738   7736   7755   7745     1  0.0000000  1.2552000  3
   7739   7735   7733   7753     1  0.0000000  1.0460000  1
   7739   7735   7733   7753     1  0.0000000  0.0000000  3
   7739   7735   7733   7752     1  0.0000000  0.6508444  3
   7739   7735   7736   7755     1  0.0000000  0.6508444  3
   7739   7735   7742   7744     1  0.0000000  0.6973333  3
   7740   7737   7736   7755     1  0.0000000  0.6508444  3
   7740   7737   7741   7751     1  0.0000000  0.6973333  3
   7742   7735   7733   7752     1  0.0000000  1.0460000  1
   7742   7735   7733   7752     1  0.0000000  0.0000000  3
   7743   7732   7733   7752     1  0.0000000  0.6508444  3
   7746   7743   7732   7750     1  0.0000000  1.0460000  1
   7746   7743   7732   7750     1  0.0000000  0.0000000  3
   7746   7743   7748   7749     1  0.0000000  0.6973333  3
   7747   7743   7732   7750     1  0.0000000  1.0460000  1
   7747   7743   7732   7750     1  0.0000000  0.0000000  3
   7747   7743   7748   7749     1  0.0000000  0.6973333  3
   7750   7732   7733   7752     1  0.0000000  1.0460000  1
   7750   7732   7733   7752     1  0.0000000  0.0000000  3
   7750   7737   7741   7751     1  0.0000000  0.6973333  3
   7752   7733   7753   7754     1  0.0000000  0.6973333  3
   7756   7757   7759   7763     1  0.0000000  0.6508444  3
   7756   7757   7777   7778     1  0.0000000  1.0460000  1
   7756   7757   7777   7778     1  0.0000000  0.6694400  3
   7756   7767   7772   7773     1  0.0000000  1.0460000  1
   7756   7767   7772   7773     1  0.0000000  0.6694400  3
   7756   7774   7761   7764     1  0.0000000  1.6038667  3
   7757   7756   7767   7770     1  0.0000000  0.6508444  3
   7757   7756   7767   7771     1  0.0000000  0.6508444  3
   7757   7759   7760   7762     1  0.0000000  0.6508444  3
   7757   7759   7766   7768     1  0.0000000  1.0460000  1
   7757   7759   7766   7768     1  0.0000000  0.6694400  3
   7758   7756   7757   7759     1  0.0000000  0.6508444  3
   7758   7756   7757   7777     1  0.0000000  1.0460000  1
   7758   7756   7757   7777     1  0.0000000  0.0000000  3
   7758   7756   7757   7776     1  0.0000000  0.6508444  3
   7758   7756   7767   7772     1  0.0000000  1.0460000  1
   7758   7756   7767   7772     1  0.0000000  0.0000000  3
   7758   7756   7767   7770     1  0.0000000  0.6508444  3
   7758   7756   7767   7771     1  0.0000000  0.6508444  3
   7758   7756   7774   7761     1  0.0000000  1.6038667  3
   7759   7757   7777   7778     1  0.0000000  1.0460000  1
   7759   7757   7777   7778     1  0.0000000  0.6694400  3
   7759   7760   7761   7764     1  0.0000000  0.6508444  3
   7759   7760   7779   7769     1  0.0000000  1.2552000  3
   7760   7759   7757   7776     1  0.0000000  0.6508444  3
   7760   7759   7766   7768     1  0.0000000  1.0460000  1
   7760   7759   7766   7768     1  0.0000000  0.6694400  3
   7760   7761   7765   7775     1  0.0000000  1.0460000  1
   7760   7761   7765   7775     1  0.0000000  0.6694400  3
   7761   7760   7759   7763     1  0.0000000  0.6508444  3
   7761   7760   7779   7769     1  0.0000000  1.2552000  3
   7762   7760   7759   7766     1  0.0000000  1.0460000  1
   7762   7760   7759   7766     1  0.0000000  0.0000000  3
   7762   7760   7759   7763     1  0.0000000  0.6508444  3
   7762   7760   7761   7765     1  0.0000000  1.0460000  1
   7762   7760   7761   7765     1  0.0000000  0.0000000  3
   7762   7760   7761   7774     1  0.0000000  1.0460000  1
   7762   7760   7761   7774     1  0.0000000  0.0000000  3
   7762   7760   7761   7764     1  0.0000000  0.6508444  3
   7762   7760   7779   7769     1  0.0000000  1.2552000  3
   7763   7759   7757   7777     1  0.0000000  1.0460000  1
   7763   7759   7757   7777     1  0.0000000  0.0000000  3
   7763   7759   7757   7776     1  0.0000000  0.6508444  3
   7763   7759   7760   7779     1  0.0000000  0.6508444  3
   7763   7759   7766   7768     1  0.0000000  0.6973333  3
   7764   7761   7760   7779     1  0.0000000  0.6508444  3
   7764   7761   7765   7775     1  0.0000000  0.6973333  3
   7766   7759   7757   7776     1  0.0000000  1.0460000  1
   7766   7759   7757   7776     1  0.0000000  0.0000000  3
   7767   7756   7757   7776     1  0.0000000  0.6508444  3
   7770   7767   7756   7774     1  0.0000000  1.0460000  1
   7770   7767   7756   7774     1  0.0000000  0.0000000  3
   7770   7767   7772   7773     1  0.0000000  0.6973333  3
   7771   7767   7756   7774     1  0.0000000  1.0460000  1
   7771   7767   7756   7774     1  0.0000000  0.0000000  3
   7771   7767   7772   7773     1  0.0000000  0.6973333  3
   7774   7756   7757   7776     1  0.0000000  1.0460000  1
   7774   7756   7757   7776     1  0.0000000  0.0000000  3
   7774   7761   7765   7775     1  0.0000000  0.6973333  3
   7776   7757   7777   7778     1  0.0000000  0.6973333  3
   7781   7783   7785   7787     1  0.0000000  0.6508444  3
   7781   7783   7785   7788     1  0.0000000  0.6508444  3
   7782   7781   7783   7785     1  0.0000000  0.0000000  2
   7782   7781   7783   7784     1  0.0000000  0.0000000  2
   7782   7781   7783   7786     1  0.0000000  0.0000000  2
   7783   7785   7789   7854     1  0.0000000  0.6508444  3
   7784   7783   7785   7789     1  0.0000000  0.6508444  3
   7784   7783   7785   7787     1  0.0000000  0.6508444  3
   7784   7783   7785   7788     1  0.0000000  0.6508444  3
   7785   7789   7790   7799     1  0.0000000  0.6508444  3
   7785   7789   7790   7800     1  0.0000000  0.6508444  3
   7785   7789   7791   7792     1  0.0000000  0.6508444  3
   7785   7789   7791   7794     1  0.0000000  0.6508444  3
   7786   7783   7785   7789     1  0.0000000  0.6508444  3
   7786   7783   7785   7787     1  0.0000000  0.6508444  3
   7786   7783   7785   7788     1  0.0000000  0.6508444  3
   7787   7785   7789   7790     1  0.0000000  0.6508444  3
   7787   7785   7789   7791     1  0.0000000  0.6508444  3
   7787   7785   7789   7854     1  0.0000000  0.6508444  3
   7788   7785   7789   7790     1  0.0000000  0.6508444  3
   7788   7785   7789   7791     1  0.0000000  0.6508444  3
   7788   7785   7789   7854     1  0.0000000  0.6508444  3
   7789   7790   7801   7802     1  0.0000000  0.6508444  3
   7789   7790   7801   7803     1  0.0000000  0.6508444  3
   7789   7791   7793   7795     1  0.0000000  0.6508444  3
   7789   7791   7793   7796     1  0.0000000  0.6508444  3
   7790   7789   7791   7792     1  0.0000000  0.6508444  3
   7790   7789   7791   7794     1  0.0000000  0.6508444  3
   7791   7789   7790   7799     1  0.0000000  0.6508444  3
   7791   7789   7790   7800     1  0.0000000  0.6508444  3
   7792   7791   7793   7797     1  0.0000000  0.6508444  3
   7792   7791   7793   7795     1  0.0000000  0.6508444  3
   7792   7791   7793   7796     1  0.0000000  0.6508444  3
   7792   7791   7789   7854     1  0.0000000  0.6508444  3
   7793   7797   7829   7819     1  180.0000771  6.0668000  2
   7793   7797   7829   7819     1  180.0000771  1.4644000  4
   7793   7791   7789   7854     1  0.0000000  0.6508444  3
   7794   7791   7793   7797     1  0.0000000  0.6508444  3
   7794   7791   7793   7795     1  0.0000000  0.6508444  3
   7794   7791   7793   7796     1  0.0000000  0.6508444  3
   7794   7791   7789   7854     1  0.0000000  0.6508444  3
   7795   7793   7797   7798     1  0.0000000  3.3472000  1
   7795   7793   7797   7798     1  0.0000000  0.0000000  2
   7795   7793   7797   7798     1  180.0000771  0.3347200  3
   7795   7793   7797   7829     1  180.0000771  0.0000000  2
   7796   7793   7797   7798     1  0.0000000  3.3472000  1
   7796   7793   7797   7798     1  0.0000000  0.0000000  2
   7796   7793   7797   7798     1  180.0000771  0.3347200  3
   7796   7793   7797   7829     1  180.0000771  0.0000000  2
   7797   7829   7810   7812     1  0.0000000  1.2552000  3
   7798   7797   7829   7819     1  180.0000771  6.0668000  2
   7798   7797   7829   7819     1  180.0000771  1.4644000  4
   7799   7790   7801   7804     1  0.0000000  0.6508444  3
   7799   7790   7801   7802     1  0.0000000  0.6508444  3
   7799   7790   7801   7803     1  0.0000000  0.6508444  3
   7799   7790   7789   7854     1  0.0000000  0.6508444  3
   7800   7790   7801   7804     1  0.0000000  0.6508444  3
   7800   7790   7801   7802     1  0.0000000  0.6508444  3
   7800   7790   7801   7803     1  0.0000000  0.6508444  3
   7800   7790   7789   7854     1  0.0000000  0.6508444  3
   7801   7804   7853   7843     1  180.0000771  6.0668000  2
   7801   7804   7853   7843     1  180.0000771  1.4644000  4
   7801   7790   7789   7854     1  0.0000000  0.6508444  3
   7802   7801   7804   7805     1  0.0000000  3.3472000  1
   7802   7801   7804   7805     1  0.0000000  0.0000000  2
   7802   7801   7804   7805     1  180.0000771  0.3347200  3
   7802   7801   7804   7853     1  180.0000771  0.0000000  2
   7803   7801   7804   7805     1  0.0000000  3.3472000  1
   7803   7801   7804   7805     1  0.0000000  0.0000000  2
   7803   7801   7804   7805     1  180.0000771  0.3347200  3
   7803   7801   7804   7853     1  180.0000771  0.0000000  2
   7804   7853   7834   7836     1  0.0000000  1.2552000  3
   7805   7804   7853   7843     1  180.0000771  6.0668000  2
   7805   7804   7853   7843     1  180.0000771  1.4644000  4
   7806   7807   7809   7813     1  0.0000000  0.6508444  3
   7806   7807   7827   7828     1  0.0000000  1.0460000  1
   7806   7807   7827   7828     1  0.0000000  0.6694400  3
   7806   7817   7822   7823     1  0.0000000  1.0460000  1
   7806   7817   7822   7823     1  0.0000000  0.6694400  3
   7806   7824   7811   7814     1  0.0000000  1.6038667  3
   7807   7809   7810   7812     1  0.0000000  0.6508444  3
   7807   7809   7816   7818     1  0.0000000  1.0460000  1
   7807   7809   7816   7818     1  0.0000000  0.6694400  3
   7807   7806   7817   7820     1  0.0000000  0.6508444  3
   7807   7806   7817   7821     1  0.0000000  0.6508444  3
   7808   7806   7807   7809     1  0.0000000  0.6508444  3
   7808   7806   7807   7827     1  0.0000000  1.0460000  1
   7808   7806   7807   7827     1  0.0000000  0.0000000  3
   7808   7806   7807   7826     1  0.0000000  0.6508444  3
   7808   7806   7817   7822     1  0.0000000  1.0460000  1
   7808   7806   7817   7822     1  0.0000000  0.0000000  3
   7808   7806   7817   7820     1  0.0000000  0.6508444  3
   7808   7806   7817   7821     1  0.0000000  0.6508444  3
   7808   7806   7824   7811     1  0.0000000  1.6038667  3
   7809   7810   7811   7814     1  0.0000000  0.6508444  3
   7809   7810   7829   7819     1  0.0000000  1.2552000  3
   7809   7807   7827   7828     1  0.0000000  1.0460000  1
   7809   7807   7827   7828     1  0.0000000  0.6694400  3
   7810   7811   7815   7825     1  0.0000000  1.0460000  1
   7810   7811   7815   7825     1  0.0000000  0.6694400  3
   7810   7809   7816   7818     1  0.0000000  1.0460000  1
   7810   7809   7816   7818     1  0.0000000  0.6694400  3
   7810   7809   7807   7826     1  0.0000000  0.6508444  3
   7811   7810   7829   7819     1  0.0000000  1.2552000  3
   7811   7810   7809   7813     1  0.0000000  0.6508444  3
   7812   7810   7811   7815     1  0.0000000  1.0460000  1
   7812   7810   7811   7815     1  0.0000000  0.0000000  3
   7812   7810   7811   7824     1  0.0000000  1.0460000  1
   7812   7810   7811   7824     1  0.0000000  0.0000000  3
   7812   7810   7811   7814     1  0.0000000  0.6508444  3
   7812   7810   7829   7819     1  0.0000000  1.2552000  3
   7812   7810   7809   7816     1  0.0000000  1.0460000  1
   7812   7810   7809   7816     1  0.0000000  0.0000000  3
   7812   7810   7809   7813     1  0.0000000  0.6508444  3
   7813   7809   7810   7829     1  0.0000000  0.6508444  3
   7813   7809   7816   7818     1  0.0000000  0.6973333  3
   7813   7809   7807   7827     1  0.0000000  1.0460000  1
   7813   7809   7807   7827     1  0.0000000  0.0000000  3
   7813   7809   7807   7826     1  0.0000000  0.6508444  3
   7814   7811   7815   7825     1  0.0000000  0.6973333  3
   7814   7811   7810   7829     1  0.0000000  0.6508444  3
   7816   7809   7807   7826     1  0.0000000  1.0460000  1
   7816   7809   7807   7826     1  0.0000000  0.0000000  3
   7817   7806   7807   7826     1  0.0000000  0.6508444  3
   7820   7817   7822   7823     1  0.0000000  0.6973333  3
   7820   7817   7806   7824     1  0.0000000  1.0460000  1
   7820   7817   7806   7824     1  0.0000000  0.0000000  3
   7821   7817   7822   7823     1  0.0000000  0.6973333  3
   7821   7817   7806   7824     1  0.0000000  1.0460000  1
   7821   7817   7806   7824     1  0.0000000  0.0000000  3
   7824   7811   7815   7825     1  0.0000000  0.6973333  3
   7824   7806   7807   7826     1  0.0000000  1.0460000  1
   7824   7806   7807   7826     1  0.0000000  0.0000000  3
   7826   7807   7827   7828     1  0.0000000  0.6973333  3
   7830   7831   7833   7837     1  0.0000000  0.6508444  3
   7830   7831   7851   7852     1  0.0000000  1.0460000  1
   7830   7831   7851   7852     1  0.0000000  0.6694400  3
   7830   7841   7846   7847     1  0.0000000  1.0460000  1
   7830   7841   7846   7847     1  0.0000000  0.6694400  3
   7830   7848   7835   7838     1  0.0000000  1.6038667  3
   7831   7833   7834   7836     1  0.0000000  0.6508444  3
   7831   7833   7840   7842     1  0.0000000  1.0460000  1
   7831   7833   7840   7842     1  0.0000000  0.6694400  3
   7831   7830   7841   7844     1  0.0000000  0.6508444  3
   7831   7830   7841   7845     1  0.0000000  0.6508444  3
   7832   7830   7831   7833     1  0.0000000  0.6508444  3
   7832   7830   7831   7851     1  0.0000000  1.0460000  1
   7832   7830   7831   7851     1  0.0000000  0.0000000  3
   7832   7830   7831   7850     1  0.0000000  0.6508444  3
   7832   7830   7841   7846     1  0.0000000  1.0460000  1
   7832   7830   7841   7846     1  0.0000000  0.0000000  3
   7832   7830   7841   7844     1  0.0000000  0.6508444  3
   7832   7830   7841   7845     1  0.0000000  0.6508444  3
   7832   7830   7848   7835     1  0.0000000  1.6038667  3
   7833   7834   7835   7838     1  0.0000000  0.6508444  3
   7833   7834   7853   7843     1  0.0000000  1.2552000  3
   7833   7831   7851   7852     1  0.0000000  1.0460000  1
   7833   7831   7851   7852     1  0.0000000  0.6694400  3
   7834   7835   7839   7849     1  0.0000000  1.0460000  1
   7834   7835   7839   7849     1  0.0000000  0.6694400  3
   7834   7833   7840   7842     1  0.0000000  1.0460000  1
   7834   7833   7840   7842     1  0.0000000  0.6694400  3
   7834   7833   7831   7850     1  0.0000000  0.6508444  3
   7835   7834   7853   7843     1  0.0000000  1.2552000  3
   7835   7834   7833   7837     1  0.0000000  0.6508444  3
   7836   7834   7835   7839     1  0.0000000  1.0460000  1
   7836   7834   7835   7839     1  0.0000000  0.0000000  3
   7836   7834   7835   7848     1  0.0000000  1.0460000  1
   7836   7834   7835   7848     1  0.0000000  0.0000000  3
   7836   7834   7835   7838     1  0.0000000  0.6508444  3
   7836   7834   7853   7843     1  0.0000000  1.2552000  3
   7836   7834   7833   7840     1  0.0000000  1.0460000  1
   7836   7834   7833   7840     1  0.0000000  0.0000000  3
   7836   7834   7833   7837     1  0.0000000  0.6508444  3
   7837   7833   7834   7853     1  0.0000000  0.6508444  3
   7837   7833   7840   7842     1  0.0000000  0.6973333  3
   7837   7833   7831   7851     1  0.0000000  1.0460000  1
   7837   7833   7831   7851     1  0.0000000  0.0000000  3
   7837   7833   7831   7850     1  0.0000000  0.6508444  3
   7838   7835   7839   7849     1  0.0000000  0.6973333  3
   7838   7835   7834   7853     1  0.0000000  0.6508444  3
   7840   7833   7831   7850     1  0.0000000  1.0460000  1
   7840   7833   7831   7850     1  0.0000000  0.0000000  3
   7841   7830   7831   7850     1  0.0000000  0.6508444  3
   7844   7841   7846   7847     1  0.0000000  0.6973333  3
   7844   7841   7830   7848     1  0.0000000  1.0460000  1
   7844   7841   7830   7848     1  0.0000000  0.0000000  3
   7845   7841   7846   7847     1  0.0000000  0.6973333  3
   7845   7841   7830   7848     1  0.0000000  1.0460000  1
   7845   7841   7830   7848     1  0.0000000  0.0000000  3
   7848   7835   7839   7849     1  0.0000000  0.6973333  3
   7848   7830   7831   7850     1  0.0000000  1.0460000  1
   7848   7830   7831   7850     1  0.0000000  0.0000000  3
   7850   7831   7851   7852     1  0.0000000  0.6973333  3
   7855   7857   7859   7861     1  0.0000000  0.6508444  3
   7855   7857   7859   7862     1  0.0000000  0.6508444  3
   7856   7855   7857   7859     1  0.0000000  0.0000000  2
   7856   7855   7857   7858     1  0.0000000  0.0000000  2
   7856   7855   7857   7860     1  0.0000000  0.0000000  2
   7857   7859   7863   7928     1  0.0000000  0.6508444  3
   7858   7857   7859   7863     1  0.0000000  0.6508444  3
   7858   7857   7859   7861     1  0.0000000  0.6508444  3
   7858   7857   7859   7862     1  0.0000000  0.6508444  3
   7859   7863   7864   7873     1  0.0000000  0.6508444  3
   7859   7863   7864   7874     1  0.0000000  0.6508444  3
   7859   7863   7865   7866     1  0.0000000  0.6508444  3
   7859   7863   7865   7868     1  0.0000000  0.6508444  3
   7860   7857   7859   7863     1  0.0000000  0.6508444  3
   7860   7857   7859   7861     1  0.0000000  0.6508444  3
   7860   7857   7859   7862     1  0.0000000  0.6508444  3
   7861   7859   7863   7864     1  0.0000000  0.6508444  3
   7861   7859   7863   7865     1  0.0000000  0.6508444  3
   7861   7859   7863   7928     1  0.0000000  0.6508444  3
   7862   7859   7863   7864     1  0.0000000  0.6508444  3
   7862   7859   7863   7865     1  0.0000000  0.6508444  3
   7862   7859   7863   7928     1  0.0000000  0.6508444  3
   7863   7864   7875   7876     1  0.0000000  0.6508444  3
   7863   7864   7875   7877     1  0.0000000  0.6508444  3
   7863   7865   7867   7869     1  0.0000000  0.6508444  3
   7863   7865   7867   7870     1  0.0000000  0.6508444  3
   7864   7863   7865   7866     1  0.0000000  0.6508444  3
   7864   7863   7865   7868     1  0.0000000  0.6508444  3
   7865   7863   7864   7873     1  0.0000000  0.6508444  3
   7865   7863   7864   7874     1  0.0000000  0.6508444  3
   7866   7865   7863   7928     1  0.0000000  0.6508444  3
   7866   7865   7867   7871     1  0.0000000  0.6508444  3
   7866   7865   7867   7869     1  0.0000000  0.6508444  3
   7866   7865   7867   7870     1  0.0000000  0.6508444  3
   7867   7865   7863   7928     1  0.0000000  0.6508444  3
   7867   7871   7903   7893     1  180.0000771  6.0668000  2
   7867   7871   7903   7893     1  180.0000771  1.4644000  4
   7868   7865   7863   7928     1  0.0000000  0.6508444  3
   7868   7865   7867   7871     1  0.0000000  0.6508444  3
   7868   7865   7867   7869     1  0.0000000  0.6508444  3
   7868   7865   7867   7870     1  0.0000000  0.6508444  3
   7869   7867   7871   7872     1  0.0000000  3.3472000  1
   7869   7867   7871   7872     1  0.0000000  0.0000000  2
   7869   7867   7871   7872     1  180.0000771  0.3347200  3
   7869   7867   7871   7903     1  180.0000771  0.0000000  2
   7870   7867   7871   7872     1  0.0000000  3.3472000  1
   7870   7867   7871   7872     1  0.0000000  0.0000000  2
   7870   7867   7871   7872     1  180.0000771  0.3347200  3
   7870   7867   7871   7903     1  180.0000771  0.0000000  2
   7871   7903   7884   7886     1  0.0000000  1.2552000  3
   7872   7871   7903   7893     1  180.0000771  6.0668000  2
   7872   7871   7903   7893     1  180.0000771  1.4644000  4
   7873   7864   7863   7928     1  0.0000000  0.6508444  3
   7873   7864   7875   7878     1  0.0000000  0.6508444  3
   7873   7864   7875   7876     1  0.0000000  0.6508444  3
   7873   7864   7875   7877     1  0.0000000  0.6508444  3
   7874   7864   7863   7928     1  0.0000000  0.6508444  3
   7874   7864   7875   7878     1  0.0000000  0.6508444  3
   7874   7864   7875   7876     1  0.0000000  0.6508444  3
   7874   7864   7875   7877     1  0.0000000  0.6508444  3
   7875   7864   7863   7928     1  0.0000000  0.6508444  3
   7875   7878   7927   7917     1  180.0000771  6.0668000  2
   7875   7878   7927   7917     1  180.0000771  1.4644000  4
   7876   7875   7878   7879     1  0.0000000  3.3472000  1
   7876   7875   7878   7879     1  0.0000000  0.0000000  2
   7876   7875   7878   7879     1  180.0000771  0.3347200  3
   7876   7875   7878   7927     1  180.0000771  0.0000000  2
   7877   7875   7878   7879     1  0.0000000  3.3472000  1
   7877   7875   7878   7879     1  0.0000000  0.0000000  2
   7877   7875   7878   7879     1  180.0000771  0.3347200  3
   7877   7875   7878   7927     1  180.0000771  0.0000000  2
   7878   7927   7908   7910     1  0.0000000  1.2552000  3
   7879   7878   7927   7917     1  180.0000771  6.0668000  2
   7879   7878   7927   7917     1  180.0000771  1.4644000  4
   7880   7881   7883   7887     1  0.0000000  0.6508444  3
   7880   7881   7901   7902     1  0.0000000  1.0460000  1
   7880   7881   7901   7902     1  0.0000000  0.6694400  3
   7880   7891   7896   7897     1  0.0000000  1.0460000  1
   7880   7891   7896   7897     1  0.0000000  0.6694400  3
   7880   7898   7885   7888     1  0.0000000  1.6038667  3
   7881   7880   7891   7894     1  0.0000000  0.6508444  3
   7881   7880   7891   7895     1  0.0000000  0.6508444  3
   7881   7883   7884   7886     1  0.0000000  0.6508444  3
   7881   7883   7890   7892     1  0.0000000  1.0460000  1
   7881   7883   7890   7892     1  0.0000000  0.6694400  3
   7882   7880   7881   7883     1  0.0000000  0.6508444  3
   7882   7880   7881   7901     1  0.0000000  1.0460000  1
   7882   7880   7881   7901     1  0.0000000  0.0000000  3
   7882   7880   7881   7900     1  0.0000000  0.6508444  3
   7882   7880   7891   7896     1  0.0000000  1.0460000  1
   7882   7880   7891   7896     1  0.0000000  0.0000000  3
   7882   7880   7891   7894     1  0.0000000  0.6508444  3
   7882   7880   7891   7895     1  0.0000000  0.6508444  3
   7882   7880   7898   7885     1  0.0000000  1.6038667  3
   7883   7881   7901   7902     1  0.0000000  1.0460000  1
   7883   7881   7901   7902     1  0.0000000  0.6694400  3
   7883   7884   7885   7888     1  0.0000000  0.6508444  3
   7883   7884   7903   7893     1  0.0000000  1.2552000  3
   7884   7883   7881   7900     1  0.0000000  0.6508444  3
   7884   7883   7890   7892     1  0.0000000  1.0460000  1
   7884   7883   7890   7892     1  0.0000000  0.6694400  3
   7884   7885   7889   7899     1  0.0000000  1.0460000  1
   7884   7885   7889   7899     1  0.0000000  0.6694400  3
   7885   7884   7883   7887     1  0.0000000  0.6508444  3
   7885   7884   7903   7893     1  0.0000000  1.2552000  3
   7886   7884   7883   7890     1  0.0000000  1.0460000  1
   7886   7884   7883   7890     1  0.0000000  0.0000000  3
   7886   7884   7883   7887     1  0.0000000  0.6508444  3
   7886   7884   7885   7889     1  0.0000000  1.0460000  1
   7886   7884   7885   7889     1  0.0000000  0.0000000  3
   7886   7884   7885   7898     1  0.0000000  1.0460000  1
   7886   7884   7885   7898     1  0.0000000  0.0000000  3
   7886   7884   7885   7888     1  0.0000000  0.6508444  3
   7886   7884   7903   7893     1  0.0000000  1.2552000  3
   7887   7883   7881   7901     1  0.0000000  1.0460000  1
   7887   7883   7881   7901     1  0.0000000  0.0000000  3
   7887   7883   7881   7900     1  0.0000000  0.6508444  3
   7887   7883   7884   7903     1  0.0000000  0.6508444  3
   7887   7883   7890   7892     1  0.0000000  0.6973333  3
   7888   7885   7884   7903     1  0.0000000  0.6508444  3
   7888   7885   7889   7899     1  0.0000000  0.6973333  3
   7890   7883   7881   7900     1  0.0000000  1.0460000  1
   7890   7883   7881   7900     1  0.0000000  0.0000000  3
   7891   7880   7881   7900     1  0.0000000  0.6508444  3
   7894   7891   7880   7898     1  0.0000000  1.0460000  1
   7894   7891   7880   7898     1  0.0000000  0.0000000  3
   7894   7891   7896   7897     1  0.0000000  0.6973333  3
   7895   7891   7880   7898     1  0.0000000  1.0460000  1
   7895   7891   7880   7898     1  0.0000000  0.0000000  3
   7895   7891   7896   7897     1  0.0000000  0.6973333  3
   7898   7880   7881   7900     1  0.0000000  1.0460000  1
   7898   7880   7881   7900     1  0.0000000  0.0000000  3
   7898   7885   7889   7899     1  0.0000000  0.6973333  3
   7900   7881   7901   7902     1  0.0000000  0.6973333  3
   7904   7905   7907   7911     1  0.0000000  0.6508444  3
   7904   7905   7925   7926     1  0.0000000  1.0460000  1
   7904   7905   7925   7926     1  0.0000000  0.6694400  3
   7904   7915   7920   7921     1  0.0000000  1.0460000  1
   7904   7915   7920   7921     1  0.0000000  0.6694400  3
   7904   7922   7909   7912     1  0.0000000  1.6038667  3
   7905   7904   7915   7918     1  0.0000000  0.6508444  3
   7905   7904   7915   7919     1  0.0000000  0.6508444  3
   7905   7907   7908   7910     1  0.0000000  0.6508444  3
   7905   7907   7914   7916     1  0.0000000  1.0460000  1
   7905   7907   7914   7916     1  0.0000000  0.6694400  3
   7906   7904   7905   7907     1  0.0000000  0.6508444  3
   7906   7904   7905   7925     1  0.0000000  1.0460000  1
   7906   7904   7905   7925     1  0.0000000  0.0000000  3
   7906   7904   7905   7924     1  0.0000000  0.6508444  3
   7906   7904   7915   7920     1  0.0000000  1.0460000  1
   7906   7904   7915   7920     1  0.0000000  0.0000000  3
   7906   7904   7915   7918     1  0.0000000  0.6508444  3
   7906   7904   7915   7919     1  0.0000000  0.6508444  3
   7906   7904   7922   7909     1  0.0000000  1.6038667  3
   7907   7905   7925   7926     1  0.0000000  1.0460000  1
   7907   7905   7925   7926     1  0.0000000  0.6694400  3
   7907   7908   7909   7912     1  0.0000000  0.6508444  3
   7907   7908   7927   7917     1  0.0000000  1.2552000  3
   7908   7907   7905   7924     1  0.0000000  0.6508444  3
   7908   7907   7914   7916     1  0.0000000  1.0460000  1
   7908   7907   7914   7916     1  0.0000000  0.6694400  3
   7908   7909   7913   7923     1  0.0000000  1.0460000  1
   7908   7909   7913   7923     1  0.0000000  0.6694400  3
   7909   7908   7907   7911     1  0.0000000  0.6508444  3
   7909   7908   7927   7917     1  0.0000000  1.2552000  3
   7910   7908   7907   7914     1  0.0000000  1.0460000  1
   7910   7908   7907   7914     1  0.0000000  0.0000000  3
   7910   7908   7907   7911     1  0.0000000  0.6508444  3
   7910   7908   7909   7913     1  0.0000000  1.0460000  1
   7910   7908   7909   7913     1  0.0000000  0.0000000  3
   7910   7908   7909   7922     1  0.0000000  1.0460000  1
   7910   7908   7909   7922     1  0.0000000  0.0000000  3
   7910   7908   7909   7912     1  0.0000000  0.6508444  3
   7910   7908   7927   7917     1  0.0000000  1.2552000  3
   7911   7907   7905   7925     1  0.0000000  1.0460000  1
   7911   7907   7905   7925     1  0.0000000  0.0000000  3
   7911   7907   7905   7924     1  0.0000000  0.6508444  3
   7911   7907   7908   7927     1  0.0000000  0.6508444  3
   7911   7907   7914   7916     1  0.0000000  0.6973333  3
   7912   7909   7908   7927     1  0.0000000  0.6508444  3
   7912   7909   7913   7923     1  0.0000000  0.6973333  3
   7914   7907   7905   7924     1  0.0000000  1.0460000  1
   7914   7907   7905   7924     1  0.0000000  0.0000000  3
   7915   7904   7905   7924     1  0.0000000  0.6508444  3
   7918   7915   7904   7922     1  0.0000000  1.0460000  1
   7918   7915   7904   7922     1  0.0000000  0.0000000  3
   7918   7915   7920   7921     1  0.0000000  0.6973333  3
   7919   7915   7904   7922     1  0.0000000  1.0460000  1
   7919   7915   7904   7922     1  0.0000000  0.0000000  3
   7919   7915   7920   7921     1  0.0000000  0.6973333  3
   7922   7904   7905   7924     1  0.0000000  1.0460000  1
   7922   7904   7905   7924     1  0.0000000  0.0000000  3
   7922   7909   7913   7923     1  0.0000000  0.6973333  3
   7924   7905   7925   7926     1  0.0000000  0.6973333  3
   7929   7931   7933   7935     1  0.0000000  0.6508444  3
   7929   7931   7933   7936     1  0.0000000  0.6508444  3
   7930   7929   7931   7933     1  0.0000000  0.0000000  2
   7930   7929   7931   7932     1  0.0000000  0.0000000  2
   7930   7929   7931   7934     1  0.0000000  0.0000000  2
   7931   7933   7937   8002     1  0.0000000  0.6508444  3
   7932   7931   7933   7937     1  0.0000000  0.6508444  3
   7932   7931   7933   7935     1  0.0000000  0.6508444  3
   7932   7931   7933   7936     1  0.0000000  0.6508444  3
   7933   7937   7938   7947     1  0.0000000  0.6508444  3
   7933   7937   7938   7948     1  0.0000000  0.6508444  3
   7933   7937   7939   7940     1  0.0000000  0.6508444  3
   7933   7937   7939   7942     1  0.0000000  0.6508444  3
   7934   7931   7933   7937     1  0.0000000  0.6508444  3
   7934   7931   7933   7935     1  0.0000000  0.6508444  3
   7934   7931   7933   7936     1  0.0000000  0.6508444  3
   7935   7933   7937   7938     1  0.0000000  0.6508444  3
   7935   7933   7937   7939     1  0.0000000  0.6508444  3
   7935   7933   7937   8002     1  0.0000000  0.6508444  3
   7936   7933   7937   7938     1  0.0000000  0.6508444  3
   7936   7933   7937   7939     1  0.0000000  0.6508444  3
   7936   7933   7937   8002     1  0.0000000  0.6508444  3
   7937   7938   7949   7950     1  0.0000000  0.6508444  3
   7937   7938   7949   7951     1  0.0000000  0.6508444  3
   7937   7939   7941   7943     1  0.0000000  0.6508444  3
   7937   7939   7941   7944     1  0.0000000  0.6508444  3
   7938   7937   7939   7940     1  0.0000000  0.6508444  3
   7938   7937   7939   7942     1  0.0000000  0.6508444  3
   7939   7937   7938   7947     1  0.0000000  0.6508444  3
   7939   7937   7938   7948     1  0.0000000  0.6508444  3
   7940   7939   7941   7945     1  0.0000000  0.6508444  3
   7940   7939   7941   7943     1  0.0000000  0.6508444  3
   7940   7939   7941   7944     1  0.0000000  0.6508444  3
   7940   7939   7937   8002     1  0.0000000  0.6508444  3
   7941   7945   7977   7967     1  180.0000771  6.0668000  2
   7941   7945   7977   7967     1  180.0000771  1.4644000  4
   7941   7939   7937   8002     1  0.0000000  0.6508444  3
   7942   7939   7941   7945     1  0.0000000  0.6508444  3
   7942   7939   7941   7943     1  0.0000000  0.6508444  3
   7942   7939   7941   7944     1  0.0000000  0.6508444  3
   7942   7939   7937   8002     1  0.0000000  0.6508444  3
   7943   7941   7945   7946     1  0.0000000  3.3472000  1
   7943   7941   7945   7946     1  0.0000000  0.0000000  2
   7943   7941   7945   7946     1  180.0000771  0.3347200  3
   7943   7941   7945   7977     1  180.0000771  0.0000000  2
   7944   7941   7945   7946     1  0.0000000  3.3472000  1
   7944   7941   7945   7946     1  0.0000000  0.0000000  2
   7944   7941   7945   7946     1  180.0000771  0.3347200  3
   7944   7941   7945   7977     1  180.0000771  0.0000000  2
   7945   7977   7958   7960     1  0.0000000  1.2552000  3
   7946   7945   7977   7967     1  180.0000771  6.0668000  2
   7946   7945   7977   7967     1  180.0000771  1.4644000  4
   7947   7938   7949   7952     1  0.0000000  0.6508444  3
   7947   7938   7949   7950     1  0.0000000  0.6508444  3
   7947   7938   7949   7951     1  0.0000000  0.6508444  3
   7947   7938   7937   8002     1  0.0000000  0.6508444  3
   7948   7938   7949   7952     1  0.0000000  0.6508444  3
   7948   7938   7949   7950     1  0.0000000  0.6508444  3
   7948   7938   7949   7951     1  0.0000000  0.6508444  3
   7948   7938   7937   8002     1  0.0000000  0.6508444  3
   7949   7952   8001   7991     1  180.0000771  6.0668000  2
   7949   7952   8001   7991     1  180.0000771  1.4644000  4
   7949   7938   7937   8002     1  0.0000000  0.6508444  3
   7950   7949   7952   7953     1  0.0000000  3.3472000  1
   7950   7949   7952   7953     1  0.0000000  0.0000000  2
   7950   7949   7952   7953     1  180.0000771  0.3347200  3
   7950   7949   7952   8001     1  180.0000771  0.0000000  2
   7951   7949   7952   7953     1  0.0000000  3.3472000  1
   7951   7949   7952   7953     1  0.0000000  0.0000000  2
   7951   7949   7952   7953     1  180.0000771  0.3347200  3
   7951   7949   7952   8001     1  180.0000771  0.0000000  2
   7952   8001   7982   7984     1  0.0000000  1.2552000  3
   7953   7952   8001   7991     1  180.0000771  6.0668000  2
   7953   7952   8001   7991     1  180.0000771  1.4644000  4
   7954   7955   7957   7961     1  0.0000000  0.6508444  3
   7954   7955   7975   7976     1  0.0000000  1.0460000  1
   7954   7955   7975   7976     1  0.0000000  0.6694400  3
   7954   7965   7970   7971     1  0.0000000  1.0460000  1
   7954   7965   7970   7971     1  0.0000000  0.6694400  3
   7954   7972   7959   7962     1  0.0000000  1.6038667  3
   7955   7957   7958   7960     1  0.0000000  0.6508444  3
   7955   7957   7964   7966     1  0.0000000  1.0460000  1
   7955   7957   7964   7966     1  0.0000000  0.6694400  3
   7955   7954   7965   7968     1  0.0000000  0.6508444  3
   7955   7954   7965   7969     1  0.0000000  0.6508444  3
   7956   7954   7955   7957     1  0.0000000  0.6508444  3
   7956   7954   7955   7975     1  0.0000000  1.0460000  1
   7956   7954   7955   7975     1  0.0000000  0.0000000  3
   7956   7954   7955   7974     1  0.0000000  0.6508444  3
   7956   7954   7965   7970     1  0.0000000  1.0460000  1
   7956   7954   7965   7970     1  0.0000000  0.0000000  3
   7956   7954   7965   7968     1  0.0000000  0.6508444  3
   7956   7954   7965   7969     1  0.0000000  0.6508444  3
   7956   7954   7972   7959     1  0.0000000  1.6038667  3
   7957   7958   7959   7962     1  0.0000000  0.6508444  3
   7957   7958   7977   7967     1  0.0000000  1.2552000  3
   7957   7955   7975   7976     1  0.0000000  1.0460000  1
   7957   7955   7975   7976     1  0.0000000  0.6694400  3
   7958   7959   7963   7973     1  0.0000000  1.0460000  1
   7958   7959   7963   7973     1  0.0000000  0.6694400  3
   7958   7957   7964   7966     1  0.0000000  1.0460000  1
   7958   7957   7964   7966     1  0.0000000  0.6694400  3
   7958   7957   7955   7974     1  0.0000000  0.6508444  3
   7959   7958   7977   7967     1  0.0000000  1.2552000  3
   7959   7958   7957   7961     1  0.0000000  0.6508444  3
   7960   7958   7959   7963     1  0.0000000  1.0460000  1
   7960   7958   7959   7963     1  0.0000000  0.0000000  3
   7960   7958   7959   7972     1  0.0000000  1.0460000  1
   7960   7958   7959   7972     1  0.0000000  0.0000000  3
   7960   7958   7959   7962     1  0.0000000  0.6508444  3
   7960   7958   7977   7967     1  0.0000000  1.2552000  3
   7960   7958   7957   7964     1  0.0000000  1.0460000  1
   7960   7958   7957   7964     1  0.0000000  0.0000000  3
   7960   7958   7957   7961     1  0.0000000  0.6508444  3
   7961   7957   7958   7977     1  0.0000000  0.6508444  3
   7961   7957   7964   7966     1  0.0000000  0.6973333  3
   7961   7957   7955   7975     1  0.0000000  1.0460000  1
   7961   7957   7955   7975     1  0.0000000  0.0000000  3
   7961   7957   7955   7974     1  0.0000000  0.6508444  3
   7962   7959   7963   7973     1  0.0000000  0.6973333  3
   7962   7959   7958   7977     1  0.0000000  0.6508444  3
   7964   7957   7955   7974     1  0.0000000  1.0460000  1
   7964   7957   7955   7974     1  0.0000000  0.0000000  3
   7965   7954   7955   7974     1  0.0000000  0.6508444  3
   7968   7965   7970   7971     1  0.0000000  0.6973333  3
   7968   7965   7954   7972     1  0.0000000  1.0460000  1
   7968   7965   7954   7972     1  0.0000000  0.0000000  3
   7969   7965   7970   7971     1  0.0000000  0.6973333  3
   7969   7965   7954   7972     1  0.0000000  1.0460000  1
   7969   7965   7954   7972     1  0.0000000  0.0000000  3
   7972   7959   7963   7973     1  0.0000000  0.6973333  3
   7972   7954   7955   7974     1  0.0000000  1.0460000  1
   7972   7954   7955   7974     1  0.0000000  0.0000000  3
   7974   7955   7975   7976     1  0.0000000  0.6973333  3
   7978   7979   7981   7985     1  0.0000000  0.6508444  3
   7978   7979   7999   8000     1  0.0000000  1.0460000  1
   7978   7979   7999   8000     1  0.0000000  0.6694400  3
   7978   7989   7994   7995     1  0.0000000  1.0460000  1
   7978   7989   7994   7995     1  0.0000000  0.6694400  3
   7978   7996   7983   7986     1  0.0000000  1.6038667  3
   7979   7981   7982   7984     1  0.0000000  0.6508444  3
   7979   7981   7988   7990     1  0.0000000  1.0460000  1
   7979   7981   7988   7990     1  0.0000000  0.6694400  3
   7979   7978   7989   7992     1  0.0000000  0.6508444  3
   7979   7978   7989   7993     1  0.0000000  0.6508444  3
   7980   7978   7979   7981     1  0.0000000  0.6508444  3
   7980   7978   7979   7999     1  0.0000000  1.0460000  1
   7980   7978   7979   7999     1  0.0000000  0.0000000  3
   7980   7978   7979   7998     1  0.0000000  0.6508444  3
   7980   7978   7989   7994     1  0.0000000  1.0460000  1
   7980   7978   7989   7994     1  0.0000000  0.0000000  3
   7980   7978   7989   7992     1  0.0000000  0.6508444  3
   7980   7978   7989   7993     1  0.0000000  0.6508444  3
   7980   7978   7996   7983     1  0.0000000  1.6038667  3
   7981   7982   7983   7986     1  0.0000000  0.6508444  3
   7981   7982   8001   7991     1  0.0000000  1.2552000  3
   7981   7979   7999   8000     1  0.0000000  1.0460000  1
   7981   7979   7999   8000     1  0.0000000  0.6694400  3
   7982   7983   7987   7997     1  0.0000000  1.0460000  1
   7982   7983   7987   7997     1  0.0000000  0.6694400  3
   7982   7981   7988   7990     1  0.0000000  1.0460000  1
   7982   7981   7988   7990     1  0.0000000  0.6694400  3
   7982   7981   7979   7998     1  0.0000000  0.6508444  3
   7983   7982   8001   7991     1  0.0000000  1.2552000  3
   7983   7982   7981   7985     1  0.0000000  0.6508444  3
   7984   7982   7983   7987     1  0.0000000  1.0460000  1
   7984   7982   7983   7987     1  0.0000000  0.0000000  3
   7984   7982   7983   7996     1  0.0000000  1.0460000  1
   7984   7982   7983   7996     1  0.0000000  0.0000000  3
   7984   7982   7983   7986     1  0.0000000  0.6508444  3
   7984   7982   8001   7991     1  0.0000000  1.2552000  3
   7984   7982   7981   7988     1  0.0000000  1.0460000  1
   7984   7982   7981   7988     1  0.0000000  0.0000000  3
   7984   7982   7981   7985     1  0.0000000  0.6508444  3
   7985   7981   7982   8001     1  0.0000000  0.6508444  3
   7985   7981   7988   7990     1  0.0000000  0.6973333  3
   7985   7981   7979   7999     1  0.0000000  1.0460000  1
   7985   7981   7979   7999     1  0.0000000  0.0000000  3
   7985   7981   7979   7998     1  0.0000000  0.6508444  3
   7986   7983   7987   7997     1  0.0000000  0.6973333  3
   7986   7983   7982   8001     1  0.0000000  0.6508444  3
   7988   7981   7979   7998     1  0.0000000  1.0460000  1
   7988   7981   7979   7998     1  0.0000000  0.0000000  3
   7989   7978   7979   7998     1  0.0000000  0.6508444  3
   7992   7989   7994   7995     1  0.0000000  0.6973333  3
   7992   7989   7978   7996     1  0.0000000  1.0460000  1
   7992   7989   7978   7996     1  0.0000000  0.0000000  3
   7993   7989   7994   7995     1  0.0000000  0.6973333  3
   7993   7989   7978   7996     1  0.0000000  1.0460000  1
   7993   7989   7978   7996     1  0.0000000  0.0000000  3
   7996   7983   7987   7997     1  0.0000000  0.6973333  3
   7996   7978   7979   7998     1  0.0000000  1.0460000  1
   7996   7978   7979   7998     1  0.0000000  0.0000000  3
   7998   7979   7999   8000     1  0.0000000  0.6973333  3
   8003   8005   8007   8009     1  0.0000000  0.6508444  3
   8003   8005   8007   8010     1  0.0000000  0.6508444  3
   8004   8003   8005   8007     1  0.0000000  0.0000000  2
   8004   8003   8005   8006     1  0.0000000  0.0000000  2
   8004   8003   8005   8008     1  0.0000000  0.0000000  2
   8005   8007   8011   8076     1  0.0000000  0.6508444  3
   8006   8005   8007   8011     1  0.0000000  0.6508444  3
   8006   8005   8007   8009     1  0.0000000  0.6508444  3
   8006   8005   8007   8010     1  0.0000000  0.6508444  3
   8007   8011   8012   8021     1  0.0000000  0.6508444  3
   8007   8011   8012   8022     1  0.0000000  0.6508444  3
   8007   8011   8013   8014     1  0.0000000  0.6508444  3
   8007   8011   8013   8016     1  0.0000000  0.6508444  3
   8008   8005   8007   8011     1  0.0000000  0.6508444  3
   8008   8005   8007   8009     1  0.0000000  0.6508444  3
   8008   8005   8007   8010     1  0.0000000  0.6508444  3
   8009   8007   8011   8012     1  0.0000000  0.6508444  3
   8009   8007   8011   8013     1  0.0000000  0.6508444  3
   8009   8007   8011   8076     1  0.0000000  0.6508444  3
   8010   8007   8011   8012     1  0.0000000  0.6508444  3
   8010   8007   8011   8013     1  0.0000000  0.6508444  3
   8010   8007   8011   8076     1  0.0000000  0.6508444  3
   8011   8012   8023   8024     1  0.0000000  0.6508444  3
   8011   8012   8023   8025     1  0.0000000  0.6508444  3
   8011   8013   8015   8017     1  0.0000000  0.6508444  3
   8011   8013   8015   8018     1  0.0000000  0.6508444  3
   8012   8011   8013   8014     1  0.0000000  0.6508444  3
   8012   8011   8013   8016     1  0.0000000  0.6508444  3
   8013   8011   8012   8021     1  0.0000000  0.6508444  3
   8013   8011   8012   8022     1  0.0000000  0.6508444  3
   8014   8013   8011   8076     1  0.0000000  0.6508444  3
   8014   8013   8015   8019     1  0.0000000  0.6508444  3
   8014   8013   8015   8017     1  0.0000000  0.6508444  3
   8014   8013   8015   8018     1  0.0000000  0.6508444  3
   8015   8013   8011   8076     1  0.0000000  0.6508444  3
   8015   8019   8051   8041     1  180.0000771  6.0668000  2
   8015   8019   8051   8041     1  180.0000771  1.4644000  4
   8016   8013   8011   8076     1  0.0000000  0.6508444  3
   8016   8013   8015   8019     1  0.0000000  0.6508444  3
   8016   8013   8015   8017     1  0.0000000  0.6508444  3
   8016   8013   8015   8018     1  0.0000000  0.6508444  3
   8017   8015   8019   8020     1  0.0000000  3.3472000  1
   8017   8015   8019   8020     1  0.0000000  0.0000000  2
   8017   8015   8019   8020     1  180.0000771  0.3347200  3
   8017   8015   8019   8051     1  180.0000771  0.0000000  2
   8018   8015   8019   8020     1  0.0000000  3.3472000  1
   8018   8015   8019   8020     1  0.0000000  0.0000000  2
   8018   8015   8019   8020     1  180.0000771  0.3347200  3
   8018   8015   8019   8051     1  180.0000771  0.0000000  2
   8019   8051   8032   8034     1  0.0000000  1.2552000  3
   8020   8019   8051   8041     1  180.0000771  6.0668000  2
   8020   8019   8051   8041     1  180.0000771  1.4644000  4
   8021   8012   8011   8076     1  0.0000000  0.6508444  3
   8021   8012   8023   8026     1  0.0000000  0.6508444  3
   8021   8012   8023   8024     1  0.0000000  0.6508444  3
   8021   8012   8023   8025     1  0.0000000  0.6508444  3
   8022   8012   8011   8076     1  0.0000000  0.6508444  3
   8022   8012   8023   8026     1  0.0000000  0.6508444  3
   8022   8012   8023   8024     1  0.0000000  0.6508444  3
   8022   8012   8023   8025     1  0.0000000  0.6508444  3
   8023   8012   8011   8076     1  0.0000000  0.6508444  3
   8023   8026   8075   8065     1  180.0000771  6.0668000  2
   8023   8026   8075   8065     1  180.0000771  1.4644000  4
   8024   8023   8026   8027     1  0.0000000  3.3472000  1
   8024   8023   8026   8027     1  0.0000000  0.0000000  2
   8024   8023   8026   8027     1  180.0000771  0.3347200  3
   8024   8023   8026   8075     1  180.0000771  0.0000000  2
   8025   8023   8026   8027     1  0.0000000  3.3472000  1
   8025   8023   8026   8027     1  0.0000000  0.0000000  2
   8025   8023   8026   8027     1  180.0000771  0.3347200  3
   8025   8023   8026   8075     1  180.0000771  0.0000000  2
   8026   8075   8056   8058     1  0.0000000  1.2552000  3
   8027   8026   8075   8065     1  180.0000771  6.0668000  2
   8027   8026   8075   8065     1  180.0000771  1.4644000  4
   8028   8029   8031   8035     1  0.0000000  0.6508444  3
   8028   8029   8049   8050     1  0.0000000  1.0460000  1
   8028   8029   8049   8050     1  0.0000000  0.6694400  3
   8028   8039   8044   8045     1  0.0000000  1.0460000  1
   8028   8039   8044   8045     1  0.0000000  0.6694400  3
   8028   8046   8033   8036     1  0.0000000  1.6038667  3
   8029   8028   8039   8042     1  0.0000000  0.6508444  3
   8029   8028   8039   8043     1  0.0000000  0.6508444  3
   8029   8031   8032   8034     1  0.0000000  0.6508444  3
   8029   8031   8038   8040     1  0.0000000  1.0460000  1
   8029   8031   8038   8040     1  0.0000000  0.6694400  3
   8030   8028   8029   8031     1  0.0000000  0.6508444  3
   8030   8028   8029   8049     1  0.0000000  1.0460000  1
   8030   8028   8029   8049     1  0.0000000  0.0000000  3
   8030   8028   8029   8048     1  0.0000000  0.6508444  3
   8030   8028   8039   8044     1  0.0000000  1.0460000  1
   8030   8028   8039   8044     1  0.0000000  0.0000000  3
   8030   8028   8039   8042     1  0.0000000  0.6508444  3
   8030   8028   8039   8043     1  0.0000000  0.6508444  3
   8030   8028   8046   8033     1  0.0000000  1.6038667  3
   8031   8029   8049   8050     1  0.0000000  1.0460000  1
   8031   8029   8049   8050     1  0.0000000  0.6694400  3
   8031   8032   8033   8036     1  0.0000000  0.6508444  3
   8031   8032   8051   8041     1  0.0000000  1.2552000  3
   8032   8031   8029   8048     1  0.0000000  0.6508444  3
   8032   8031   8038   8040     1  0.0000000  1.0460000  1
   8032   8031   8038   8040     1  0.0000000  0.6694400  3
   8032   8033   8037   8047     1  0.0000000  1.0460000  1
   8032   8033   8037   8047     1  0.0000000  0.6694400  3
   8033   8032   8031   8035     1  0.0000000  0.6508444  3
   8033   8032   8051   8041     1  0.0000000  1.2552000  3
   8034   8032   8031   8038     1  0.0000000  1.0460000  1
   8034   8032   8031   8038     1  0.0000000  0.0000000  3
   8034   8032   8031   8035     1  0.0000000  0.6508444  3
   8034   8032   8033   8037     1  0.0000000  1.0460000  1
   8034   8032   8033   8037     1  0.0000000  0.0000000  3
   8034   8032   8033   8046     1  0.0000000  1.0460000  1
   8034   8032   8033   8046     1  0.0000000  0.0000000  3
   8034   8032   8033   8036     1  0.0000000  0.6508444  3
   8034   8032   8051   8041     1  0.0000000  1.2552000  3
   8035   8031   8029   8049     1  0.0000000  1.0460000  1
   8035   8031   8029   8049     1  0.0000000  0.0000000  3
   8035   8031   8029   8048     1  0.0000000  0.6508444  3
   8035   8031   8032   8051     1  0.0000000  0.6508444  3
   8035   8031   8038   8040     1  0.0000000  0.6973333  3
   8036   8033   8032   8051     1  0.0000000  0.6508444  3
   8036   8033   8037   8047     1  0.0000000  0.6973333  3
   8038   8031   8029   8048     1  0.0000000  1.0460000  1
   8038   8031   8029   8048     1  0.0000000  0.0000000  3
   8039   8028   8029   8048     1  0.0000000  0.6508444  3
   8042   8039   8028   8046     1  0.0000000  1.0460000  1
   8042   8039   8028   8046     1  0.0000000  0.0000000  3
   8042   8039   8044   8045     1  0.0000000  0.6973333  3
   8043   8039   8028   8046     1  0.0000000  1.0460000  1
   8043   8039   8028   8046     1  0.0000000  0.0000000  3
   8043   8039   8044   8045     1  0.0000000  0.6973333  3
   8046   8028   8029   8048     1  0.0000000  1.0460000  1
   8046   8028   8029   8048     1  0.0000000  0.0000000  3
   8046   8033   8037   8047     1  0.0000000  0.6973333  3
   8048   8029   8049   8050     1  0.0000000  0.6973333  3
   8052   8053   8055   8059     1  0.0000000  0.6508444  3
   8052   8053   8073   8074     1  0.0000000  1.0460000  1
   8052   8053   8073   8074     1  0.0000000  0.6694400  3
   8052   8063   8068   8069     1  0.0000000  1.0460000  1
   8052   8063   8068   8069     1  0.0000000  0.6694400  3
   8052   8070   8057   8060     1  0.0000000  1.6038667  3
   8053   8052   8063   8066     1  0.0000000  0.6508444  3
   8053   8052   8063   8067     1  0.0000000  0.6508444  3
   8053   8055   8056   8058     1  0.0000000  0.6508444  3
   8053   8055   8062   8064     1  0.0000000  1.0460000  1
   8053   8055   8062   8064     1  0.0000000  0.6694400  3
   8054   8052   8053   8055     1  0.0000000  0.6508444  3
   8054   8052   8053   8073     1  0.0000000  1.0460000  1
   8054   8052   8053   8073     1  0.0000000  0.0000000  3
   8054   8052   8053   8072     1  0.0000000  0.6508444  3
   8054   8052   8063   8068     1  0.0000000  1.0460000  1
   8054   8052   8063   8068     1  0.0000000  0.0000000  3
   8054   8052   8063   8066     1  0.0000000  0.6508444  3
   8054   8052   8063   8067     1  0.0000000  0.6508444  3
   8054   8052   8070   8057     1  0.0000000  1.6038667  3
   8055   8053   8073   8074     1  0.0000000  1.0460000  1
   8055   8053   8073   8074     1  0.0000000  0.6694400  3
   8055   8056   8057   8060     1  0.0000000  0.6508444  3
   8055   8056   8075   8065     1  0.0000000  1.2552000  3
   8056   8055   8053   8072     1  0.0000000  0.6508444  3
   8056   8055   8062   8064     1  0.0000000  1.0460000  1
   8056   8055   8062   8064     1  0.0000000  0.6694400  3
   8056   8057   8061   8071     1  0.0000000  1.0460000  1
   8056   8057   8061   8071     1  0.0000000  0.6694400  3
   8057   8056   8055   8059     1  0.0000000  0.6508444  3
   8057   8056   8075   8065     1  0.0000000  1.2552000  3
   8058   8056   8055   8062     1  0.0000000  1.0460000  1
   8058   8056   8055   8062     1  0.0000000  0.0000000  3
   8058   8056   8055   8059     1  0.0000000  0.6508444  3
   8058   8056   8057   8061     1  0.0000000  1.0460000  1
   8058   8056   8057   8061     1  0.0000000  0.0000000  3
   8058   8056   8057   8070     1  0.0000000  1.0460000  1
   8058   8056   8057   8070     1  0.0000000  0.0000000  3
   8058   8056   8057   8060     1  0.0000000  0.6508444  3
   8058   8056   8075   8065     1  0.0000000  1.2552000  3
   8059   8055   8053   8073     1  0.0000000  1.0460000  1
   8059   8055   8053   8073     1  0.0000000  0.0000000  3
   8059   8055   8053   8072     1  0.0000000  0.6508444  3
   8059   8055   8056   8075     1  0.0000000  0.6508444  3
   8059   8055   8062   8064     1  0.0000000  0.6973333  3
   8060   8057   8056   8075     1  0.0000000  0.6508444  3
   8060   8057   8061   8071     1  0.0000000  0.6973333  3
   8062   8055   8053   8072     1  0.0000000  1.0460000  1
   8062   8055   8053   8072     1  0.0000000  0.0000000  3
   8063   8052   8053   8072     1  0.0000000  0.6508444  3
   8066   8063   8052   8070     1  0.0000000  1.0460000  1
   8066   8063   8052   8070     1  0.0000000  0.0000000  3
   8066   8063   8068   8069     1  0.0000000  0.6973333  3
   8067   8063   8052   8070     1  0.0000000  1.0460000  1
   8067   8063   8052   8070     1  0.0000000  0.0000000  3
   8067   8063   8068   8069     1  0.0000000  0.6973333  3
   8070   8052   8053   8072     1  0.0000000  1.0460000  1
   8070   8052   8053   8072     1  0.0000000  0.0000000  3
   8070   8057   8061   8071     1  0.0000000  0.6973333  3
   8072   8053   8073   8074     1  0.0000000  0.6973333  3
   8077   8079   8081   8083     1  0.0000000  0.6508444  3
   8077   8079   8081   8084     1  0.0000000  0.6508444  3
   8078   8077   8079   8081     1  0.0000000  0.0000000  2
   8078   8077   8079   8080     1  0.0000000  0.0000000  2
   8078   8077   8079   8082     1  0.0000000  0.0000000  2
   8079   8081   8085   8150     1  0.0000000  0.6508444  3
   8080   8079   8081   8085     1  0.0000000  0.6508444  3
   8080   8079   8081   8083     1  0.0000000  0.6508444  3
   8080   8079   8081   8084     1  0.0000000  0.6508444  3
   8081   8085   8086   8095     1  0.0000000  0.6508444  3
   8081   8085   8086   8096     1  0.0000000  0.6508444  3
   8081   8085   8087   8088     1  0.0000000  0.6508444  3
   8081   8085   8087   8090     1  0.0000000  0.6508444  3
   8082   8079   8081   8085     1  0.0000000  0.6508444  3
   8082   8079   8081   8083     1  0.0000000  0.6508444  3
   8082   8079   8081   8084     1  0.0000000  0.6508444  3
   8083   8081   8085   8086     1  0.0000000  0.6508444  3
   8083   8081   8085   8087     1  0.0000000  0.6508444  3
   8083   8081   8085   8150     1  0.0000000  0.6508444  3
   8084   8081   8085   8086     1  0.0000000  0.6508444  3
   8084   8081   8085   8087     1  0.0000000  0.6508444  3
   8084   8081   8085   8150     1  0.0000000  0.6508444  3
   8085   8086   8097   8098     1  0.0000000  0.6508444  3
   8085   8086   8097   8099     1  0.0000000  0.6508444  3
   8085   8087   8089   8091     1  0.0000000  0.6508444  3
   8085   8087   8089   8092     1  0.0000000  0.6508444  3
   8086   8085   8087   8088     1  0.0000000  0.6508444  3
   8086   8085   8087   8090     1  0.0000000  0.6508444  3
   8087   8085   8086   8095     1  0.0000000  0.6508444  3
   8087   8085   8086   8096     1  0.0000000  0.6508444  3
   8088   8087   8089   8093     1  0.0000000  0.6508444  3
   8088   8087   8089   8091     1  0.0000000  0.6508444  3
   8088   8087   8089   8092     1  0.0000000  0.6508444  3
   8088   8087   8085   8150     1  0.0000000  0.6508444  3
   8089   8093   8125   8115     1  180.0000771  6.0668000  2
   8089   8093   8125   8115     1  180.0000771  1.4644000  4
   8089   8087   8085   8150     1  0.0000000  0.6508444  3
   8090   8087   8089   8093     1  0.0000000  0.6508444  3
   8090   8087   8089   8091     1  0.0000000  0.6508444  3
   8090   8087   8089   8092     1  0.0000000  0.6508444  3
   8090   8087   8085   8150     1  0.0000000  0.6508444  3
   8091   8089   8093   8094     1  0.0000000  3.3472000  1
   8091   8089   8093   8094     1  0.0000000  0.0000000  2
   8091   8089   8093   8094     1  180.0000771  0.3347200  3
   8091   8089   8093   8125     1  180.0000771  0.0000000  2
   8092   8089   8093   8094     1  0.0000000  3.3472000  1
   8092   8089   8093   8094     1  0.0000000  0.0000000  2
   8092   8089   8093   8094     1  180.0000771  0.3347200  3
   8092   8089   8093   8125     1  180.0000771  0.0000000  2
   8093   8125   8106   8108     1  0.0000000  1.2552000  3
   8094   8093   8125   8115     1  180.0000771  6.0668000  2
   8094   8093   8125   8115     1  180.0000771  1.4644000  4
   8095   8086   8097   8100     1  0.0000000  0.6508444  3
   8095   8086   8097   8098     1  0.0000000  0.6508444  3
   8095   8086   8097   8099     1  0.0000000  0.6508444  3
   8095   8086   8085   8150     1  0.0000000  0.6508444  3
   8096   8086   8097   8100     1  0.0000000  0.6508444  3
   8096   8086   8097   8098     1  0.0000000  0.6508444  3
   8096   8086   8097   8099     1  0.0000000  0.6508444  3
   8096   8086   8085   8150     1  0.0000000  0.6508444  3
   8097   8100   8149   8139     1  180.0000771  6.0668000  2
   8097   8100   8149   8139     1  180.0000771  1.4644000  4
   8097   8086   8085   8150     1  0.0000000  0.6508444  3
   8098   8097   8100   8101     1  0.0000000  3.3472000  1
   8098   8097   8100   8101     1  0.0000000  0.0000000  2
   8098   8097   8100   8101     1  180.0000771  0.3347200  3
   8098   8097   8100   8149     1  180.0000771  0.0000000  2
   8099   8097   8100   8101     1  0.0000000  3.3472000  1
   8099   8097   8100   8101     1  0.0000000  0.0000000  2
   8099   8097   8100   8101     1  180.0000771  0.3347200  3
   8099   8097   8100   8149     1  180.0000771  0.0000000  2
   8100   8149   8130   8132     1  0.0000000  1.2552000  3
   8101   8100   8149   8139     1  180.0000771  6.0668000  2
   8101   8100   8149   8139     1  180.0000771  1.4644000  4
   8102   8103   8105   8109     1  0.0000000  0.6508444  3
   8102   8103   8123   8124     1  0.0000000  1.0460000  1
   8102   8103   8123   8124     1  0.0000000  0.6694400  3
   8102   8113   8118   8119     1  0.0000000  1.0460000  1
   8102   8113   8118   8119     1  0.0000000  0.6694400  3
   8102   8120   8107   8110     1  0.0000000  1.6038667  3
   8103   8105   8106   8108     1  0.0000000  0.6508444  3
   8103   8105   8112   8114     1  0.0000000  1.0460000  1
   8103   8105   8112   8114     1  0.0000000  0.6694400  3
   8103   8102   8113   8116     1  0.0000000  0.6508444  3
   8103   8102   8113   8117     1  0.0000000  0.6508444  3
   8104   8102   8103   8105     1  0.0000000  0.6508444  3
   8104   8102   8103   8123     1  0.0000000  1.0460000  1
   8104   8102   8103   8123     1  0.0000000  0.0000000  3
   8104   8102   8103   8122     1  0.0000000  0.6508444  3
   8104   8102   8113   8118     1  0.0000000  1.0460000  1
   8104   8102   8113   8118     1  0.0000000  0.0000000  3
   8104   8102   8113   8116     1  0.0000000  0.6508444  3
   8104   8102   8113   8117     1  0.0000000  0.6508444  3
   8104   8102   8120   8107     1  0.0000000  1.6038667  3
   8105   8106   8107   8110     1  0.0000000  0.6508444  3
   8105   8106   8125   8115     1  0.0000000  1.2552000  3
   8105   8103   8123   8124     1  0.0000000  1.0460000  1
   8105   8103   8123   8124     1  0.0000000  0.6694400  3
   8106   8107   8111   8121     1  0.0000000  1.0460000  1
   8106   8107   8111   8121     1  0.0000000  0.6694400  3
   8106   8105   8112   8114     1  0.0000000  1.0460000  1
   8106   8105   8112   8114     1  0.0000000  0.6694400  3
   8106   8105   8103   8122     1  0.0000000  0.6508444  3
   8107   8106   8125   8115     1  0.0000000  1.2552000  3
   8107   8106   8105   8109     1  0.0000000  0.6508444  3
   8108   8106   8107   8111     1  0.0000000  1.0460000  1
   8108   8106   8107   8111     1  0.0000000  0.0000000  3
   8108   8106   8107   8120     1  0.0000000  1.0460000  1
   8108   8106   8107   8120     1  0.0000000  0.0000000  3
   8108   8106   8107   8110     1  0.0000000  0.6508444  3
   8108   8106   8125   8115     1  0.0000000  1.2552000  3
   8108   8106   8105   8112     1  0.0000000  1.0460000  1
   8108   8106   8105   8112     1  0.0000000  0.0000000  3
   8108   8106   8105   8109     1  0.0000000  0.6508444  3
   8109   8105   8106   8125     1  0.0000000  0.6508444  3
   8109   8105   8112   8114     1  0.0000000  0.6973333  3
   8109   8105   8103   8123     1  0.0000000  1.0460000  1
   8109   8105   8103   8123     1  0.0000000  0.0000000  3
   8109   8105   8103   8122     1  0.0000000  0.6508444  3
   8110   8107   8111   8121     1  0.0000000  0.6973333  3
   8110   8107   8106   8125     1  0.0000000  0.6508444  3
   8112   8105   8103   8122     1  0.0000000  1.0460000  1
   8112   8105   8103   8122     1  0.0000000  0.0000000  3
   8113   8102   8103   8122     1  0.0000000  0.6508444  3
   8116   8113   8118   8119     1  0.0000000  0.6973333  3
   8116   8113   8102   8120     1  0.0000000  1.0460000  1
   8116   8113   8102   8120     1  0.0000000  0.0000000  3
   8117   8113   8118   8119     1  0.0000000  0.6973333  3
   8117   8113   8102   8120     1  0.0000000  1.0460000  1
   8117   8113   8102   8120     1  0.0000000  0.0000000  3
   8120   8107   8111   8121     1  0.0000000  0.6973333  3
   8120   8102   8103   8122     1  0.0000000  1.0460000  1
   8120   8102   8103   8122     1  0.0000000  0.0000000  3
   8122   8103   8123   8124     1  0.0000000  0.6973333  3
   8126   8127   8129   8133     1  0.0000000  0.6508444  3
   8126   8127   8147   8148     1  0.0000000  1.0460000  1
   8126   8127   8147   8148     1  0.0000000  0.6694400  3
   8126   8137   8142   8143     1  0.0000000  1.0460000  1
   8126   8137   8142   8143     1  0.0000000  0.6694400  3
   8126   8144   8131   8134     1  0.0000000  1.6038667  3
   8127   8129   8130   8132     1  0.0000000  0.6508444  3
   8127   8129   8136   8138     1  0.0000000  1.0460000  1
   8127   8129   8136   8138     1  0.0000000  0.6694400  3
   8127   8126   8137   8140     1  0.0000000  0.6508444  3
   8127   8126   8137   8141     1  0.0000000  0.6508444  3
   8128   8126   8127   8129     1  0.0000000  0.6508444  3
   8128   8126   8127   8147     1  0.0000000  1.0460000  1
   8128   8126   8127   8147     1  0.0000000  0.0000000  3
   8128   8126   8127   8146     1  0.0000000  0.6508444  3
   8128   8126   8137   8142     1  0.0000000  1.0460000  1
   8128   8126   8137   8142     1  0.0000000  0.0000000  3
   8128   8126   8137   8140     1  0.0000000  0.6508444  3
   8128   8126   8137   8141     1  0.0000000  0.6508444  3
   8128   8126   8144   8131     1  0.0000000  1.6038667  3
   8129   8130   8131   8134     1  0.0000000  0.6508444  3
   8129   8130   8149   8139     1  0.0000000  1.2552000  3
   8129   8127   8147   8148     1  0.0000000  1.0460000  1
   8129   8127   8147   8148     1  0.0000000  0.6694400  3
   8130   8131   8135   8145     1  0.0000000  1.0460000  1
   8130   8131   8135   8145     1  0.0000000  0.6694400  3
   8130   8129   8136   8138     1  0.0000000  1.0460000  1
   8130   8129   8136   8138     1  0.0000000  0.6694400  3
   8130   8129   8127   8146     1  0.0000000  0.6508444  3
   8131   8130   8149   8139     1  0.0000000  1.2552000  3
   8131   8130   8129   8133     1  0.0000000  0.6508444  3
   8132   8130   8131   8135     1  0.0000000  1.0460000  1
   8132   8130   8131   8135     1  0.0000000  0.0000000  3
   8132   8130   8131   8144     1  0.0000000  1.0460000  1
   8132   8130   8131   8144     1  0.0000000  0.0000000  3
   8132   8130   8131   8134     1  0.0000000  0.6508444  3
   8132   8130   8149   8139     1  0.0000000  1.2552000  3
   8132   8130   8129   8136     1  0.0000000  1.0460000  1
   8132   8130   8129   8136     1  0.0000000  0.0000000  3
   8132   8130   8129   8133     1  0.0000000  0.6508444  3
   8133   8129   8130   8149     1  0.0000000  0.6508444  3
   8133   8129   8136   8138     1  0.0000000  0.6973333  3
   8133   8129   8127   8147     1  0.0000000  1.0460000  1
   8133   8129   8127   8147     1  0.0000000  0.0000000  3
   8133   8129   8127   8146     1  0.0000000  0.6508444  3
   8134   8131   8135   8145     1  0.0000000  0.6973333  3
   8134   8131   8130   8149     1  0.0000000  0.6508444  3
   8136   8129   8127   8146     1  0.0000000  1.0460000  1
   8136   8129   8127   8146     1  0.0000000  0.0000000  3
   8137   8126   8127   8146     1  0.0000000  0.6508444  3
   8140   8137   8142   8143     1  0.0000000  0.6973333  3
   8140   8137   8126   8144     1  0.0000000  1.0460000  1
   8140   8137   8126   8144     1  0.0000000  0.0000000  3
   8141   8137   8142   8143     1  0.0000000  0.6973333  3
   8141   8137   8126   8144     1  0.0000000  1.0460000  1
   8141   8137   8126   8144     1  0.0000000  0.0000000  3
   8144   8131   8135   8145     1  0.0000000  0.6973333  3
   8144   8126   8127   8146     1  0.0000000  1.0460000  1
   8144   8126   8127   8146     1  0.0000000  0.0000000  3
   8146   8127   8147   8148     1  0.0000000  0.6973333  3
   8151   8153   8155   8157     1  0.0000000  0.6508444  3
   8151   8153   8155   8158     1  0.0000000  0.6508444  3
   8152   8151   8153   8155     1  0.0000000  0.0000000  2
   8152   8151   8153   8154     1  0.0000000  0.0000000  2
   8152   8151   8153   8156     1  0.0000000  0.0000000  2
   8153   8155   8159   8224     1  0.0000000  0.6508444  3
   8154   8153   8155   8159     1  0.0000000  0.6508444  3
   8154   8153   8155   8157     1  0.0000000  0.6508444  3
   8154   8153   8155   8158     1  0.0000000  0.6508444  3
   8155   8159   8160   8169     1  0.0000000  0.6508444  3
   8155   8159   8160   8170     1  0.0000000  0.6508444  3
   8155   8159   8161   8162     1  0.0000000  0.6508444  3
   8155   8159   8161   8164     1  0.0000000  0.6508444  3
   8156   8153   8155   8159     1  0.0000000  0.6508444  3
   8156   8153   8155   8157     1  0.0000000  0.6508444  3
   8156   8153   8155   8158     1  0.0000000  0.6508444  3
   8157   8155   8159   8160     1  0.0000000  0.6508444  3
   8157   8155   8159   8161     1  0.0000000  0.6508444  3
   8157   8155   8159   8224     1  0.0000000  0.6508444  3
   8158   8155   8159   8160     1  0.0000000  0.6508444  3
   8158   8155   8159   8161     1  0.0000000  0.6508444  3
   8158   8155   8159   8224     1  0.0000000  0.6508444  3
   8159   8160   8171   8172     1  0.0000000  0.6508444  3
   8159   8160   8171   8173     1  0.0000000  0.6508444  3
   8159   8161   8163   8165     1  0.0000000  0.6508444  3
   8159   8161   8163   8166     1  0.0000000  0.6508444  3
   8160   8159   8161   8162     1  0.0000000  0.6508444  3
   8160   8159   8161   8164     1  0.0000000  0.6508444  3
   8161   8159   8160   8169     1  0.0000000  0.6508444  3
   8161   8159   8160   8170     1  0.0000000  0.6508444  3
   8162   8161   8159   8224     1  0.0000000  0.6508444  3
   8162   8161   8163   8167     1  0.0000000  0.6508444  3
   8162   8161   8163   8165     1  0.0000000  0.6508444  3
   8162   8161   8163   8166     1  0.0000000  0.6508444  3
   8163   8161   8159   8224     1  0.0000000  0.6508444  3
   8163   8167   8199   8189     1  180.0000771  6.0668000  2
   8163   8167   8199   8189     1  180.0000771  1.4644000  4
   8164   8161   8159   8224     1  0.0000000  0.6508444  3
   8164   8161   8163   8167     1  0.0000000  0.6508444  3
   8164   8161   8163   8165     1  0.0000000  0.6508444  3
   8164   8161   8163   8166     1  0.0000000  0.6508444  3
   8165   8163   8167   8168     1  0.0000000  3.3472000  1
   8165   8163   8167   8168     1  0.0000000  0.0000000  2
   8165   8163   8167   8168     1  180.0000771  0.3347200  3
   8165   8163   8167   8199     1  180.0000771  0.0000000  2
   8166   8163   8167   8168     1  0.0000000  3.3472000  1
   8166   8163   8167   8168     1  0.0000000  0.0000000  2
   8166   8163   8167   8168     1  180.0000771  0.3347200  3
   8166   8163   8167   8199     1  180.0000771  0.0000000  2
   8167   8199   8180   8182     1  0.0000000  1.2552000  3
   8168   8167   8199   8189     1  180.0000771  6.0668000  2
   8168   8167   8199   8189     1  180.0000771  1.4644000  4
   8169   8160   8159   8224     1  0.0000000  0.6508444  3
   8169   8160   8171   8174     1  0.0000000  0.6508444  3
   8169   8160   8171   8172     1  0.0000000  0.6508444  3
   8169   8160   8171   8173     1  0.0000000  0.6508444  3
   8170   8160   8159   8224     1  0.0000000  0.6508444  3
   8170   8160   8171   8174     1  0.0000000  0.6508444  3
   8170   8160   8171   8172     1  0.0000000  0.6508444  3
   8170   8160   8171   8173     1  0.0000000  0.6508444  3
   8171   8160   8159   8224     1  0.0000000  0.6508444  3
   8171   8174   8223   8213     1  180.0000771  6.0668000  2
   8171   8174   8223   8213     1  180.0000771  1.4644000  4
   8172   8171   8174   8175     1  0.0000000  3.3472000  1
   8172   8171   8174   8175     1  0.0000000  0.0000000  2
   8172   8171   8174   8175     1  180.0000771  0.3347200  3
   8172   8171   8174   8223     1  180.0000771  0.0000000  2
   8173   8171   8174   8175     1  0.0000000  3.3472000  1
   8173   8171   8174   8175     1  0.0000000  0.0000000  2
   8173   8171   8174   8175     1  180.0000771  0.3347200  3
   8173   8171   8174   8223     1  180.0000771  0.0000000  2
   8174   8223   8204   8206     1  0.0000000  1.2552000  3
   8175   8174   8223   8213     1  180.0000771  6.0668000  2
   8175   8174   8223   8213     1  180.0000771  1.4644000  4
   8176   8177   8179   8183     1  0.0000000  0.6508444  3
   8176   8177   8197   8198     1  0.0000000  1.0460000  1
   8176   8177   8197   8198     1  0.0000000  0.6694400  3
   8176   8187   8192   8193     1  0.0000000  1.0460000  1
   8176   8187   8192   8193     1  0.0000000  0.6694400  3
   8176   8194   8181   8184     1  0.0000000  1.6038667  3
   8177   8176   8187   8190     1  0.0000000  0.6508444  3
   8177   8176   8187   8191     1  0.0000000  0.6508444  3
   8177   8179   8180   8182     1  0.0000000  0.6508444  3
   8177   8179   8186   8188     1  0.0000000  1.0460000  1
   8177   8179   8186   8188     1  0.0000000  0.6694400  3
   8178   8176   8177   8179     1  0.0000000  0.6508444  3
   8178   8176   8177   8197     1  0.0000000  1.0460000  1
   8178   8176   8177   8197     1  0.0000000  0.0000000  3
   8178   8176   8177   8196     1  0.0000000  0.6508444  3
   8178   8176   8187   8192     1  0.0000000  1.0460000  1
   8178   8176   8187   8192     1  0.0000000  0.0000000  3
   8178   8176   8187   8190     1  0.0000000  0.6508444  3
   8178   8176   8187   8191     1  0.0000000  0.6508444  3
   8178   8176   8194   8181     1  0.0000000  1.6038667  3
   8179   8177   8197   8198     1  0.0000000  1.0460000  1
   8179   8177   8197   8198     1  0.0000000  0.6694400  3
   8179   8180   8181   8184     1  0.0000000  0.6508444  3
   8179   8180   8199   8189     1  0.0000000  1.2552000  3
   8180   8179   8177   8196     1  0.0000000  0.6508444  3
   8180   8179   8186   8188     1  0.0000000  1.0460000  1
   8180   8179   8186   8188     1  0.0000000  0.6694400  3
   8180   8181   8185   8195     1  0.0000000  1.0460000  1
   8180   8181   8185   8195     1  0.0000000  0.6694400  3
   8181   8180   8179   8183     1  0.0000000  0.6508444  3
   8181   8180   8199   8189     1  0.0000000  1.2552000  3
   8182   8180   8179   8186     1  0.0000000  1.0460000  1
   8182   8180   8179   8186     1  0.0000000  0.0000000  3
   8182   8180   8179   8183     1  0.0000000  0.6508444  3
   8182   8180   8181   8185     1  0.0000000  1.0460000  1
   8182   8180   8181   8185     1  0.0000000  0.0000000  3
   8182   8180   8181   8194     1  0.0000000  1.0460000  1
   8182   8180   8181   8194     1  0.0000000  0.0000000  3
   8182   8180   8181   8184     1  0.0000000  0.6508444  3
   8182   8180   8199   8189     1  0.0000000  1.2552000  3
   8183   8179   8177   8197     1  0.0000000  1.0460000  1
   8183   8179   8177   8197     1  0.0000000  0.0000000  3
   8183   8179   8177   8196     1  0.0000000  0.6508444  3
   8183   8179   8180   8199     1  0.0000000  0.6508444  3
   8183   8179   8186   8188     1  0.0000000  0.6973333  3
   8184   8181   8180   8199     1  0.0000000  0.6508444  3
   8184   8181   8185   8195     1  0.0000000  0.6973333  3
   8186   8179   8177   8196     1  0.0000000  1.0460000  1
   8186   8179   8177   8196     1  0.0000000  0.0000000  3
   8187   8176   8177   8196     1  0.0000000  0.6508444  3
   8190   8187   8176   8194     1  0.0000000  1.0460000  1
   8190   8187   8176   8194     1  0.0000000  0.0000000  3
   8190   8187   8192   8193     1  0.0000000  0.6973333  3
   8191   8187   8176   8194     1  0.0000000  1.0460000  1
   8191   8187   8176   8194     1  0.0000000  0.0000000  3
   8191   8187   8192   8193     1  0.0000000  0.6973333  3
   8194   8176   8177   8196     1  0.0000000  1.0460000  1
   8194   8176   8177   8196     1  0.0000000  0.0000000  3
   8194   8181   8185   8195     1  0.0000000  0.6973333  3
   8196   8177   8197   8198     1  0.0000000  0.6973333  3
   8200   8201   8203   8207     1  0.0000000  0.6508444  3
   8200   8201   8221   8222     1  0.0000000  1.0460000  1
   8200   8201   8221   8222     1  0.0000000  0.6694400  3
   8200   8211   8216   8217     1  0.0000000  1.0460000  1
   8200   8211   8216   8217     1  0.0000000  0.6694400  3
   8200   8218   8205   8208     1  0.0000000  1.6038667  3
   8201   8200   8211   8214     1  0.0000000  0.6508444  3
   8201   8200   8211   8215     1  0.0000000  0.6508444  3
   8201   8203   8204   8206     1  0.0000000  0.6508444  3
   8201   8203   8210   8212     1  0.0000000  1.0460000  1
   8201   8203   8210   8212     1  0.0000000  0.6694400  3
   8202   8200   8201   8203     1  0.0000000  0.6508444  3
   8202   8200   8201   8221     1  0.0000000  1.0460000  1
   8202   8200   8201   8221     1  0.0000000  0.0000000  3
   8202   8200   8201   8220     1  0.0000000  0.6508444  3
   8202   8200   8211   8216     1  0.0000000  1.0460000  1
   8202   8200   8211   8216     1  0.0000000  0.0000000  3
   8202   8200   8211   8214     1  0.0000000  0.6508444  3
   8202   8200   8211   8215     1  0.0000000  0.6508444  3
   8202   8200   8218   8205     1  0.0000000  1.6038667  3
   8203   8201   8221   8222     1  0.0000000  1.0460000  1
   8203   8201   8221   8222     1  0.0000000  0.6694400  3
   8203   8204   8205   8208     1  0.0000000  0.6508444  3
   8203   8204   8223   8213     1  0.0000000  1.2552000  3
   8204   8203   8201   8220     1  0.0000000  0.6508444  3
   8204   8203   8210   8212     1  0.0000000  1.0460000  1
   8204   8203   8210   8212     1  0.0000000  0.6694400  3
   8204   8205   8209   8219     1  0.0000000  1.0460000  1
   8204   8205   8209   8219     1  0.0000000  0.6694400  3
   8205   8204   8203   8207     1  0.0000000  0.6508444  3
   8205   8204   8223   8213     1  0.0000000  1.2552000  3
   8206   8204   8203   8210     1  0.0000000  1.0460000  1
   8206   8204   8203   8210     1  0.0000000  0.0000000  3
   8206   8204   8203   8207     1  0.0000000  0.6508444  3
   8206   8204   8205   8209     1  0.0000000  1.0460000  1
   8206   8204   8205   8209     1  0.0000000  0.0000000  3
   8206   8204   8205   8218     1  0.0000000  1.0460000  1
   8206   8204   8205   8218     1  0.0000000  0.0000000  3
   8206   8204   8205   8208     1  0.0000000  0.6508444  3
   8206   8204   8223   8213     1  0.0000000  1.2552000  3
   8207   8203   8201   8221     1  0.0000000  1.0460000  1
   8207   8203   8201   8221     1  0.0000000  0.0000000  3
   8207   8203   8201   8220     1  0.0000000  0.6508444  3
   8207   8203   8204   8223     1  0.0000000  0.6508444  3
   8207   8203   8210   8212     1  0.0000000  0.6973333  3
   8208   8205   8204   8223     1  0.0000000  0.6508444  3
   8208   8205   8209   8219     1  0.0000000  0.6973333  3
   8210   8203   8201   8220     1  0.0000000  1.0460000  1
   8210   8203   8201   8220     1  0.0000000  0.0000000  3
   8211   8200   8201   8220     1  0.0000000  0.6508444  3
   8214   8211   8200   8218     1  0.0000000  1.0460000  1
   8214   8211   8200   8218     1  0.0000000  0.0000000  3
   8214   8211   8216   8217     1  0.0000000  0.6973333  3
   8215   8211   8200   8218     1  0.0000000  1.0460000  1
   8215   8211   8200   8218     1  0.0000000  0.0000000  3
   8215   8211   8216   8217     1  0.0000000  0.6973333  3
   8218   8200   8201   8220     1  0.0000000  1.0460000  1
   8218   8200   8201   8220     1  0.0000000  0.0000000  3
   8218   8205   8209   8219     1  0.0000000  0.6973333  3
   8220   8201   8221   8222     1  0.0000000  0.6973333  3
   8225   8227   8229   8231     1  0.0000000  0.6508444  3
   8225   8227   8229   8232     1  0.0000000  0.6508444  3
   8226   8225   8227   8229     1  0.0000000  0.0000000  2
   8226   8225   8227   8228     1  0.0000000  0.0000000  2
   8226   8225   8227   8230     1  0.0000000  0.0000000  2
   8227   8229   8233   8298     1  0.0000000  0.6508444  3
   8228   8227   8229   8233     1  0.0000000  0.6508444  3
   8228   8227   8229   8231     1  0.0000000  0.6508444  3
   8228   8227   8229   8232     1  0.0000000  0.6508444  3
   8229   8233   8234   8243     1  0.0000000  0.6508444  3
   8229   8233   8234   8244     1  0.0000000  0.6508444  3
   8229   8233   8235   8236     1  0.0000000  0.6508444  3
   8229   8233   8235   8238     1  0.0000000  0.6508444  3
   8230   8227   8229   8233     1  0.0000000  0.6508444  3
   8230   8227   8229   8231     1  0.0000000  0.6508444  3
   8230   8227   8229   8232     1  0.0000000  0.6508444  3
   8231   8229   8233   8234     1  0.0000000  0.6508444  3
   8231   8229   8233   8235     1  0.0000000  0.6508444  3
   8231   8229   8233   8298     1  0.0000000  0.6508444  3
   8232   8229   8233   8234     1  0.0000000  0.6508444  3
   8232   8229   8233   8235     1  0.0000000  0.6508444  3
   8232   8229   8233   8298     1  0.0000000  0.6508444  3
   8233   8234   8245   8246     1  0.0000000  0.6508444  3
   8233   8234   8245   8247     1  0.0000000  0.6508444  3
   8233   8235   8237   8239     1  0.0000000  0.6508444  3
   8233   8235   8237   8240     1  0.0000000  0.6508444  3
   8234   8233   8235   8236     1  0.0000000  0.6508444  3
   8234   8233   8235   8238     1  0.0000000  0.6508444  3
   8235   8233   8234   8243     1  0.0000000  0.6508444  3
   8235   8233   8234   8244     1  0.0000000  0.6508444  3
   8236   8235   8237   8241     1  0.0000000  0.6508444  3
   8236   8235   8237   8239     1  0.0000000  0.6508444  3
   8236   8235   8237   8240     1  0.0000000  0.6508444  3
   8236   8235   8233   8298     1  0.0000000  0.6508444  3
   8237   8241   8273   8263     1  180.0000771  6.0668000  2
   8237   8241   8273   8263     1  180.0000771  1.4644000  4
   8237   8235   8233   8298     1  0.0000000  0.6508444  3
   8238   8235   8237   8241     1  0.0000000  0.6508444  3
   8238   8235   8237   8239     1  0.0000000  0.6508444  3
   8238   8235   8237   8240     1  0.0000000  0.6508444  3
   8238   8235   8233   8298     1  0.0000000  0.6508444  3
   8239   8237   8241   8242     1  0.0000000  3.3472000  1
   8239   8237   8241   8242     1  0.0000000  0.0000000  2
   8239   8237   8241   8242     1  180.0000771  0.3347200  3
   8239   8237   8241   8273     1  180.0000771  0.0000000  2
   8240   8237   8241   8242     1  0.0000000  3.3472000  1
   8240   8237   8241   8242     1  0.0000000  0.0000000  2
   8240   8237   8241   8242     1  180.0000771  0.3347200  3
   8240   8237   8241   8273     1  180.0000771  0.0000000  2
   8241   8273   8254   8256     1  0.0000000  1.2552000  3
   8242   8241   8273   8263     1  180.0000771  6.0668000  2
   8242   8241   8273   8263     1  180.0000771  1.4644000  4
   8243   8234   8245   8248     1  0.0000000  0.6508444  3
   8243   8234   8245   8246     1  0.0000000  0.6508444  3
   8243   8234   8245   8247     1  0.0000000  0.6508444  3
   8243   8234   8233   8298     1  0.0000000  0.6508444  3
   8244   8234   8245   8248     1  0.0000000  0.6508444  3
   8244   8234   8245   8246     1  0.0000000  0.6508444  3
   8244   8234   8245   8247     1  0.0000000  0.6508444  3
   8244   8234   8233   8298     1  0.0000000  0.6508444  3
   8245   8248   8297   8287     1  180.0000771  6.0668000  2
   8245   8248   8297   8287     1  180.0000771  1.4644000  4
   8245   8234   8233   8298     1  0.0000000  0.6508444  3
   8246   8245   8248   8249     1  0.0000000  3.3472000  1
   8246   8245   8248   8249     1  0.0000000  0.0000000  2
   8246   8245   8248   8249     1  180.0000771  0.3347200  3
   8246   8245   8248   8297     1  180.0000771  0.0000000  2
   8247   8245   8248   8249     1  0.0000000  3.3472000  1
   8247   8245   8248   8249     1  0.0000000  0.0000000  2
   8247   8245   8248   8249     1  180.0000771  0.3347200  3
   8247   8245   8248   8297     1  180.0000771  0.0000000  2
   8248   8297   8278   8280     1  0.0000000  1.2552000  3
   8249   8248   8297   8287     1  180.0000771  6.0668000  2
   8249   8248   8297   8287     1  180.0000771  1.4644000  4
   8250   8251   8253   8257     1  0.0000000  0.6508444  3
   8250   8251   8271   8272     1  0.0000000  1.0460000  1
   8250   8251   8271   8272     1  0.0000000  0.6694400  3
   8250   8261   8266   8267     1  0.0000000  1.0460000  1
   8250   8261   8266   8267     1  0.0000000  0.6694400  3
   8250   8268   8255   8258     1  0.0000000  1.6038667  3
   8251   8253   8254   8256     1  0.0000000  0.6508444  3
   8251   8253   8260   8262     1  0.0000000  1.0460000  1
   8251   8253   8260   8262     1  0.0000000  0.6694400  3
   8251   8250   8261   8264     1  0.0000000  0.6508444  3
   8251   8250   8261   8265     1  0.0000000  0.6508444  3
   8252   8250   8251   8253     1  0.0000000  0.6508444  3
   8252   8250   8251   8271     1  0.0000000  1.0460000  1
   8252   8250   8251   8271     1  0.0000000  0.0000000  3
   8252   8250   8251   8270     1  0.0000000  0.6508444  3
   8252   8250   8261   8266     1  0.0000000  1.0460000  1
   8252   8250   8261   8266     1  0.0000000  0.0000000  3
   8252   8250   8261   8264     1  0.0000000  0.6508444  3
   8252   8250   8261   8265     1  0.0000000  0.6508444  3
   8252   8250   8268   8255     1  0.0000000  1.6038667  3
   8253   8254   8255   8258     1  0.0000000  0.6508444  3
   8253   8254   8273   8263     1  0.0000000  1.2552000  3
   8253   8251   8271   8272     1  0.0000000  1.0460000  1
   8253   8251   8271   8272     1  0.0000000  0.6694400  3
   8254   8255   8259   8269     1  0.0000000  1.0460000  1
   8254   8255   8259   8269     1  0.0000000  0.6694400  3
   8254   8253   8260   8262     1  0.0000000  1.0460000  1
   8254   8253   8260   8262     1  0.0000000  0.6694400  3
   8254   8253   8251   8270     1  0.0000000  0.6508444  3
   8255   8254   8273   8263     1  0.0000000  1.2552000  3
   8255   8254   8253   8257     1  0.0000000  0.6508444  3
   8256   8254   8255   8259     1  0.0000000  1.0460000  1
   8256   8254   8255   8259     1  0.0000000  0.0000000  3
   8256   8254   8255   8268     1  0.0000000  1.0460000  1
   8256   8254   8255   8268     1  0.0000000  0.0000000  3
   8256   8254   8255   8258     1  0.0000000  0.6508444  3
   8256   8254   8273   8263     1  0.0000000  1.2552000  3
   8256   8254   8253   8260     1  0.0000000  1.0460000  1
   8256   8254   8253   8260     1  0.0000000  0.0000000  3
   8256   8254   8253   8257     1  0.0000000  0.6508444  3
   8257   8253   8254   8273     1  0.0000000  0.6508444  3
   8257   8253   8260   8262     1  0.0000000  0.6973333  3
   8257   8253   8251   8271     1  0.0000000  1.0460000  1
   8257   8253   8251   8271     1  0.0000000  0.0000000  3
   8257   8253   8251   8270     1  0.0000000  0.6508444  3
   8258   8255   8259   8269     1  0.0000000  0.6973333  3
   8258   8255   8254   8273     1  0.0000000  0.6508444  3
   8260   8253   8251   8270     1  0.0000000  1.0460000  1
   8260   8253   8251   8270     1  0.0000000  0.0000000  3
   8261   8250   8251   8270     1  0.0000000  0.6508444  3
   8264   8261   8266   8267     1  0.0000000  0.6973333  3
   8264   8261   8250   8268     1  0.0000000  1.0460000  1
   8264   8261   8250   8268     1  0.0000000  0.0000000  3
   8265   8261   8266   8267     1  0.0000000  0.6973333  3
   8265   8261   8250   8268     1  0.0000000  1.0460000  1
   8265   8261   8250   8268     1  0.0000000  0.0000000  3
   8268   8255   8259   8269     1  0.0000000  0.6973333  3
   8268   8250   8251   8270     1  0.0000000  1.0460000  1
   8268   8250   8251   8270     1  0.0000000  0.0000000  3
   8270   8251   8271   8272     1  0.0000000  0.6973333  3
   8274   8275   8277   8281     1  0.0000000  0.6508444  3
   8274   8275   8295   8296     1  0.0000000  1.0460000  1
   8274   8275   8295   8296     1  0.0000000  0.6694400  3
   8274   8285   8290   8291     1  0.0000000  1.0460000  1
   8274   8285   8290   8291     1  0.0000000  0.6694400  3
   8274   8292   8279   8282     1  0.0000000  1.6038667  3
   8275   8277   8278   8280     1  0.0000000  0.6508444  3
   8275   8277   8284   8286     1  0.0000000  1.0460000  1
   8275   8277   8284   8286     1  0.0000000  0.6694400  3
   8275   8274   8285   8288     1  0.0000000  0.6508444  3
   8275   8274   8285   8289     1  0.0000000  0.6508444  3
   8276   8274   8275   8277     1  0.0000000  0.6508444  3
   8276   8274   8275   8295     1  0.0000000  1.0460000  1
   8276   8274   8275   8295     1  0.0000000  0.0000000  3
   8276   8274   8275   8294     1  0.0000000  0.6508444  3
   8276   8274   8285   8290     1  0.0000000  1.0460000  1
   8276   8274   8285   8290     1  0.0000000  0.0000000  3
   8276   8274   8285   8288     1  0.0000000  0.6508444  3
   8276   8274   8285   8289     1  0.0000000  0.6508444  3
   8276   8274   8292   8279     1  0.0000000  1.6038667  3
   8277   8278   8279   8282     1  0.0000000  0.6508444  3
   8277   8278   8297   8287     1  0.0000000  1.2552000  3
   8277   8275   8295   8296     1  0.0000000  1.0460000  1
   8277   8275   8295   8296     1  0.0000000  0.6694400  3
   8278   8279   8283   8293     1  0.0000000  1.0460000  1
   8278   8279   8283   8293     1  0.0000000  0.6694400  3
   8278   8277   8284   8286     1  0.0000000  1.0460000  1
   8278   8277   8284   8286     1  0.0000000  0.6694400  3
   8278   8277   8275   8294     1  0.0000000  0.6508444  3
   8279   8278   8297   8287     1  0.0000000  1.2552000  3
   8279   8278   8277   8281     1  0.0000000  0.6508444  3
   8280   8278   8279   8283     1  0.0000000  1.0460000  1
   8280   8278   8279   8283     1  0.0000000  0.0000000  3
   8280   8278   8279   8292     1  0.0000000  1.0460000  1
   8280   8278   8279   8292     1  0.0000000  0.0000000  3
   8280   8278   8279   8282     1  0.0000000  0.6508444  3
   8280   8278   8297   8287     1  0.0000000  1.2552000  3
   8280   8278   8277   8284     1  0.0000000  1.0460000  1
   8280   8278   8277   8284     1  0.0000000  0.0000000  3
   8280   8278   8277   8281     1  0.0000000  0.6508444  3
   8281   8277   8278   8297     1  0.0000000  0.6508444  3
   8281   8277   8284   8286     1  0.0000000  0.6973333  3
   8281   8277   8275   8295     1  0.0000000  1.0460000  1
   8281   8277   8275   8295     1  0.0000000  0.0000000  3
   8281   8277   8275   8294     1  0.0000000  0.6508444  3
   8282   8279   8283   8293     1  0.0000000  0.6973333  3
   8282   8279   8278   8297     1  0.0000000  0.6508444  3
   8284   8277   8275   8294     1  0.0000000  1.0460000  1
   8284   8277   8275   8294     1  0.0000000  0.0000000  3
   8285   8274   8275   8294     1  0.0000000  0.6508444  3
   8288   8285   8290   8291     1  0.0000000  0.6973333  3
   8288   8285   8274   8292     1  0.0000000  1.0460000  1
   8288   8285   8274   8292     1  0.0000000  0.0000000  3
   8289   8285   8290   8291     1  0.0000000  0.6973333  3
   8289   8285   8274   8292     1  0.0000000  1.0460000  1
   8289   8285   8274   8292     1  0.0000000  0.0000000  3
   8292   8279   8283   8293     1  0.0000000  0.6973333  3
   8292   8274   8275   8294     1  0.0000000  1.0460000  1
   8292   8274   8275   8294     1  0.0000000  0.0000000  3
   8294   8275   8295   8296     1  0.0000000  0.6973333  3
   8299   8301   8303   8305     1  0.0000000  0.6508444  3
   8299   8301   8303   8306     1  0.0000000  0.6508444  3
   8300   8299   8301   8303     1  0.0000000  0.0000000  2
   8300   8299   8301   8302     1  0.0000000  0.0000000  2
   8300   8299   8301   8304     1  0.0000000  0.0000000  2
   8301   8303   8307   8372     1  0.0000000  0.6508444  3
   8302   8301   8303   8307     1  0.0000000  0.6508444  3
   8302   8301   8303   8305     1  0.0000000  0.6508444  3
   8302   8301   8303   8306     1  0.0000000  0.6508444  3
   8303   8307   8308   8317     1  0.0000000  0.6508444  3
   8303   8307   8308   8318     1  0.0000000  0.6508444  3
   8303   8307   8309   8310     1  0.0000000  0.6508444  3
   8303   8307   8309   8312     1  0.0000000  0.6508444  3
   8304   8301   8303   8307     1  0.0000000  0.6508444  3
   8304   8301   8303   8305     1  0.0000000  0.6508444  3
   8304   8301   8303   8306     1  0.0000000  0.6508444  3
   8305   8303   8307   8308     1  0.0000000  0.6508444  3
   8305   8303   8307   8309     1  0.0000000  0.6508444  3
   8305   8303   8307   8372     1  0.0000000  0.6508444  3
   8306   8303   8307   8308     1  0.0000000  0.6508444  3
   8306   8303   8307   8309     1  0.0000000  0.6508444  3
   8306   8303   8307   8372     1  0.0000000  0.6508444  3
   8307   8308   8319   8320     1  0.0000000  0.6508444  3
   8307   8308   8319   8321     1  0.0000000  0.6508444  3
   8307   8309   8311   8313     1  0.0000000  0.6508444  3
   8307   8309   8311   8314     1  0.0000000  0.6508444  3
   8308   8307   8309   8310     1  0.0000000  0.6508444  3
   8308   8307   8309   8312     1  0.0000000  0.6508444  3
   8309   8307   8308   8317     1  0.0000000  0.6508444  3
   8309   8307   8308   8318     1  0.0000000  0.6508444  3
   8310   8309   8307   8372     1  0.0000000  0.6508444  3
   8310   8309   8311   8315     1  0.0000000  0.6508444  3
   8310   8309   8311   8313     1  0.0000000  0.6508444  3
   8310   8309   8311   8314     1  0.0000000  0.6508444  3
   8311   8309   8307   8372     1  0.0000000  0.6508444  3
   8311   8315   8347   8337     1  180.0000771  6.0668000  2
   8311   8315   8347   8337     1  180.0000771  1.4644000  4
   8312   8309   8307   8372     1  0.0000000  0.6508444  3
   8312   8309   8311   8315     1  0.0000000  0.6508444  3
   8312   8309   8311   8313     1  0.0000000  0.6508444  3
   8312   8309   8311   8314     1  0.0000000  0.6508444  3
   8313   8311   8315   8316     1  0.0000000  3.3472000  1
   8313   8311   8315   8316     1  0.0000000  0.0000000  2
   8313   8311   8315   8316     1  180.0000771  0.3347200  3
   8313   8311   8315   8347     1  180.0000771  0.0000000  2
   8314   8311   8315   8316     1  0.0000000  3.3472000  1
   8314   8311   8315   8316     1  0.0000000  0.0000000  2
   8314   8311   8315   8316     1  180.0000771  0.3347200  3
   8314   8311   8315   8347     1  180.0000771  0.0000000  2
   8315   8347   8328   8330     1  0.0000000  1.2552000  3
   8316   8315   8347   8337     1  180.0000771  6.0668000  2
   8316   8315   8347   8337     1  180.0000771  1.4644000  4
   8317   8308   8307   8372     1  0.0000000  0.6508444  3
   8317   8308   8319   8322     1  0.0000000  0.6508444  3
   8317   8308   8319   8320     1  0.0000000  0.6508444  3
   8317   8308   8319   8321     1  0.0000000  0.6508444  3
   8318   8308   8307   8372     1  0.0000000  0.6508444  3
   8318   8308   8319   8322     1  0.0000000  0.6508444  3
   8318   8308   8319   8320     1  0.0000000  0.6508444  3
   8318   8308   8319   8321     1  0.0000000  0.6508444  3
   8319   8308   8307   8372     1  0.0000000  0.6508444  3
   8319   8322   8371   8361     1  180.0000771  6.0668000  2
   8319   8322   8371   8361     1  180.0000771  1.4644000  4
   8320   8319   8322   8323     1  0.0000000  3.3472000  1
   8320   8319   8322   8323     1  0.0000000  0.0000000  2
   8320   8319   8322   8323     1  180.0000771  0.3347200  3
   8320   8319   8322   8371     1  180.0000771  0.0000000  2
   8321   8319   8322   8323     1  0.0000000  3.3472000  1
   8321   8319   8322   8323     1  0.0000000  0.0000000  2
   8321   8319   8322   8323     1  180.0000771  0.3347200  3
   8321   8319   8322   8371     1  180.0000771  0.0000000  2
   8322   8371   8352   8354     1  0.0000000  1.2552000  3
   8323   8322   8371   8361     1  180.0000771  6.0668000  2
   8323   8322   8371   8361     1  180.0000771  1.4644000  4
   8324   8325   8327   8331     1  0.0000000  0.6508444  3
   8324   8325   8345   8346     1  0.0000000  1.0460000  1
   8324   8325   8345   8346     1  0.0000000  0.6694400  3
   8324   8335   8340   8341     1  0.0000000  1.0460000  1
   8324   8335   8340   8341     1  0.0000000  0.6694400  3
   8324   8342   8329   8332     1  0.0000000  1.6038667  3
   8325   8324   8335   8338     1  0.0000000  0.6508444  3
   8325   8324   8335   8339     1  0.0000000  0.6508444  3
   8325   8327   8328   8330     1  0.0000000  0.6508444  3
   8325   8327   8334   8336     1  0.0000000  1.0460000  1
   8325   8327   8334   8336     1  0.0000000  0.6694400  3
   8326   8324   8325   8327     1  0.0000000  0.6508444  3
   8326   8324   8325   8345     1  0.0000000  1.0460000  1
   8326   8324   8325   8345     1  0.0000000  0.0000000  3
   8326   8324   8325   8344     1  0.0000000  0.6508444  3
   8326   8324   8335   8340     1  0.0000000  1.0460000  1
   8326   8324   8335   8340     1  0.0000000  0.0000000  3
   8326   8324   8335   8338     1  0.0000000  0.6508444  3
   8326   8324   8335   8339     1  0.0000000  0.6508444  3
   8326   8324   8342   8329     1  0.0000000  1.6038667  3
   8327   8325   8345   8346     1  0.0000000  1.0460000  1
   8327   8325   8345   8346     1  0.0000000  0.6694400  3
   8327   8328   8329   8332     1  0.0000000  0.6508444  3
   8327   8328   8347   8337     1  0.0000000  1.2552000  3
   8328   8327   8325   8344     1  0.0000000  0.6508444  3
   8328   8327   8334   8336     1  0.0000000  1.0460000  1
   8328   8327   8334   8336     1  0.0000000  0.6694400  3
   8328   8329   8333   8343     1  0.0000000  1.0460000  1
   8328   8329   8333   8343     1  0.0000000  0.6694400  3
   8329   8328   8327   8331     1  0.0000000  0.6508444  3
   8329   8328   8347   8337     1  0.0000000  1.2552000  3
   8330   8328   8327   8334     1  0.0000000  1.0460000  1
   8330   8328   8327   8334     1  0.0000000  0.0000000  3
   8330   8328   8327   8331     1  0.0000000  0.6508444  3
   8330   8328   8329   8333     1  0.0000000  1.0460000  1
   8330   8328   8329   8333     1  0.0000000  0.0000000  3
   8330   8328   8329   8342     1  0.0000000  1.0460000  1
   8330   8328   8329   8342     1  0.0000000  0.0000000  3
   8330   8328   8329   8332     1  0.0000000  0.6508444  3
   8330   8328   8347   8337     1  0.0000000  1.2552000  3
   8331   8327   8325   8345     1  0.0000000  1.0460000  1
   8331   8327   8325   8345     1  0.0000000  0.0000000  3
   8331   8327   8325   8344     1  0.0000000  0.6508444  3
   8331   8327   8328   8347     1  0.0000000  0.6508444  3
   8331   8327   8334   8336     1  0.0000000  0.6973333  3
   8332   8329   8328   8347     1  0.0000000  0.6508444  3
   8332   8329   8333   8343     1  0.0000000  0.6973333  3
   8334   8327   8325   8344     1  0.0000000  1.0460000  1
   8334   8327   8325   8344     1  0.0000000  0.0000000  3
   8335   8324   8325   8344     1  0.0000000  0.6508444  3
   8338   8335   8324   8342     1  0.0000000  1.0460000  1
   8338   8335   8324   8342     1  0.0000000  0.0000000  3
   8338   8335   8340   8341     1  0.0000000  0.6973333  3
   8339   8335   8324   8342     1  0.0000000  1.0460000  1
   8339   8335   8324   8342     1  0.0000000  0.0000000  3
   8339   8335   8340   8341     1  0.0000000  0.6973333  3
   8342   8324   8325   8344     1  0.0000000  1.0460000  1
   8342   8324   8325   8344     1  0.0000000  0.0000000  3
   8342   8329   8333   8343     1  0.0000000  0.6973333  3
   8344   8325   8345   8346     1  0.0000000  0.6973333  3
   8348   8349   8351   8355     1  0.0000000  0.6508444  3
   8348   8349   8369   8370     1  0.0000000  1.0460000  1
   8348   8349   8369   8370     1  0.0000000  0.6694400  3
   8348   8359   8364   8365     1  0.0000000  1.0460000  1
   8348   8359   8364   8365     1  0.0000000  0.6694400  3
   8348   8366   8353   8356     1  0.0000000  1.6038667  3
   8349   8348   8359   8362     1  0.0000000  0.6508444  3
   8349   8348   8359   8363     1  0.0000000  0.6508444  3
   8349   8351   8352   8354     1  0.0000000  0.6508444  3
   8349   8351   8358   8360     1  0.0000000  1.0460000  1
   8349   8351   8358   8360     1  0.0000000  0.6694400  3
   8350   8348   8349   8351     1  0.0000000  0.6508444  3
   8350   8348   8349   8369     1  0.0000000  1.0460000  1
   8350   8348   8349   8369     1  0.0000000  0.0000000  3
   8350   8348   8349   8368     1  0.0000000  0.6508444  3
   8350   8348   8359   8364     1  0.0000000  1.0460000  1
   8350   8348   8359   8364     1  0.0000000  0.0000000  3
   8350   8348   8359   8362     1  0.0000000  0.6508444  3
   8350   8348   8359   8363     1  0.0000000  0.6508444  3
   8350   8348   8366   8353     1  0.0000000  1.6038667  3
   8351   8349   8369   8370     1  0.0000000  1.0460000  1
   8351   8349   8369   8370     1  0.0000000  0.6694400  3
   8351   8352   8353   8356     1  0.0000000  0.6508444  3
   8351   8352   8371   8361     1  0.0000000  1.2552000  3
   8352   8351   8349   8368     1  0.0000000  0.6508444  3
   8352   8351   8358   8360     1  0.0000000  1.0460000  1
   8352   8351   8358   8360     1  0.0000000  0.6694400  3
   8352   8353   8357   8367     1  0.0000000  1.0460000  1
   8352   8353   8357   8367     1  0.0000000  0.6694400  3
   8353   8352   8351   8355     1  0.0000000  0.6508444  3
   8353   8352   8371   8361     1  0.0000000  1.2552000  3
   8354   8352   8351   8358     1  0.0000000  1.0460000  1
   8354   8352   8351   8358     1  0.0000000  0.0000000  3
   8354   8352   8351   8355     1  0.0000000  0.6508444  3
   8354   8352   8353   8357     1  0.0000000  1.0460000  1
   8354   8352   8353   8357     1  0.0000000  0.0000000  3
   8354   8352   8353   8366     1  0.0000000  1.0460000  1
   8354   8352   8353   8366     1  0.0000000  0.0000000  3
   8354   8352   8353   8356     1  0.0000000  0.6508444  3
   8354   8352   8371   8361     1  0.0000000  1.2552000  3
   8355   8351   8349   8369     1  0.0000000  1.0460000  1
   8355   8351   8349   8369     1  0.0000000  0.0000000  3
   8355   8351   8349   8368     1  0.0000000  0.6508444  3
   8355   8351   8352   8371     1  0.0000000  0.6508444  3
   8355   8351   8358   8360     1  0.0000000  0.6973333  3
   8356   8353   8352   8371     1  0.0000000  0.6508444  3
   8356   8353   8357   8367     1  0.0000000  0.6973333  3
   8358   8351   8349   8368     1  0.0000000  1.0460000  1
   8358   8351   8349   8368     1  0.0000000  0.0000000  3
   8359   8348   8349   8368     1  0.0000000  0.6508444  3
   8362   8359   8348   8366     1  0.0000000  1.0460000  1
   8362   8359   8348   8366     1  0.0000000  0.0000000  3
   8362   8359   8364   8365     1  0.0000000  0.6973333  3
   8363   8359   8348   8366     1  0.0000000  1.0460000  1
   8363   8359   8348   8366     1  0.0000000  0.0000000  3
   8363   8359   8364   8365     1  0.0000000  0.6973333  3
   8366   8348   8349   8368     1  0.0000000  1.0460000  1
   8366   8348   8349   8368     1  0.0000000  0.0000000  3
   8366   8353   8357   8367     1  0.0000000  0.6973333  3
   8368   8349   8369   8370     1  0.0000000  0.6973333  3
   8373   8375   8377   8379     1  0.0000000  0.6508444  3
   8373   8375   8377   8380     1  0.0000000  0.6508444  3
   8374   8373   8375   8377     1  0.0000000  0.0000000  2
   8374   8373   8375   8376     1  0.0000000  0.0000000  2
   8374   8373   8375   8378     1  0.0000000  0.0000000  2
   8375   8377   8381   8446     1  0.0000000  0.6508444  3
   8376   8375   8377   8381     1  0.0000000  0.6508444  3
   8376   8375   8377   8379     1  0.0000000  0.6508444  3
   8376   8375   8377   8380     1  0.0000000  0.6508444  3
   8377   8381   8382   8391     1  0.0000000  0.6508444  3
   8377   8381   8382   8392     1  0.0000000  0.6508444  3
   8377   8381   8383   8384     1  0.0000000  0.6508444  3
   8377   8381   8383   8386     1  0.0000000  0.6508444  3
   8378   8375   8377   8381     1  0.0000000  0.6508444  3
   8378   8375   8377   8379     1  0.0000000  0.6508444  3
   8378   8375   8377   8380     1  0.0000000  0.6508444  3
   8379   8377   8381   8382     1  0.0000000  0.6508444  3
   8379   8377   8381   8383     1  0.0000000  0.6508444  3
   8379   8377   8381   8446     1  0.0000000  0.6508444  3
   8380   8377   8381   8382     1  0.0000000  0.6508444  3
   8380   8377   8381   8383     1  0.0000000  0.6508444  3
   8380   8377   8381   8446     1  0.0000000  0.6508444  3
   8381   8382   8393   8394     1  0.0000000  0.6508444  3
   8381   8382   8393   8395     1  0.0000000  0.6508444  3
   8381   8383   8385   8387     1  0.0000000  0.6508444  3
   8381   8383   8385   8388     1  0.0000000  0.6508444  3
   8382   8381   8383   8384     1  0.0000000  0.6508444  3
   8382   8381   8383   8386     1  0.0000000  0.6508444  3
   8383   8381   8382   8391     1  0.0000000  0.6508444  3
   8383   8381   8382   8392     1  0.0000000  0.6508444  3
   8384   8383   8385   8389     1  0.0000000  0.6508444  3
   8384   8383   8385   8387     1  0.0000000  0.6508444  3
   8384   8383   8385   8388     1  0.0000000  0.6508444  3
   8384   8383   8381   8446     1  0.0000000  0.6508444  3
   8385   8389   8421   8411     1  180.0000771  6.0668000  2
   8385   8389   8421   8411     1  180.0000771  1.4644000  4
   8385   8383   8381   8446     1  0.0000000  0.6508444  3
   8386   8383   8385   8389     1  0.0000000  0.6508444  3
   8386   8383   8385   8387     1  0.0000000  0.6508444  3
   8386   8383   8385   8388     1  0.0000000  0.6508444  3
   8386   8383   8381   8446     1  0.0000000  0.6508444  3
   8387   8385   8389   8390     1  0.0000000  3.3472000  1
   8387   8385   8389   8390     1  0.0000000  0.0000000  2
   8387   8385   8389   8390     1  180.0000771  0.3347200  3
   8387   8385   8389   8421     1  180.0000771  0.0000000  2
   8388   8385   8389   8390     1  0.0000000  3.3472000  1
   8388   8385   8389   8390     1  0.0000000  0.0000000  2
   8388   8385   8389   8390     1  180.0000771  0.3347200  3
   8388   8385   8389   8421     1  180.0000771  0.0000000  2
   8389   8421   8402   8404     1  0.0000000  1.2552000  3
   8390   8389   8421   8411     1  180.0000771  6.0668000  2
   8390   8389   8421   8411     1  180.0000771  1.4644000  4
   8391   8382   8393   8396     1  0.0000000  0.6508444  3
   8391   8382   8393   8394     1  0.0000000  0.6508444  3
   8391   8382   8393   8395     1  0.0000000  0.6508444  3
   8391   8382   8381   8446     1  0.0000000  0.6508444  3
   8392   8382   8393   8396     1  0.0000000  0.6508444  3
   8392   8382   8393   8394     1  0.0000000  0.6508444  3
   8392   8382   8393   8395     1  0.0000000  0.6508444  3
   8392   8382   8381   8446     1  0.0000000  0.6508444  3
   8393   8396   8445   8435     1  180.0000771  6.0668000  2
   8393   8396   8445   8435     1  180.0000771  1.4644000  4
   8393   8382   8381   8446     1  0.0000000  0.6508444  3
   8394   8393   8396   8397     1  0.0000000  3.3472000  1
   8394   8393   8396   8397     1  0.0000000  0.0000000  2
   8394   8393   8396   8397     1  180.0000771  0.3347200  3
   8394   8393   8396   8445     1  180.0000771  0.0000000  2
   8395   8393   8396   8397     1  0.0000000  3.3472000  1
   8395   8393   8396   8397     1  0.0000000  0.0000000  2
   8395   8393   8396   8397     1  180.0000771  0.3347200  3
   8395   8393   8396   8445     1  180.0000771  0.0000000  2
   8396   8445   8426   8428     1  0.0000000  1.2552000  3
   8397   8396   8445   8435     1  180.0000771  6.0668000  2
   8397   8396   8445   8435     1  180.0000771  1.4644000  4
   8398   8399   8401   8405     1  0.0000000  0.6508444  3
   8398   8399   8419   8420     1  0.0000000  1.0460000  1
   8398   8399   8419   8420     1  0.0000000  0.6694400  3
   8398   8409   8414   8415     1  0.0000000  1.0460000  1
   8398   8409   8414   8415     1  0.0000000  0.6694400  3
   8398   8416   8403   8406     1  0.0000000  1.6038667  3
   8399   8401   8402   8404     1  0.0000000  0.6508444  3
   8399   8401   8408   8410     1  0.0000000  1.0460000  1
   8399   8401   8408   8410     1  0.0000000  0.6694400  3
   8399   8398   8409   8412     1  0.0000000  0.6508444  3
   8399   8398   8409   8413     1  0.0000000  0.6508444  3
   8400   8398   8399   8401     1  0.0000000  0.6508444  3
   8400   8398   8399   8419     1  0.0000000  1.0460000  1
   8400   8398   8399   8419     1  0.0000000  0.0000000  3
   8400   8398   8399   8418     1  0.0000000  0.6508444  3
   8400   8398   8409   8414     1  0.0000000  1.0460000  1
   8400   8398   8409   8414     1  0.0000000  0.0000000  3
   8400   8398   8409   8412     1  0.0000000  0.6508444  3
   8400   8398   8409   8413     1  0.0000000  0.6508444  3
   8400   8398   8416   8403     1  0.0000000  1.6038667  3
   8401   8402   8403   8406     1  0.0000000  0.6508444  3
   8401   8402   8421   8411     1  0.0000000  1.2552000  3
   8401   8399   8419   8420     1  0.0000000  1.0460000  1
   8401   8399   8419   8420     1  0.0000000  0.6694400  3
   8402   8403   8407   8417     1  0.0000000  1.0460000  1
   8402   8403   8407   8417     1  0.0000000  0.6694400  3
   8402   8401   8408   8410     1  0.0000000  1.0460000  1
   8402   8401   8408   8410     1  0.0000000  0.6694400  3
   8402   8401   8399   8418     1  0.0000000  0.6508444  3
   8403   8402   8421   8411     1  0.0000000  1.2552000  3
   8403   8402   8401   8405     1  0.0000000  0.6508444  3
   8404   8402   8403   8407     1  0.0000000  1.0460000  1
   8404   8402   8403   8407     1  0.0000000  0.0000000  3
   8404   8402   8403   8416     1  0.0000000  1.0460000  1
   8404   8402   8403   8416     1  0.0000000  0.0000000  3
   8404   8402   8403   8406     1  0.0000000  0.6508444  3
   8404   8402   8421   8411     1  0.0000000  1.2552000  3
   8404   8402   8401   8408     1  0.0000000  1.0460000  1
   8404   8402   8401   8408     1  0.0000000  0.0000000  3
   8404   8402   8401   8405     1  0.0000000  0.6508444  3
   8405   8401   8402   8421     1  0.0000000  0.6508444  3
   8405   8401   8408   8410     1  0.0000000  0.6973333  3
   8405   8401   8399   8419     1  0.0000000  1.0460000  1
   8405   8401   8399   8419     1  0.0000000  0.0000000  3
   8405   8401   8399   8418     1  0.0000000  0.6508444  3
   8406   8403   8407   8417     1  0.0000000  0.6973333  3
   8406   8403   8402   8421     1  0.0000000  0.6508444  3
   8408   8401   8399   8418     1  0.0000000  1.0460000  1
   8408   8401   8399   8418     1  0.0000000  0.0000000  3
   8409   8398   8399   8418     1  0.0000000  0.6508444  3
   8412   8409   8414   8415     1  0.0000000  0.6973333  3
   8412   8409   8398   8416     1  0.0000000  1.0460000  1
   8412   8409   8398   8416     1  0.0000000  0.0000000  3
   8413   8409   8414   8415     1  0.0000000  0.6973333  3
   8413   8409   8398   8416     1  0.0000000  1.0460000  1
   8413   8409   8398   8416     1  0.0000000  0.0000000  3
   8416   8403   8407   8417     1  0.0000000  0.6973333  3
   8416   8398   8399   8418     1  0.0000000  1.0460000  1
   8416   8398   8399   8418     1  0.0000000  0.0000000  3
   8418   8399   8419   8420     1  0.0000000  0.6973333  3
   8422   8423   8425   8429     1  0.0000000  0.6508444  3
   8422   8423   8443   8444     1  0.0000000  1.0460000  1
   8422   8423   8443   8444     1  0.0000000  0.6694400  3
   8422   8433   8438   8439     1  0.0000000  1.0460000  1
   8422   8433   8438   8439     1  0.0000000  0.6694400  3
   8422   8440   8427   8430     1  0.0000000  1.6038667  3
   8423   8425   8426   8428     1  0.0000000  0.6508444  3
   8423   8425   8432   8434     1  0.0000000  1.0460000  1
   8423   8425   8432   8434     1  0.0000000  0.6694400  3
   8423   8422   8433   8436     1  0.0000000  0.6508444  3
   8423   8422   8433   8437     1  0.0000000  0.6508444  3
   8424   8422   8423   8425     1  0.0000000  0.6508444  3
   8424   8422   8423   8443     1  0.0000000  1.0460000  1
   8424   8422   8423   8443     1  0.0000000  0.0000000  3
   8424   8422   8423   8442     1  0.0000000  0.6508444  3
   8424   8422   8433   8438     1  0.0000000  1.0460000  1
   8424   8422   8433   8438     1  0.0000000  0.0000000  3
   8424   8422   8433   8436     1  0.0000000  0.6508444  3
   8424   8422   8433   8437     1  0.0000000  0.6508444  3
   8424   8422   8440   8427     1  0.0000000  1.6038667  3
   8425   8426   8427   8430     1  0.0000000  0.6508444  3
   8425   8426   8445   8435     1  0.0000000  1.2552000  3
   8425   8423   8443   8444     1  0.0000000  1.0460000  1
   8425   8423   8443   8444     1  0.0000000  0.6694400  3
   8426   8427   8431   8441     1  0.0000000  1.0460000  1
   8426   8427   8431   8441     1  0.0000000  0.6694400  3
   8426   8425   8432   8434     1  0.0000000  1.0460000  1
   8426   8425   8432   8434     1  0.0000000  0.6694400  3
   8426   8425   8423   8442     1  0.0000000  0.6508444  3
   8427   8426   8445   8435     1  0.0000000  1.2552000  3
   8427   8426   8425   8429     1  0.0000000  0.6508444  3
   8428   8426   8427   8431     1  0.0000000  1.0460000  1
   8428   8426   8427   8431     1  0.0000000  0.0000000  3
   8428   8426   8427   8440     1  0.0000000  1.0460000  1
   8428   8426   8427   8440     1  0.0000000  0.0000000  3
   8428   8426   8427   8430     1  0.0000000  0.6508444  3
   8428   8426   8445   8435     1  0.0000000  1.2552000  3
   8428   8426   8425   8432     1  0.0000000  1.0460000  1
   8428   8426   8425   8432     1  0.0000000  0.0000000  3
   8428   8426   8425   8429     1  0.0000000  0.6508444  3
   8429   8425   8426   8445     1  0.0000000  0.6508444  3
   8429   8425   8432   8434     1  0.0000000  0.6973333  3
   8429   8425   8423   8443     1  0.0000000  1.0460000  1
   8429   8425   8423   8443     1  0.0000000  0.0000000  3
   8429   8425   8423   8442     1  0.0000000  0.6508444  3
   8430   8427   8431   8441     1  0.0000000  0.6973333  3
   8430   8427   8426   8445     1  0.0000000  0.6508444  3
   8432   8425   8423   8442     1  0.0000000  1.0460000  1
   8432   8425   8423   8442     1  0.0000000  0.0000000  3
   8433   8422   8423   8442     1  0.0000000  0.6508444  3
   8436   8433   8438   8439     1  0.0000000  0.6973333  3
   8436   8433   8422   8440     1  0.0000000  1.0460000  1
   8436   8433   8422   8440     1  0.0000000  0.0000000  3
   8437   8433   8438   8439     1  0.0000000  0.6973333  3
   8437   8433   8422   8440     1  0.0000000  1.0460000  1
   8437   8433   8422   8440     1  0.0000000  0.0000000  3
   8440   8427   8431   8441     1  0.0000000  0.6973333  3
   8440   8422   8423   8442     1  0.0000000  1.0460000  1
   8440   8422   8423   8442     1  0.0000000  0.0000000  3
   8442   8423   8443   8444     1  0.0000000  0.6973333  3
   8447   8449   8451   8453     1  0.0000000  0.6508444  3
   8447   8449   8451   8454     1  0.0000000  0.6508444  3
   8448   8447   8449   8451     1  0.0000000  0.0000000  2
   8448   8447   8449   8450     1  0.0000000  0.0000000  2
   8448   8447   8449   8452     1  0.0000000  0.0000000  2
   8449   8451   8455   8520     1  0.0000000  0.6508444  3
   8450   8449   8451   8455     1  0.0000000  0.6508444  3
   8450   8449   8451   8453     1  0.0000000  0.6508444  3
   8450   8449   8451   8454     1  0.0000000  0.6508444  3
   8451   8455   8456   8465     1  0.0000000  0.6508444  3
   8451   8455   8456   8466     1  0.0000000  0.6508444  3
   8451   8455   8457   8458     1  0.0000000  0.6508444  3
   8451   8455   8457   8460     1  0.0000000  0.6508444  3
   8452   8449   8451   8455     1  0.0000000  0.6508444  3
   8452   8449   8451   8453     1  0.0000000  0.6508444  3
   8452   8449   8451   8454     1  0.0000000  0.6508444  3
   8453   8451   8455   8456     1  0.0000000  0.6508444  3
   8453   8451   8455   8457     1  0.0000000  0.6508444  3
   8453   8451   8455   8520     1  0.0000000  0.6508444  3
   8454   8451   8455   8456     1  0.0000000  0.6508444  3
   8454   8451   8455   8457     1  0.0000000  0.6508444  3
   8454   8451   8455   8520     1  0.0000000  0.6508444  3
   8455   8456   8467   8468     1  0.0000000  0.6508444  3
   8455   8456   8467   8469     1  0.0000000  0.6508444  3
   8455   8457   8459   8461     1  0.0000000  0.6508444  3
   8455   8457   8459   8462     1  0.0000000  0.6508444  3
   8456   8455   8457   8458     1  0.0000000  0.6508444  3
   8456   8455   8457   8460     1  0.0000000  0.6508444  3
   8457   8455   8456   8465     1  0.0000000  0.6508444  3
   8457   8455   8456   8466     1  0.0000000  0.6508444  3
   8458   8457   8455   8520     1  0.0000000  0.6508444  3
   8458   8457   8459   8463     1  0.0000000  0.6508444  3
   8458   8457   8459   8461     1  0.0000000  0.6508444  3
   8458   8457   8459   8462     1  0.0000000  0.6508444  3
   8459   8457   8455   8520     1  0.0000000  0.6508444  3
   8459   8463   8495   8485     1  180.0000771  6.0668000  2
   8459   8463   8495   8485     1  180.0000771  1.4644000  4
   8460   8457   8455   8520     1  0.0000000  0.6508444  3
   8460   8457   8459   8463     1  0.0000000  0.6508444  3
   8460   8457   8459   8461     1  0.0000000  0.6508444  3
   8460   8457   8459   8462     1  0.0000000  0.6508444  3
   8461   8459   8463   8464     1  0.0000000  3.3472000  1
   8461   8459   8463   8464     1  0.0000000  0.0000000  2
   8461   8459   8463   8464     1  180.0000771  0.3347200  3
   8461   8459   8463   8495     1  180.0000771  0.0000000  2
   8462   8459   8463   8464     1  0.0000000  3.3472000  1
   8462   8459   8463   8464     1  0.0000000  0.0000000  2
   8462   8459   8463   8464     1  180.0000771  0.3347200  3
   8462   8459   8463   8495     1  180.0000771  0.0000000  2
   8463   8495   8476   8478     1  0.0000000  1.2552000  3
   8464   8463   8495   8485     1  180.0000771  6.0668000  2
   8464   8463   8495   8485     1  180.0000771  1.4644000  4
   8465   8456   8455   8520     1  0.0000000  0.6508444  3
   8465   8456   8467   8470     1  0.0000000  0.6508444  3
   8465   8456   8467   8468     1  0.0000000  0.6508444  3
   8465   8456   8467   8469     1  0.0000000  0.6508444  3
   8466   8456   8455   8520     1  0.0000000  0.6508444  3
   8466   8456   8467   8470     1  0.0000000  0.6508444  3
   8466   8456   8467   8468     1  0.0000000  0.6508444  3
   8466   8456   8467   8469     1  0.0000000  0.6508444  3
   8467   8456   8455   8520     1  0.0000000  0.6508444  3
   8467   8470   8519   8509     1  180.0000771  6.0668000  2
   8467   8470   8519   8509     1  180.0000771  1.4644000  4
   8468   8467   8470   8471     1  0.0000000  3.3472000  1
   8468   8467   8470   8471     1  0.0000000  0.0000000  2
   8468   8467   8470   8471     1  180.0000771  0.3347200  3
   8468   8467   8470   8519     1  180.0000771  0.0000000  2
   8469   8467   8470   8471     1  0.0000000  3.3472000  1
   8469   8467   8470   8471     1  0.0000000  0.0000000  2
   8469   8467   8470   8471     1  180.0000771  0.3347200  3
   8469   8467   8470   8519     1  180.0000771  0.0000000  2
   8470   8519   8500   8502     1  0.0000000  1.2552000  3
   8471   8470   8519   8509     1  180.0000771  6.0668000  2
   8471   8470   8519   8509     1  180.0000771  1.4644000  4
   8472   8473   8475   8479     1  0.0000000  0.6508444  3
   8472   8473   8493   8494     1  0.0000000  1.0460000  1
   8472   8473   8493   8494     1  0.0000000  0.6694400  3
   8472   8483   8488   8489     1  0.0000000  1.0460000  1
   8472   8483   8488   8489     1  0.0000000  0.6694400  3
   8472   8490   8477   8480     1  0.0000000  1.6038667  3
   8473   8472   8483   8486     1  0.0000000  0.6508444  3
   8473   8472   8483   8487     1  0.0000000  0.6508444  3
   8473   8475   8476   8478     1  0.0000000  0.6508444  3
   8473   8475   8482   8484     1  0.0000000  1.0460000  1
   8473   8475   8482   8484     1  0.0000000  0.6694400  3
   8474   8472   8473   8475     1  0.0000000  0.6508444  3
   8474   8472   8473   8493     1  0.0000000  1.0460000  1
   8474   8472   8473   8493     1  0.0000000  0.0000000  3
   8474   8472   8473   8492     1  0.0000000  0.6508444  3
   8474   8472   8483   8488     1  0.0000000  1.0460000  1
   8474   8472   8483   8488     1  0.0000000  0.0000000  3
   8474   8472   8483   8486     1  0.0000000  0.6508444  3
   8474   8472   8483   8487     1  0.0000000  0.6508444  3
   8474   8472   8490   8477     1  0.0000000  1.6038667  3
   8475   8473   8493   8494     1  0.0000000  1.0460000  1
   8475   8473   8493   8494     1  0.0000000  0.6694400  3
   8475   8476   8477   8480     1  0.0000000  0.6508444  3
   8475   8476   8495   8485     1  0.0000000  1.2552000  3
   8476   8475   8473   8492     1  0.0000000  0.6508444  3
   8476   8475   8482   8484     1  0.0000000  1.0460000  1
   8476   8475   8482   8484     1  0.0000000  0.6694400  3
   8476   8477   8481   8491     1  0.0000000  1.0460000  1
   8476   8477   8481   8491     1  0.0000000  0.6694400  3
   8477   8476   8475   8479     1  0.0000000  0.6508444  3
   8477   8476   8495   8485     1  0.0000000  1.2552000  3
   8478   8476   8475   8482     1  0.0000000  1.0460000  1
   8478   8476   8475   8482     1  0.0000000  0.0000000  3
   8478   8476   8475   8479     1  0.0000000  0.6508444  3
   8478   8476   8477   8481     1  0.0000000  1.0460000  1
   8478   8476   8477   8481     1  0.0000000  0.0000000  3
   8478   8476   8477   8490     1  0.0000000  1.0460000  1
   8478   8476   8477   8490     1  0.0000000  0.0000000  3
   8478   8476   8477   8480     1  0.0000000  0.6508444  3
   8478   8476   8495   8485     1  0.0000000  1.2552000  3
   8479   8475   8473   8493     1  0.0000000  1.0460000  1
   8479   8475   8473   8493     1  0.0000000  0.0000000  3
   8479   8475   8473   8492     1  0.0000000  0.6508444  3
   8479   8475   8476   8495     1  0.0000000  0.6508444  3
   8479   8475   8482   8484     1  0.0000000  0.6973333  3
   8480   8477   8476   8495     1  0.0000000  0.6508444  3
   8480   8477   8481   8491     1  0.0000000  0.6973333  3
   8482   8475   8473   8492     1  0.0000000  1.0460000  1
   8482   8475   8473   8492     1  0.0000000  0.0000000  3
   8483   8472   8473   8492     1  0.0000000  0.6508444  3
   8486   8483   8472   8490     1  0.0000000  1.0460000  1
   8486   8483   8472   8490     1  0.0000000  0.0000000  3
   8486   8483   8488   8489     1  0.0000000  0.6973333  3
   8487   8483   8472   8490     1  0.0000000  1.0460000  1
   8487   8483   8472   8490     1  0.0000000  0.0000000  3
   8487   8483   8488   8489     1  0.0000000  0.6973333  3
   8490   8472   8473   8492     1  0.0000000  1.0460000  1
   8490   8472   8473   8492     1  0.0000000  0.0000000  3
   8490   8477   8481   8491     1  0.0000000  0.6973333  3
   8492   8473   8493   8494     1  0.0000000  0.6973333  3
   8496   8497   8499   8503     1  0.0000000  0.6508444  3
   8496   8497   8517   8518     1  0.0000000  1.0460000  1
   8496   8497   8517   8518     1  0.0000000  0.6694400  3
   8496   8507   8512   8513     1  0.0000000  1.0460000  1
   8496   8507   8512   8513     1  0.0000000  0.6694400  3
   8496   8514   8501   8504     1  0.0000000  1.6038667  3
   8497   8496   8507   8510     1  0.0000000  0.6508444  3
   8497   8496   8507   8511     1  0.0000000  0.6508444  3
   8497   8499   8500   8502     1  0.0000000  0.6508444  3
   8497   8499   8506   8508     1  0.0000000  1.0460000  1
   8497   8499   8506   8508     1  0.0000000  0.6694400  3
   8498   8496   8497   8499     1  0.0000000  0.6508444  3
   8498   8496   8497   8517     1  0.0000000  1.0460000  1
   8498   8496   8497   8517     1  0.0000000  0.0000000  3
   8498   8496   8497   8516     1  0.0000000  0.6508444  3
   8498   8496   8507   8512     1  0.0000000  1.0460000  1
   8498   8496   8507   8512     1  0.0000000  0.0000000  3
   8498   8496   8507   8510     1  0.0000000  0.6508444  3
   8498   8496   8507   8511     1  0.0000000  0.6508444  3
   8498   8496   8514   8501     1  0.0000000  1.6038667  3
   8499   8497   8517   8518     1  0.0000000  1.0460000  1
   8499   8497   8517   8518     1  0.0000000  0.6694400  3
   8499   8500   8501   8504     1  0.0000000  0.6508444  3
   8499   8500   8519   8509     1  0.0000000  1.2552000  3
   8500   8499   8497   8516     1  0.0000000  0.6508444  3
   8500   8499   8506   8508     1  0.0000000  1.0460000  1
   8500   8499   8506   8508     1  0.0000000  0.6694400  3
   8500   8501   8505   8515     1  0.0000000  1.0460000  1
   8500   8501   8505   8515     1  0.0000000  0.6694400  3
   8501   8500   8499   8503     1  0.0000000  0.6508444  3
   8501   8500   8519   8509     1  0.0000000  1.2552000  3
   8502   8500   8499   8506     1  0.0000000  1.0460000  1
   8502   8500   8499   8506     1  0.0000000  0.0000000  3
   8502   8500   8499   8503     1  0.0000000  0.6508444  3
   8502   8500   8501   8505     1  0.0000000  1.0460000  1
   8502   8500   8501   8505     1  0.0000000  0.0000000  3
   8502   8500   8501   8514     1  0.0000000  1.0460000  1
   8502   8500   8501   8514     1  0.0000000  0.0000000  3
   8502   8500   8501   8504     1  0.0000000  0.6508444  3
   8502   8500   8519   8509     1  0.0000000  1.2552000  3
   8503   8499   8497   8517     1  0.0000000  1.0460000  1
   8503   8499   8497   8517     1  0.0000000  0.0000000  3
   8503   8499   8497   8516     1  0.0000000  0.6508444  3
   8503   8499   8500   8519     1  0.0000000  0.6508444  3
   8503   8499   8506   8508     1  0.0000000  0.6973333  3
   8504   8501   8500   8519     1  0.0000000  0.6508444  3
   8504   8501   8505   8515     1  0.0000000  0.6973333  3
   8506   8499   8497   8516     1  0.0000000  1.0460000  1
   8506   8499   8497   8516     1  0.0000000  0.0000000  3
   8507   8496   8497   8516     1  0.0000000  0.6508444  3
   8510   8507   8496   8514     1  0.0000000  1.0460000  1
   8510   8507   8496   8514     1  0.0000000  0.0000000  3
   8510   8507   8512   8513     1  0.0000000  0.6973333  3
   8511   8507   8496   8514     1  0.0000000  1.0460000  1
   8511   8507   8496   8514     1  0.0000000  0.0000000  3
   8511   8507   8512   8513     1  0.0000000  0.6973333  3
   8514   8496   8497   8516     1  0.0000000  1.0460000  1
   8514   8496   8497   8516     1  0.0000000  0.0000000  3
   8514   8501   8505   8515     1  0.0000000  0.6973333  3
   8516   8497   8517   8518     1  0.0000000  0.6973333  3
   8521   8523   8525   8527     1  0.0000000  0.6508444  3
   8521   8523   8525   8528     1  0.0000000  0.6508444  3
   8522   8521   8523   8525     1  0.0000000  0.0000000  2
   8522   8521   8523   8524     1  0.0000000  0.0000000  2
   8522   8521   8523   8526     1  0.0000000  0.0000000  2
   8523   8525   8529   8594     1  0.0000000  0.6508444  3
   8524   8523   8525   8529     1  0.0000000  0.6508444  3
   8524   8523   8525   8527     1  0.0000000  0.6508444  3
   8524   8523   8525   8528     1  0.0000000  0.6508444  3
   8525   8529   8530   8539     1  0.0000000  0.6508444  3
   8525   8529   8530   8540     1  0.0000000  0.6508444  3
   8525   8529   8531   8532     1  0.0000000  0.6508444  3
   8525   8529   8531   8534     1  0.0000000  0.6508444  3
   8526   8523   8525   8529     1  0.0000000  0.6508444  3
   8526   8523   8525   8527     1  0.0000000  0.6508444  3
   8526   8523   8525   8528     1  0.0000000  0.6508444  3
   8527   8525   8529   8530     1  0.0000000  0.6508444  3
   8527   8525   8529   8531     1  0.0000000  0.6508444  3
   8527   8525   8529   8594     1  0.0000000  0.6508444  3
   8528   8525   8529   8530     1  0.0000000  0.6508444  3
   8528   8525   8529   8531     1  0.0000000  0.6508444  3
   8528   8525   8529   8594     1  0.0000000  0.6508444  3
   8529   8530   8541   8542     1  0.0000000  0.6508444  3
   8529   8530   8541   8543     1  0.0000000  0.6508444  3
   8529   8531   8533   8535     1  0.0000000  0.6508444  3
   8529   8531   8533   8536     1  0.0000000  0.6508444  3
   8530   8529   8531   8532     1  0.0000000  0.6508444  3
   8530   8529   8531   8534     1  0.0000000  0.6508444  3
   8531   8529   8530   8539     1  0.0000000  0.6508444  3
   8531   8529   8530   8540     1  0.0000000  0.6508444  3
   8532   8531   8533   8537     1  0.0000000  0.6508444  3
   8532   8531   8533   8535     1  0.0000000  0.6508444  3
   8532   8531   8533   8536     1  0.0000000  0.6508444  3
   8532   8531   8529   8594     1  0.0000000  0.6508444  3
   8533   8537   8569   8559     1  180.0000771  6.0668000  2
   8533   8537   8569   8559     1  180.0000771  1.4644000  4
   8533   8531   8529   8594     1  0.0000000  0.6508444  3
   8534   8531   8533   8537     1  0.0000000  0.6508444  3
   8534   8531   8533   8535     1  0.0000000  0.6508444  3
   8534   8531   8533   8536     1  0.0000000  0.6508444  3
   8534   8531   8529   8594     1  0.0000000  0.6508444  3
   8535   8533   8537   8538     1  0.0000000  3.3472000  1
   8535   8533   8537   8538     1  0.0000000  0.0000000  2
   8535   8533   8537   8538     1  180.0000771  0.3347200  3
   8535   8533   8537   8569     1  180.0000771  0.0000000  2
   8536   8533   8537   8538     1  0.0000000  3.3472000  1
   8536   8533   8537   8538     1  0.0000000  0.0000000  2
   8536   8533   8537   8538     1  180.0000771  0.3347200  3
   8536   8533   8537   8569     1  180.0000771  0.0000000  2
   8537   8569   8550   8552     1  0.0000000  1.2552000  3
   8538   8537   8569   8559     1  180.0000771  6.0668000  2
   8538   8537   8569   8559     1  180.0000771  1.4644000  4
   8539   8530   8541   8544     1  0.0000000  0.6508444  3
   8539   8530   8541   8542     1  0.0000000  0.6508444  3
   8539   8530   8541   8543     1  0.0000000  0.6508444  3
   8539   8530   8529   8594     1  0.0000000  0.6508444  3
   8540   8530   8541   8544     1  0.0000000  0.6508444  3
   8540   8530   8541   8542     1  0.0000000  0.6508444  3
   8540   8530   8541   8543     1  0.0000000  0.6508444  3
   8540   8530   8529   8594     1  0.0000000  0.6508444  3
   8541   8544   8593   8583     1  180.0000771  6.0668000  2
   8541   8544   8593   8583     1  180.0000771  1.4644000  4
   8541   8530   8529   8594     1  0.0000000  0.6508444  3
   8542   8541   8544   8545     1  0.0000000  3.3472000  1
   8542   8541   8544   8545     1  0.0000000  0.0000000  2
   8542   8541   8544   8545     1  180.0000771  0.3347200  3
   8542   8541   8544   8593     1  180.0000771  0.0000000  2
   8543   8541   8544   8545     1  0.0000000  3.3472000  1
   8543   8541   8544   8545     1  0.0000000  0.0000000  2
   8543   8541   8544   8545     1  180.0000771  0.3347200  3
   8543   8541   8544   8593     1  180.0000771  0.0000000  2
   8544   8593   8574   8576     1  0.0000000  1.2552000  3
   8545   8544   8593   8583     1  180.0000771  6.0668000  2
   8545   8544   8593   8583     1  180.0000771  1.4644000  4
   8546   8547   8549   8553     1  0.0000000  0.6508444  3
   8546   8547   8567   8568     1  0.0000000  1.0460000  1
   8546   8547   8567   8568     1  0.0000000  0.6694400  3
   8546   8557   8562   8563     1  0.0000000  1.0460000  1
   8546   8557   8562   8563     1  0.0000000  0.6694400  3
   8546   8564   8551   8554     1  0.0000000  1.6038667  3
   8547   8549   8550   8552     1  0.0000000  0.6508444  3
   8547   8549   8556   8558     1  0.0000000  1.0460000  1
   8547   8549   8556   8558     1  0.0000000  0.6694400  3
   8547   8546   8557   8560     1  0.0000000  0.6508444  3
   8547   8546   8557   8561     1  0.0000000  0.6508444  3
   8548   8546   8547   8549     1  0.0000000  0.6508444  3
   8548   8546   8547   8567     1  0.0000000  1.0460000  1
   8548   8546   8547   8567     1  0.0000000  0.0000000  3
   8548   8546   8547   8566     1  0.0000000  0.6508444  3
   8548   8546   8557   8562     1  0.0000000  1.0460000  1
   8548   8546   8557   8562     1  0.0000000  0.0000000  3
   8548   8546   8557   8560     1  0.0000000  0.6508444  3
   8548   8546   8557   8561     1  0.0000000  0.6508444  3
   8548   8546   8564   8551     1  0.0000000  1.6038667  3
   8549   8550   8551   8554     1  0.0000000  0.6508444  3
   8549   8550   8569   8559     1  0.0000000  1.2552000  3
   8549   8547   8567   8568     1  0.0000000  1.0460000  1
   8549   8547   8567   8568     1  0.0000000  0.6694400  3
   8550   8551   8555   8565     1  0.0000000  1.0460000  1
   8550   8551   8555   8565     1  0.0000000  0.6694400  3
   8550   8549   8556   8558     1  0.0000000  1.0460000  1
   8550   8549   8556   8558     1  0.0000000  0.6694400  3
   8550   8549   8547   8566     1  0.0000000  0.6508444  3
   8551   8550   8569   8559     1  0.0000000  1.2552000  3
   8551   8550   8549   8553     1  0.0000000  0.6508444  3
   8552   8550   8551   8555     1  0.0000000  1.0460000  1
   8552   8550   8551   8555     1  0.0000000  0.0000000  3
   8552   8550   8551   8564     1  0.0000000  1.0460000  1
   8552   8550   8551   8564     1  0.0000000  0.0000000  3
   8552   8550   8551   8554     1  0.0000000  0.6508444  3
   8552   8550   8569   8559     1  0.0000000  1.2552000  3
   8552   8550   8549   8556     1  0.0000000  1.0460000  1
   8552   8550   8549   8556     1  0.0000000  0.0000000  3
   8552   8550   8549   8553     1  0.0000000  0.6508444  3
   8553   8549   8550   8569     1  0.0000000  0.6508444  3
   8553   8549   8556   8558     1  0.0000000  0.6973333  3
   8553   8549   8547   8567     1  0.0000000  1.0460000  1
   8553   8549   8547   8567     1  0.0000000  0.0000000  3
   8553   8549   8547   8566     1  0.0000000  0.6508444  3
   8554   8551   8555   8565     1  0.0000000  0.6973333  3
   8554   8551   8550   8569     1  0.0000000  0.6508444  3
   8556   8549   8547   8566     1  0.0000000  1.0460000  1
   8556   8549   8547   8566     1  0.0000000  0.0000000  3
   8557   8546   8547   8566     1  0.0000000  0.6508444  3
   8560   8557   8562   8563     1  0.0000000  0.6973333  3
   8560   8557   8546   8564     1  0.0000000  1.0460000  1
   8560   8557   8546   8564     1  0.0000000  0.0000000  3
   8561   8557   8562   8563     1  0.0000000  0.6973333  3
   8561   8557   8546   8564     1  0.0000000  1.0460000  1
   8561   8557   8546   8564     1  0.0000000  0.0000000  3
   8564   8551   8555   8565     1  0.0000000  0.6973333  3
   8564   8546   8547   8566     1  0.0000000  1.0460000  1
   8564   8546   8547   8566     1  0.0000000  0.0000000  3
   8566   8547   8567   8568     1  0.0000000  0.6973333  3
   8570   8571   8573   8577     1  0.0000000  0.6508444  3
   8570   8571   8591   8592     1  0.0000000  1.0460000  1
   8570   8571   8591   8592     1  0.0000000  0.6694400  3
   8570   8581   8586   8587     1  0.0000000  1.0460000  1
   8570   8581   8586   8587     1  0.0000000  0.6694400  3
   8570   8588   8575   8578     1  0.0000000  1.6038667  3
   8571   8573   8574   8576     1  0.0000000  0.6508444  3
   8571   8573   8580   8582     1  0.0000000  1.0460000  1
   8571   8573   8580   8582     1  0.0000000  0.6694400  3
   8571   8570   8581   8584     1  0.0000000  0.6508444  3
   8571   8570   8581   8585     1  0.0000000  0.6508444  3
   8572   8570   8571   8573     1  0.0000000  0.6508444  3
   8572   8570   8571   8591     1  0.0000000  1.0460000  1
   8572   8570   8571   8591     1  0.0000000  0.0000000  3
   8572   8570   8571   8590     1  0.0000000  0.6508444  3
   8572   8570   8581   8586     1  0.0000000  1.0460000  1
   8572   8570   8581   8586     1  0.0000000  0.0000000  3
   8572   8570   8581   8584     1  0.0000000  0.6508444  3
   8572   8570   8581   8585     1  0.0000000  0.6508444  3
   8572   8570   8588   8575     1  0.0000000  1.6038667  3
   8573   8574   8575   8578     1  0.0000000  0.6508444  3
   8573   8574   8593   8583     1  0.0000000  1.2552000  3
   8573   8571   8591   8592     1  0.0000000  1.0460000  1
   8573   8571   8591   8592     1  0.0000000  0.6694400  3
   8574   8575   8579   8589     1  0.0000000  1.0460000  1
   8574   8575   8579   8589     1  0.0000000  0.6694400  3
   8574   8573   8580   8582     1  0.0000000  1.0460000  1
   8574   8573   8580   8582     1  0.0000000  0.6694400  3
   8574   8573   8571   8590     1  0.0000000  0.6508444  3
   8575   8574   8593   8583     1  0.0000000  1.2552000  3
   8575   8574   8573   8577     1  0.0000000  0.6508444  3
   8576   8574   8575   8579     1  0.0000000  1.0460000  1
   8576   8574   8575   8579     1  0.0000000  0.0000000  3
   8576   8574   8575   8588     1  0.0000000  1.0460000  1
   8576   8574   8575   8588     1  0.0000000  0.0000000  3
   8576   8574   8575   8578     1  0.0000000  0.6508444  3
   8576   8574   8593   8583     1  0.0000000  1.2552000  3
   8576   8574   8573   8580     1  0.0000000  1.0460000  1
   8576   8574   8573   8580     1  0.0000000  0.0000000  3
   8576   8574   8573   8577     1  0.0000000  0.6508444  3
   8577   8573   8574   8593     1  0.0000000  0.6508444  3
   8577   8573   8580   8582     1  0.0000000  0.6973333  3
   8577   8573   8571   8591     1  0.0000000  1.0460000  1
   8577   8573   8571   8591     1  0.0000000  0.0000000  3
   8577   8573   8571   8590     1  0.0000000  0.6508444  3
   8578   8575   8579   8589     1  0.0000000  0.6973333  3
   8578   8575   8574   8593     1  0.0000000  0.6508444  3
   8580   8573   8571   8590     1  0.0000000  1.0460000  1
   8580   8573   8571   8590     1  0.0000000  0.0000000  3
   8581   8570   8571   8590     1  0.0000000  0.6508444  3
   8584   8581   8586   8587     1  0.0000000  0.6973333  3
   8584   8581   8570   8588     1  0.0000000  1.0460000  1
   8584   8581   8570   8588     1  0.0000000  0.0000000  3
   8585   8581   8586   8587     1  0.0000000  0.6973333  3
   8585   8581   8570   8588     1  0.0000000  1.0460000  1
   8585   8581   8570   8588     1  0.0000000  0.0000000  3
   8588   8575   8579   8589     1  0.0000000  0.6973333  3
   8588   8570   8571   8590     1  0.0000000  1.0460000  1
   8588   8570   8571   8590     1  0.0000000  0.0000000  3
   8590   8571   8591   8592     1  0.0000000  0.6973333  3
   8595   8597   8599   8601     1  0.0000000  0.6508444  3
   8595   8597   8599   8602     1  0.0000000  0.6508444  3
   8596   8595   8597   8599     1  0.0000000  0.0000000  2
   8596   8595   8597   8598     1  0.0000000  0.0000000  2
   8596   8595   8597   8600     1  0.0000000  0.0000000  2
   8597   8599   8603   8668     1  0.0000000  0.6508444  3
   8598   8597   8599   8603     1  0.0000000  0.6508444  3
   8598   8597   8599   8601     1  0.0000000  0.6508444  3
   8598   8597   8599   8602     1  0.0000000  0.6508444  3
   8599   8603   8604   8613     1  0.0000000  0.6508444  3
   8599   8603   8604   8614     1  0.0000000  0.6508444  3
   8599   8603   8605   8606     1  0.0000000  0.6508444  3
   8599   8603   8605   8608     1  0.0000000  0.6508444  3
   8600   8597   8599   8603     1  0.0000000  0.6508444  3
   8600   8597   8599   8601     1  0.0000000  0.6508444  3
   8600   8597   8599   8602     1  0.0000000  0.6508444  3
   8601   8599   8603   8604     1  0.0000000  0.6508444  3
   8601   8599   8603   8605     1  0.0000000  0.6508444  3
   8601   8599   8603   8668     1  0.0000000  0.6508444  3
   8602   8599   8603   8604     1  0.0000000  0.6508444  3
   8602   8599   8603   8605     1  0.0000000  0.6508444  3
   8602   8599   8603   8668     1  0.0000000  0.6508444  3
   8603   8604   8615   8616     1  0.0000000  0.6508444  3
   8603   8604   8615   8617     1  0.0000000  0.6508444  3
   8603   8605   8607   8609     1  0.0000000  0.6508444  3
   8603   8605   8607   8610     1  0.0000000  0.6508444  3
   8604   8603   8605   8606     1  0.0000000  0.6508444  3
   8604   8603   8605   8608     1  0.0000000  0.6508444  3
   8605   8603   8604   8613     1  0.0000000  0.6508444  3
   8605   8603   8604   8614     1  0.0000000  0.6508444  3
   8606   8605   8603   8668     1  0.0000000  0.6508444  3
   8606   8605   8607   8611     1  0.0000000  0.6508444  3
   8606   8605   8607   8609     1  0.0000000  0.6508444  3
   8606   8605   8607   8610     1  0.0000000  0.6508444  3
   8607   8605   8603   8668     1  0.0000000  0.6508444  3
   8607   8611   8643   8633     1  180.0000771  6.0668000  2
   8607   8611   8643   8633     1  180.0000771  1.4644000  4
   8608   8605   8603   8668     1  0.0000000  0.6508444  3
   8608   8605   8607   8611     1  0.0000000  0.6508444  3
   8608   8605   8607   8609     1  0.0000000  0.6508444  3
   8608   8605   8607   8610     1  0.0000000  0.6508444  3
   8609   8607   8611   8612     1  0.0000000  3.3472000  1
   8609   8607   8611   8612     1  0.0000000  0.0000000  2
   8609   8607   8611   8612     1  180.0000771  0.3347200  3
   8609   8607   8611   8643     1  180.0000771  0.0000000  2
   8610   8607   8611   8612     1  0.0000000  3.3472000  1
   8610   8607   8611   8612     1  0.0000000  0.0000000  2
   8610   8607   8611   8612     1  180.0000771  0.3347200  3
   8610   8607   8611   8643     1  180.0000771  0.0000000  2
   8611   8643   8624   8626     1  0.0000000  1.2552000  3
   8612   8611   8643   8633     1  180.0000771  6.0668000  2
   8612   8611   8643   8633     1  180.0000771  1.4644000  4
   8613   8604   8603   8668     1  0.0000000  0.6508444  3
   8613   8604   8615   8618     1  0.0000000  0.6508444  3
   8613   8604   8615   8616     1  0.0000000  0.6508444  3
   8613   8604   8615   8617     1  0.0000000  0.6508444  3
   8614   8604   8603   8668     1  0.0000000  0.6508444  3
   8614   8604   8615   8618     1  0.0000000  0.6508444  3
   8614   8604   8615   8616     1  0.0000000  0.6508444  3
   8614   8604   8615   8617     1  0.0000000  0.6508444  3
   8615   8604   8603   8668     1  0.0000000  0.6508444  3
   8615   8618   8667   8657     1  180.0000771  6.0668000  2
   8615   8618   8667   8657     1  180.0000771  1.4644000  4
   8616   8615   8618   8619     1  0.0000000  3.3472000  1
   8616   8615   8618   8619     1  0.0000000  0.0000000  2
   8616   8615   8618   8619     1  180.0000771  0.3347200  3
   8616   8615   8618   8667     1  180.0000771  0.0000000  2
   8617   8615   8618   8619     1  0.0000000  3.3472000  1
   8617   8615   8618   8619     1  0.0000000  0.0000000  2
   8617   8615   8618   8619     1  180.0000771  0.3347200  3
   8617   8615   8618   8667     1  180.0000771  0.0000000  2
   8618   8667   8648   8650     1  0.0000000  1.2552000  3
   8619   8618   8667   8657     1  180.0000771  6.0668000  2
   8619   8618   8667   8657     1  180.0000771  1.4644000  4
   8620   8621   8623   8627     1  0.0000000  0.6508444  3
   8620   8621   8641   8642     1  0.0000000  1.0460000  1
   8620   8621   8641   8642     1  0.0000000  0.6694400  3
   8620   8631   8636   8637     1  0.0000000  1.0460000  1
   8620   8631   8636   8637     1  0.0000000  0.6694400  3
   8620   8638   8625   8628     1  0.0000000  1.6038667  3
   8621   8620   8631   8634     1  0.0000000  0.6508444  3
   8621   8620   8631   8635     1  0.0000000  0.6508444  3
   8621   8623   8624   8626     1  0.0000000  0.6508444  3
   8621   8623   8630   8632     1  0.0000000  1.0460000  1
   8621   8623   8630   8632     1  0.0000000  0.6694400  3
   8622   8620   8621   8623     1  0.0000000  0.6508444  3
   8622   8620   8621   8641     1  0.0000000  1.0460000  1
   8622   8620   8621   8641     1  0.0000000  0.0000000  3
   8622   8620   8621   8640     1  0.0000000  0.6508444  3
   8622   8620   8631   8636     1  0.0000000  1.0460000  1
   8622   8620   8631   8636     1  0.0000000  0.0000000  3
   8622   8620   8631   8634     1  0.0000000  0.6508444  3
   8622   8620   8631   8635     1  0.0000000  0.6508444  3
   8622   8620   8638   8625     1  0.0000000  1.6038667  3
   8623   8621   8641   8642     1  0.0000000  1.0460000  1
   8623   8621   8641   8642     1  0.0000000  0.6694400  3
   8623   8624   8625   8628     1  0.0000000  0.6508444  3
   8623   8624   8643   8633     1  0.0000000  1.2552000  3
   8624   8623   8621   8640     1  0.0000000  0.6508444  3
   8624   8623   8630   8632     1  0.0000000  1.0460000  1
   8624   8623   8630   8632     1  0.0000000  0.6694400  3
   8624   8625   8629   8639     1  0.0000000  1.0460000  1
   8624   8625   8629   8639     1  0.0000000  0.6694400  3
   8625   8624   8623   8627     1  0.0000000  0.6508444  3
   8625   8624   8643   8633     1  0.0000000  1.2552000  3
   8626   8624   8623   8630     1  0.0000000  1.0460000  1
   8626   8624   8623   8630     1  0.0000000  0.0000000  3
   8626   8624   8623   8627     1  0.0000000  0.6508444  3
   8626   8624   8625   8629     1  0.0000000  1.0460000  1
   8626   8624   8625   8629     1  0.0000000  0.0000000  3
   8626   8624   8625   8638     1  0.0000000  1.0460000  1
   8626   8624   8625   8638     1  0.0000000  0.0000000  3
   8626   8624   8625   8628     1  0.0000000  0.6508444  3
   8626   8624   8643   8633     1  0.0000000  1.2552000  3
   8627   8623   8621   8641     1  0.0000000  1.0460000  1
   8627   8623   8621   8641     1  0.0000000  0.0000000  3
   8627   8623   8621   8640     1  0.0000000  0.6508444  3
   8627   8623   8624   8643     1  0.0000000  0.6508444  3
   8627   8623   8630   8632     1  0.0000000  0.6973333  3
   8628   8625   8624   8643     1  0.0000000  0.6508444  3
   8628   8625   8629   8639     1  0.0000000  0.6973333  3
   8630   8623   8621   8640     1  0.0000000  1.0460000  1
   8630   8623   8621   8640     1  0.0000000  0.0000000  3
   8631   8620   8621   8640     1  0.0000000  0.6508444  3
   8634   8631   8620   8638     1  0.0000000  1.0460000  1
   8634   8631   8620   8638     1  0.0000000  0.0000000  3
   8634   8631   8636   8637     1  0.0000000  0.6973333  3
   8635   8631   8620   8638     1  0.0000000  1.0460000  1
   8635   8631   8620   8638     1  0.0000000  0.0000000  3
   8635   8631   8636   8637     1  0.0000000  0.6973333  3
   8638   8620   8621   8640     1  0.0000000  1.0460000  1
   8638   8620   8621   8640     1  0.0000000  0.0000000  3
   8638   8625   8629   8639     1  0.0000000  0.6973333  3
   8640   8621   8641   8642     1  0.0000000  0.6973333  3
   8644   8645   8647   8651     1  0.0000000  0.6508444  3
   8644   8645   8665   8666     1  0.0000000  1.0460000  1
   8644   8645   8665   8666     1  0.0000000  0.6694400  3
   8644   8655   8660   8661     1  0.0000000  1.0460000  1
   8644   8655   8660   8661     1  0.0000000  0.6694400  3
   8644   8662   8649   8652     1  0.0000000  1.6038667  3
   8645   8644   8655   8658     1  0.0000000  0.6508444  3
   8645   8644   8655   8659     1  0.0000000  0.6508444  3
   8645   8647   8648   8650     1  0.0000000  0.6508444  3
   8645   8647   8654   8656     1  0.0000000  1.0460000  1
   8645   8647   8654   8656     1  0.0000000  0.6694400  3
   8646   8644   8645   8647     1  0.0000000  0.6508444  3
   8646   8644   8645   8665     1  0.0000000  1.0460000  1
   8646   8644   8645   8665     1  0.0000000  0.0000000  3
   8646   8644   8645   8664     1  0.0000000  0.6508444  3
   8646   8644   8655   8660     1  0.0000000  1.0460000  1
   8646   8644   8655   8660     1  0.0000000  0.0000000  3
   8646   8644   8655   8658     1  0.0000000  0.6508444  3
   8646   8644   8655   8659     1  0.0000000  0.6508444  3
   8646   8644   8662   8649     1  0.0000000  1.6038667  3
   8647   8645   8665   8666     1  0.0000000  1.0460000  1
   8647   8645   8665   8666     1  0.0000000  0.6694400  3
   8647   8648   8649   8652     1  0.0000000  0.6508444  3
   8647   8648   8667   8657     1  0.0000000  1.2552000  3
   8648   8647   8645   8664     1  0.0000000  0.6508444  3
   8648   8647   8654   8656     1  0.0000000  1.0460000  1
   8648   8647   8654   8656     1  0.0000000  0.6694400  3
   8648   8649   8653   8663     1  0.0000000  1.0460000  1
   8648   8649   8653   8663     1  0.0000000  0.6694400  3
   8649   8648   8647   8651     1  0.0000000  0.6508444  3
   8649   8648   8667   8657     1  0.0000000  1.2552000  3
   8650   8648   8647   8654     1  0.0000000  1.0460000  1
   8650   8648   8647   8654     1  0.0000000  0.0000000  3
   8650   8648   8647   8651     1  0.0000000  0.6508444  3
   8650   8648   8649   8653     1  0.0000000  1.0460000  1
   8650   8648   8649   8653     1  0.0000000  0.0000000  3
   8650   8648   8649   8662     1  0.0000000  1.0460000  1
   8650   8648   8649   8662     1  0.0000000  0.0000000  3
   8650   8648   8649   8652     1  0.0000000  0.6508444  3
   8650   8648   8667   8657     1  0.0000000  1.2552000  3
   8651   8647   8645   8665     1  0.0000000  1.0460000  1
   8651   8647   8645   8665     1  0.0000000  0.0000000  3
   8651   8647   8645   8664     1  0.0000000  0.6508444  3
   8651   8647   8648   8667     1  0.0000000  0.6508444  3
   8651   8647   8654   8656     1  0.0000000  0.6973333  3
   8652   8649   8648   8667     1  0.0000000  0.6508444  3
   8652   8649   8653   8663     1  0.0000000  0.6973333  3
   8654   8647   8645   8664     1  0.0000000  1.0460000  1
   8654   8647   8645   8664     1  0.0000000  0.0000000  3
   8655   8644   8645   8664     1  0.0000000  0.6508444  3
   8658   8655   8644   8662     1  0.0000000  1.0460000  1
   8658   8655   8644   8662     1  0.0000000  0.0000000  3
   8658   8655   8660   8661     1  0.0000000  0.6973333  3
   8659   8655   8644   8662     1  0.0000000  1.0460000  1
   8659   8655   8644   8662     1  0.0000000  0.0000000  3
   8659   8655   8660   8661     1  0.0000000  0.6973333  3
   8662   8644   8645   8664     1  0.0000000  1.0460000  1
   8662   8644   8645   8664     1  0.0000000  0.0000000  3
   8662   8649   8653   8663     1  0.0000000  0.6973333  3
   8664   8645   8665   8666     1  0.0000000  0.6973333  3
   8669   8671   8673   8675     1  0.0000000  0.6508444  3
   8669   8671   8673   8676     1  0.0000000  0.6508444  3
   8670   8669   8671   8673     1  0.0000000  0.0000000  2
   8670   8669   8671   8672     1  0.0000000  0.0000000  2
   8670   8669   8671   8674     1  0.0000000  0.0000000  2
   8671   8673   8677   8742     1  0.0000000  0.6508444  3
   8672   8671   8673   8677     1  0.0000000  0.6508444  3
   8672   8671   8673   8675     1  0.0000000  0.6508444  3
   8672   8671   8673   8676     1  0.0000000  0.6508444  3
   8673   8677   8678   8687     1  0.0000000  0.6508444  3
   8673   8677   8678   8688     1  0.0000000  0.6508444  3
   8673   8677   8679   8680     1  0.0000000  0.6508444  3
   8673   8677   8679   8682     1  0.0000000  0.6508444  3
   8674   8671   8673   8677     1  0.0000000  0.6508444  3
   8674   8671   8673   8675     1  0.0000000  0.6508444  3
   8674   8671   8673   8676     1  0.0000000  0.6508444  3
   8675   8673   8677   8678     1  0.0000000  0.6508444  3
   8675   8673   8677   8679     1  0.0000000  0.6508444  3
   8675   8673   8677   8742     1  0.0000000  0.6508444  3
   8676   8673   8677   8678     1  0.0000000  0.6508444  3
   8676   8673   8677   8679     1  0.0000000  0.6508444  3
   8676   8673   8677   8742     1  0.0000000  0.6508444  3
   8677   8678   8689   8690     1  0.0000000  0.6508444  3
   8677   8678   8689   8691     1  0.0000000  0.6508444  3
   8677   8679   8681   8683     1  0.0000000  0.6508444  3
   8677   8679   8681   8684     1  0.0000000  0.6508444  3
   8678   8677   8679   8680     1  0.0000000  0.6508444  3
   8678   8677   8679   8682     1  0.0000000  0.6508444  3
   8679   8677   8678   8687     1  0.0000000  0.6508444  3
   8679   8677   8678   8688     1  0.0000000  0.6508444  3
   8680   8679   8681   8685     1  0.0000000  0.6508444  3
   8680   8679   8681   8683     1  0.0000000  0.6508444  3
   8680   8679   8681   8684     1  0.0000000  0.6508444  3
   8680   8679   8677   8742     1  0.0000000  0.6508444  3
   8681   8685   8717   8707     1  180.0000771  6.0668000  2
   8681   8685   8717   8707     1  180.0000771  1.4644000  4
   8681   8679   8677   8742     1  0.0000000  0.6508444  3
   8682   8679   8681   8685     1  0.0000000  0.6508444  3
   8682   8679   8681   8683     1  0.0000000  0.6508444  3
   8682   8679   8681   8684     1  0.0000000  0.6508444  3
   8682   8679   8677   8742     1  0.0000000  0.6508444  3
   8683   8681   8685   8686     1  0.0000000  3.3472000  1
   8683   8681   8685   8686     1  0.0000000  0.0000000  2
   8683   8681   8685   8686     1  180.0000771  0.3347200  3
   8683   8681   8685   8717     1  180.0000771  0.0000000  2
   8684   8681   8685   8686     1  0.0000000  3.3472000  1
   8684   8681   8685   8686     1  0.0000000  0.0000000  2
   8684   8681   8685   8686     1  180.0000771  0.3347200  3
   8684   8681   8685   8717     1  180.0000771  0.0000000  2
   8685   8717   8698   8700     1  0.0000000  1.2552000  3
   8686   8685   8717   8707     1  180.0000771  6.0668000  2
   8686   8685   8717   8707     1  180.0000771  1.4644000  4
   8687   8678   8689   8692     1  0.0000000  0.6508444  3
   8687   8678   8689   8690     1  0.0000000  0.6508444  3
   8687   8678   8689   8691     1  0.0000000  0.6508444  3
   8687   8678   8677   8742     1  0.0000000  0.6508444  3
   8688   8678   8689   8692     1  0.0000000  0.6508444  3
   8688   8678   8689   8690     1  0.0000000  0.6508444  3
   8688   8678   8689   8691     1  0.0000000  0.6508444  3
   8688   8678   8677   8742     1  0.0000000  0.6508444  3
   8689   8692   8741   8731     1  180.0000771  6.0668000  2
   8689   8692   8741   8731     1  180.0000771  1.4644000  4
   8689   8678   8677   8742     1  0.0000000  0.6508444  3
   8690   8689   8692   8693     1  0.0000000  3.3472000  1
   8690   8689   8692   8693     1  0.0000000  0.0000000  2
   8690   8689   8692   8693     1  180.0000771  0.3347200  3
   8690   8689   8692   8741     1  180.0000771  0.0000000  2
   8691   8689   8692   8693     1  0.0000000  3.3472000  1
   8691   8689   8692   8693     1  0.0000000  0.0000000  2
   8691   8689   8692   8693     1  180.0000771  0.3347200  3
   8691   8689   8692   8741     1  180.0000771  0.0000000  2
   8692   8741   8722   8724     1  0.0000000  1.2552000  3
   8693   8692   8741   8731     1  180.0000771  6.0668000  2
   8693   8692   8741   8731     1  180.0000771  1.4644000  4
   8694   8695   8697   8701     1  0.0000000  0.6508444  3
   8694   8695   8715   8716     1  0.0000000  1.0460000  1
   8694   8695   8715   8716     1  0.0000000  0.6694400  3
   8694   8705   8710   8711     1  0.0000000  1.0460000  1
   8694   8705   8710   8711     1  0.0000000  0.6694400  3
   8694   8712   8699   8702     1  0.0000000  1.6038667  3
   8695   8697   8698   8700     1  0.0000000  0.6508444  3
   8695   8697   8704   8706     1  0.0000000  1.0460000  1
   8695   8697   8704   8706     1  0.0000000  0.6694400  3
   8695   8694   8705   8708     1  0.0000000  0.6508444  3
   8695   8694   8705   8709     1  0.0000000  0.6508444  3
   8696   8694   8695   8697     1  0.0000000  0.6508444  3
   8696   8694   8695   8715     1  0.0000000  1.0460000  1
   8696   8694   8695   8715     1  0.0000000  0.0000000  3
   8696   8694   8695   8714     1  0.0000000  0.6508444  3
   8696   8694   8705   8710     1  0.0000000  1.0460000  1
   8696   8694   8705   8710     1  0.0000000  0.0000000  3
   8696   8694   8705   8708     1  0.0000000  0.6508444  3
   8696   8694   8705   8709     1  0.0000000  0.6508444  3
   8696   8694   8712   8699     1  0.0000000  1.6038667  3
   8697   8698   8699   8702     1  0.0000000  0.6508444  3
   8697   8698   8717   8707     1  0.0000000  1.2552000  3
   8697   8695   8715   8716     1  0.0000000  1.0460000  1
   8697   8695   8715   8716     1  0.0000000  0.6694400  3
   8698   8699   8703   8713     1  0.0000000  1.0460000  1
   8698   8699   8703   8713     1  0.0000000  0.6694400  3
   8698   8697   8704   8706     1  0.0000000  1.0460000  1
   8698   8697   8704   8706     1  0.0000000  0.6694400  3
   8698   8697   8695   8714     1  0.0000000  0.6508444  3
   8699   8698   8717   8707     1  0.0000000  1.2552000  3
   8699   8698   8697   8701     1  0.0000000  0.6508444  3
   8700   8698   8699   8703     1  0.0000000  1.0460000  1
   8700   8698   8699   8703     1  0.0000000  0.0000000  3
   8700   8698   8699   8712     1  0.0000000  1.0460000  1
   8700   8698   8699   8712     1  0.0000000  0.0000000  3
   8700   8698   8699   8702     1  0.0000000  0.6508444  3
   8700   8698   8717   8707     1  0.0000000  1.2552000  3
   8700   8698   8697   8704     1  0.0000000  1.0460000  1
   8700   8698   8697   8704     1  0.0000000  0.0000000  3
   8700   8698   8697   8701     1  0.0000000  0.6508444  3
   8701   8697   8698   8717     1  0.0000000  0.6508444  3
   8701   8697   8704   8706     1  0.0000000  0.6973333  3
   8701   8697   8695   8715     1  0.0000000  1.0460000  1
   8701   8697   8695   8715     1  0.0000000  0.0000000  3
   8701   8697   8695   8714     1  0.0000000  0.6508444  3
   8702   8699   8703   8713     1  0.0000000  0.6973333  3
   8702   8699   8698   8717     1  0.0000000  0.6508444  3
   8704   8697   8695   8714     1  0.0000000  1.0460000  1
   8704   8697   8695   8714     1  0.0000000  0.0000000  3
   8705   8694   8695   8714     1  0.0000000  0.6508444  3
   8708   8705   8710   8711     1  0.0000000  0.6973333  3
   8708   8705   8694   8712     1  0.0000000  1.0460000  1
   8708   8705   8694   8712     1  0.0000000  0.0000000  3
   8709   8705   8710   8711     1  0.0000000  0.6973333  3
   8709   8705   8694   8712     1  0.0000000  1.0460000  1
   8709   8705   8694   8712     1  0.0000000  0.0000000  3
   8712   8699   8703   8713     1  0.0000000  0.6973333  3
   8712   8694   8695   8714     1  0.0000000  1.0460000  1
   8712   8694   8695   8714     1  0.0000000  0.0000000  3
   8714   8695   8715   8716     1  0.0000000  0.6973333  3
   8718   8719   8721   8725     1  0.0000000  0.6508444  3
   8718   8719   8739   8740     1  0.0000000  1.0460000  1
   8718   8719   8739   8740     1  0.0000000  0.6694400  3
   8718   8729   8734   8735     1  0.0000000  1.0460000  1
   8718   8729   8734   8735     1  0.0000000  0.6694400  3
   8718   8736   8723   8726     1  0.0000000  1.6038667  3
   8719   8721   8722   8724     1  0.0000000  0.6508444  3
   8719   8721   8728   8730     1  0.0000000  1.0460000  1
   8719   8721   8728   8730     1  0.0000000  0.6694400  3
   8719   8718   8729   8732     1  0.0000000  0.6508444  3
   8719   8718   8729   8733     1  0.0000000  0.6508444  3
   8720   8718   8719   8721     1  0.0000000  0.6508444  3
   8720   8718   8719   8739     1  0.0000000  1.0460000  1
   8720   8718   8719   8739     1  0.0000000  0.0000000  3
   8720   8718   8719   8738     1  0.0000000  0.6508444  3
   8720   8718   8729   8734     1  0.0000000  1.0460000  1
   8720   8718   8729   8734     1  0.0000000  0.0000000  3
   8720   8718   8729   8732     1  0.0000000  0.6508444  3
   8720   8718   8729   8733     1  0.0000000  0.6508444  3
   8720   8718   8736   8723     1  0.0000000  1.6038667  3
   8721   8722   8723   8726     1  0.0000000  0.6508444  3
   8721   8722   8741   8731     1  0.0000000  1.2552000  3
   8721   8719   8739   8740     1  0.0000000  1.0460000  1
   8721   8719   8739   8740     1  0.0000000  0.6694400  3
   8722   8723   8727   8737     1  0.0000000  1.0460000  1
   8722   8723   8727   8737     1  0.0000000  0.6694400  3
   8722   8721   8728   8730     1  0.0000000  1.0460000  1
   8722   8721   8728   8730     1  0.0000000  0.6694400  3
   8722   8721   8719   8738     1  0.0000000  0.6508444  3
   8723   8722   8741   8731     1  0.0000000  1.2552000  3
   8723   8722   8721   8725     1  0.0000000  0.6508444  3
   8724   8722   8723   8727     1  0.0000000  1.0460000  1
   8724   8722   8723   8727     1  0.0000000  0.0000000  3
   8724   8722   8723   8736     1  0.0000000  1.0460000  1
   8724   8722   8723   8736     1  0.0000000  0.0000000  3
   8724   8722   8723   8726     1  0.0000000  0.6508444  3
   8724   8722   8741   8731     1  0.0000000  1.2552000  3
   8724   8722   8721   8728     1  0.0000000  1.0460000  1
   8724   8722   8721   8728     1  0.0000000  0.0000000  3
   8724   8722   8721   8725     1  0.0000000  0.6508444  3
   8725   8721   8722   8741     1  0.0000000  0.6508444  3
   8725   8721   8728   8730     1  0.0000000  0.6973333  3
   8725   8721   8719   8739     1  0.0000000  1.0460000  1
   8725   8721   8719   8739     1  0.0000000  0.0000000  3
   8725   8721   8719   8738     1  0.0000000  0.6508444  3
   8726   8723   8727   8737     1  0.0000000  0.6973333  3
   8726   8723   8722   8741     1  0.0000000  0.6508444  3
   8728   8721   8719   8738     1  0.0000000  1.0460000  1
   8728   8721   8719   8738     1  0.0000000  0.0000000  3
   8729   8718   8719   8738     1  0.0000000  0.6508444  3
   8732   8729   8734   8735     1  0.0000000  0.6973333  3
   8732   8729   8718   8736     1  0.0000000  1.0460000  1
   8732   8729   8718   8736     1  0.0000000  0.0000000  3
   8733   8729   8734   8735     1  0.0000000  0.6973333  3
   8733   8729   8718   8736     1  0.0000000  1.0460000  1
   8733   8729   8718   8736     1  0.0000000  0.0000000  3
   8736   8723   8727   8737     1  0.0000000  0.6973333  3
   8736   8718   8719   8738     1  0.0000000  1.0460000  1
   8736   8718   8719   8738     1  0.0000000  0.0000000  3
   8738   8719   8739   8740     1  0.0000000  0.6973333  3
   8743   8745   8747   8749     1  0.0000000  0.6508444  3
   8743   8745   8747   8750     1  0.0000000  0.6508444  3
   8744   8743   8745   8747     1  0.0000000  0.0000000  2
   8744   8743   8745   8746     1  0.0000000  0.0000000  2
   8744   8743   8745   8748     1  0.0000000  0.0000000  2
   8745   8747   8751   8816     1  0.0000000  0.6508444  3
   8746   8745   8747   8751     1  0.0000000  0.6508444  3
   8746   8745   8747   8749     1  0.0000000  0.6508444  3
   8746   8745   8747   8750     1  0.0000000  0.6508444  3
   8747   8751   8752   8761     1  0.0000000  0.6508444  3
   8747   8751   8752   8762     1  0.0000000  0.6508444  3
   8747   8751   8753   8754     1  0.0000000  0.6508444  3
   8747   8751   8753   8756     1  0.0000000  0.6508444  3
   8748   8745   8747   8751     1  0.0000000  0.6508444  3
   8748   8745   8747   8749     1  0.0000000  0.6508444  3
   8748   8745   8747   8750     1  0.0000000  0.6508444  3
   8749   8747   8751   8752     1  0.0000000  0.6508444  3
   8749   8747   8751   8753     1  0.0000000  0.6508444  3
   8749   8747   8751   8816     1  0.0000000  0.6508444  3
   8750   8747   8751   8752     1  0.0000000  0.6508444  3
   8750   8747   8751   8753     1  0.0000000  0.6508444  3
   8750   8747   8751   8816     1  0.0000000  0.6508444  3
   8751   8752   8763   8764     1  0.0000000  0.6508444  3
   8751   8752   8763   8765     1  0.0000000  0.6508444  3
   8751   8753   8755   8757     1  0.0000000  0.6508444  3
   8751   8753   8755   8758     1  0.0000000  0.6508444  3
   8752   8751   8753   8754     1  0.0000000  0.6508444  3
   8752   8751   8753   8756     1  0.0000000  0.6508444  3
   8753   8751   8752   8761     1  0.0000000  0.6508444  3
   8753   8751   8752   8762     1  0.0000000  0.6508444  3
   8754   8753   8751   8816     1  0.0000000  0.6508444  3
   8754   8753   8755   8759     1  0.0000000  0.6508444  3
   8754   8753   8755   8757     1  0.0000000  0.6508444  3
   8754   8753   8755   8758     1  0.0000000  0.6508444  3
   8755   8753   8751   8816     1  0.0000000  0.6508444  3
   8755   8759   8791   8781     1  180.0000771  6.0668000  2
   8755   8759   8791   8781     1  180.0000771  1.4644000  4
   8756   8753   8751   8816     1  0.0000000  0.6508444  3
   8756   8753   8755   8759     1  0.0000000  0.6508444  3
   8756   8753   8755   8757     1  0.0000000  0.6508444  3
   8756   8753   8755   8758     1  0.0000000  0.6508444  3
   8757   8755   8759   8760     1  0.0000000  3.3472000  1
   8757   8755   8759   8760     1  0.0000000  0.0000000  2
   8757   8755   8759   8760     1  180.0000771  0.3347200  3
   8757   8755   8759   8791     1  180.0000771  0.0000000  2
   8758   8755   8759   8760     1  0.0000000  3.3472000  1
   8758   8755   8759   8760     1  0.0000000  0.0000000  2
   8758   8755   8759   8760     1  180.0000771  0.3347200  3
   8758   8755   8759   8791     1  180.0000771  0.0000000  2
   8759   8791   8772   8774     1  0.0000000  1.2552000  3
   8760   8759   8791   8781     1  180.0000771  6.0668000  2
   8760   8759   8791   8781     1  180.0000771  1.4644000  4
   8761   8752   8751   8816     1  0.0000000  0.6508444  3
   8761   8752   8763   8766     1  0.0000000  0.6508444  3
   8761   8752   8763   8764     1  0.0000000  0.6508444  3
   8761   8752   8763   8765     1  0.0000000  0.6508444  3
   8762   8752   8751   8816     1  0.0000000  0.6508444  3
   8762   8752   8763   8766     1  0.0000000  0.6508444  3
   8762   8752   8763   8764     1  0.0000000  0.6508444  3
   8762   8752   8763   8765     1  0.0000000  0.6508444  3
   8763   8752   8751   8816     1  0.0000000  0.6508444  3
   8763   8766   8815   8805     1  180.0000771  6.0668000  2
   8763   8766   8815   8805     1  180.0000771  1.4644000  4
   8764   8763   8766   8767     1  0.0000000  3.3472000  1
   8764   8763   8766   8767     1  0.0000000  0.0000000  2
   8764   8763   8766   8767     1  180.0000771  0.3347200  3
   8764   8763   8766   8815     1  180.0000771  0.0000000  2
   8765   8763   8766   8767     1  0.0000000  3.3472000  1
   8765   8763   8766   8767     1  0.0000000  0.0000000  2
   8765   8763   8766   8767     1  180.0000771  0.3347200  3
   8765   8763   8766   8815     1  180.0000771  0.0000000  2
   8766   8815   8796   8798     1  0.0000000  1.2552000  3
   8767   8766   8815   8805     1  180.0000771  6.0668000  2
   8767   8766   8815   8805     1  180.0000771  1.4644000  4
   8768   8769   8771   8775     1  0.0000000  0.6508444  3
   8768   8769   8789   8790     1  0.0000000  1.0460000  1
   8768   8769   8789   8790     1  0.0000000  0.6694400  3
   8768   8779   8784   8785     1  0.0000000  1.0460000  1
   8768   8779   8784   8785     1  0.0000000  0.6694400  3
   8768   8786   8773   8776     1  0.0000000  1.6038667  3
   8769   8768   8779   8782     1  0.0000000  0.6508444  3
   8769   8768   8779   8783     1  0.0000000  0.6508444  3
   8769   8771   8772   8774     1  0.0000000  0.6508444  3
   8769   8771   8778   8780     1  0.0000000  1.0460000  1
   8769   8771   8778   8780     1  0.0000000  0.6694400  3
   8770   8768   8769   8771     1  0.0000000  0.6508444  3
   8770   8768   8769   8789     1  0.0000000  1.0460000  1
   8770   8768   8769   8789     1  0.0000000  0.0000000  3
   8770   8768   8769   8788     1  0.0000000  0.6508444  3
   8770   8768   8779   8784     1  0.0000000  1.0460000  1
   8770   8768   8779   8784     1  0.0000000  0.0000000  3
   8770   8768   8779   8782     1  0.0000000  0.6508444  3
   8770   8768   8779   8783     1  0.0000000  0.6508444  3
   8770   8768   8786   8773     1  0.0000000  1.6038667  3
   8771   8769   8789   8790     1  0.0000000  1.0460000  1
   8771   8769   8789   8790     1  0.0000000  0.6694400  3
   8771   8772   8773   8776     1  0.0000000  0.6508444  3
   8771   8772   8791   8781     1  0.0000000  1.2552000  3
   8772   8771   8769   8788     1  0.0000000  0.6508444  3
   8772   8771   8778   8780     1  0.0000000  1.0460000  1
   8772   8771   8778   8780     1  0.0000000  0.6694400  3
   8772   8773   8777   8787     1  0.0000000  1.0460000  1
   8772   8773   8777   8787     1  0.0000000  0.6694400  3
   8773   8772   8771   8775     1  0.0000000  0.6508444  3
   8773   8772   8791   8781     1  0.0000000  1.2552000  3
   8774   8772   8771   8778     1  0.0000000  1.0460000  1
   8774   8772   8771   8778     1  0.0000000  0.0000000  3
   8774   8772   8771   8775     1  0.0000000  0.6508444  3
   8774   8772   8773   8777     1  0.0000000  1.0460000  1
   8774   8772   8773   8777     1  0.0000000  0.0000000  3
   8774   8772   8773   8786     1  0.0000000  1.0460000  1
   8774   8772   8773   8786     1  0.0000000  0.0000000  3
   8774   8772   8773   8776     1  0.0000000  0.6508444  3
   8774   8772   8791   8781     1  0.0000000  1.2552000  3
   8775   8771   8769   8789     1  0.0000000  1.0460000  1
   8775   8771   8769   8789     1  0.0000000  0.0000000  3
   8775   8771   8769   8788     1  0.0000000  0.6508444  3
   8775   8771   8772   8791     1  0.0000000  0.6508444  3
   8775   8771   8778   8780     1  0.0000000  0.6973333  3
   8776   8773   8772   8791     1  0.0000000  0.6508444  3
   8776   8773   8777   8787     1  0.0000000  0.6973333  3
   8778   8771   8769   8788     1  0.0000000  1.0460000  1
   8778   8771   8769   8788     1  0.0000000  0.0000000  3
   8779   8768   8769   8788     1  0.0000000  0.6508444  3
   8782   8779   8768   8786     1  0.0000000  1.0460000  1
   8782   8779   8768   8786     1  0.0000000  0.0000000  3
   8782   8779   8784   8785     1  0.0000000  0.6973333  3
   8783   8779   8768   8786     1  0.0000000  1.0460000  1
   8783   8779   8768   8786     1  0.0000000  0.0000000  3
   8783   8779   8784   8785     1  0.0000000  0.6973333  3
   8786   8768   8769   8788     1  0.0000000  1.0460000  1
   8786   8768   8769   8788     1  0.0000000  0.0000000  3
   8786   8773   8777   8787     1  0.0000000  0.6973333  3
   8788   8769   8789   8790     1  0.0000000  0.6973333  3
   8792   8793   8795   8799     1  0.0000000  0.6508444  3
   8792   8793   8813   8814     1  0.0000000  1.0460000  1
   8792   8793   8813   8814     1  0.0000000  0.6694400  3
   8792   8803   8808   8809     1  0.0000000  1.0460000  1
   8792   8803   8808   8809     1  0.0000000  0.6694400  3
   8792   8810   8797   8800     1  0.0000000  1.6038667  3
   8793   8792   8803   8806     1  0.0000000  0.6508444  3
   8793   8792   8803   8807     1  0.0000000  0.6508444  3
   8793   8795   8796   8798     1  0.0000000  0.6508444  3
   8793   8795   8802   8804     1  0.0000000  1.0460000  1
   8793   8795   8802   8804     1  0.0000000  0.6694400  3
   8794   8792   8793   8795     1  0.0000000  0.6508444  3
   8794   8792   8793   8813     1  0.0000000  1.0460000  1
   8794   8792   8793   8813     1  0.0000000  0.0000000  3
   8794   8792   8793   8812     1  0.0000000  0.6508444  3
   8794   8792   8803   8808     1  0.0000000  1.0460000  1
   8794   8792   8803   8808     1  0.0000000  0.0000000  3
   8794   8792   8803   8806     1  0.0000000  0.6508444  3
   8794   8792   8803   8807     1  0.0000000  0.6508444  3
   8794   8792   8810   8797     1  0.0000000  1.6038667  3
   8795   8793   8813   8814     1  0.0000000  1.0460000  1
   8795   8793   8813   8814     1  0.0000000  0.6694400  3
   8795   8796   8797   8800     1  0.0000000  0.6508444  3
   8795   8796   8815   8805     1  0.0000000  1.2552000  3
   8796   8795   8793   8812     1  0.0000000  0.6508444  3
   8796   8795   8802   8804     1  0.0000000  1.0460000  1
   8796   8795   8802   8804     1  0.0000000  0.6694400  3
   8796   8797   8801   8811     1  0.0000000  1.0460000  1
   8796   8797   8801   8811     1  0.0000000  0.6694400  3
   8797   8796   8795   8799     1  0.0000000  0.6508444  3
   8797   8796   8815   8805     1  0.0000000  1.2552000  3
   8798   8796   8795   8802     1  0.0000000  1.0460000  1
   8798   8796   8795   8802     1  0.0000000  0.0000000  3
   8798   8796   8795   8799     1  0.0000000  0.6508444  3
   8798   8796   8797   8801     1  0.0000000  1.0460000  1
   8798   8796   8797   8801     1  0.0000000  0.0000000  3
   8798   8796   8797   8810     1  0.0000000  1.0460000  1
   8798   8796   8797   8810     1  0.0000000  0.0000000  3
   8798   8796   8797   8800     1  0.0000000  0.6508444  3
   8798   8796   8815   8805     1  0.0000000  1.2552000  3
   8799   8795   8793   8813     1  0.0000000  1.0460000  1
   8799   8795   8793   8813     1  0.0000000  0.0000000  3
   8799   8795   8793   8812     1  0.0000000  0.6508444  3
   8799   8795   8796   8815     1  0.0000000  0.6508444  3
   8799   8795   8802   8804     1  0.0000000  0.6973333  3
   8800   8797   8796   8815     1  0.0000000  0.6508444  3
   8800   8797   8801   8811     1  0.0000000  0.6973333  3
   8802   8795   8793   8812     1  0.0000000  1.0460000  1
   8802   8795   8793   8812     1  0.0000000  0.0000000  3
   8803   8792   8793   8812     1  0.0000000  0.6508444  3
   8806   8803   8792   8810     1  0.0000000  1.0460000  1
   8806   8803   8792   8810     1  0.0000000  0.0000000  3
   8806   8803   8808   8809     1  0.0000000  0.6973333  3
   8807   8803   8792   8810     1  0.0000000  1.0460000  1
   8807   8803   8792   8810     1  0.0000000  0.0000000  3
   8807   8803   8808   8809     1  0.0000000  0.6973333  3
   8810   8792   8793   8812     1  0.0000000  1.0460000  1
   8810   8792   8793   8812     1  0.0000000  0.0000000  3
   8810   8797   8801   8811     1  0.0000000  0.6973333  3
   8812   8793   8813   8814     1  0.0000000  0.6973333  3
   8817   8819   8821   8823     1  0.0000000  0.6508444  3
   8817   8819   8821   8824     1  0.0000000  0.6508444  3
   8818   8817   8819   8821     1  0.0000000  0.0000000  2
   8818   8817   8819   8820     1  0.0000000  0.0000000  2
   8818   8817   8819   8822     1  0.0000000  0.0000000  2
   8819   8821   8825   8890     1  0.0000000  0.6508444  3
   8820   8819   8821   8825     1  0.0000000  0.6508444  3
   8820   8819   8821   8823     1  0.0000000  0.6508444  3
   8820   8819   8821   8824     1  0.0000000  0.6508444  3
   8821   8825   8826   8835     1  0.0000000  0.6508444  3
   8821   8825   8826   8836     1  0.0000000  0.6508444  3
   8821   8825   8827   8828     1  0.0000000  0.6508444  3
   8821   8825   8827   8830     1  0.0000000  0.6508444  3
   8822   8819   8821   8825     1  0.0000000  0.6508444  3
   8822   8819   8821   8823     1  0.0000000  0.6508444  3
   8822   8819   8821   8824     1  0.0000000  0.6508444  3
   8823   8821   8825   8826     1  0.0000000  0.6508444  3
   8823   8821   8825   8827     1  0.0000000  0.6508444  3
   8823   8821   8825   8890     1  0.0000000  0.6508444  3
   8824   8821   8825   8826     1  0.0000000  0.6508444  3
   8824   8821   8825   8827     1  0.0000000  0.6508444  3
   8824   8821   8825   8890     1  0.0000000  0.6508444  3
   8825   8826   8837   8838     1  0.0000000  0.6508444  3
   8825   8826   8837   8839     1  0.0000000  0.6508444  3
   8825   8827   8829   8831     1  0.0000000  0.6508444  3
   8825   8827   8829   8832     1  0.0000000  0.6508444  3
   8826   8825   8827   8828     1  0.0000000  0.6508444  3
   8826   8825   8827   8830     1  0.0000000  0.6508444  3
   8827   8825   8826   8835     1  0.0000000  0.6508444  3
   8827   8825   8826   8836     1  0.0000000  0.6508444  3
   8828   8827   8829   8833     1  0.0000000  0.6508444  3
   8828   8827   8829   8831     1  0.0000000  0.6508444  3
   8828   8827   8829   8832     1  0.0000000  0.6508444  3
   8828   8827   8825   8890     1  0.0000000  0.6508444  3
   8829   8833   8865   8855     1  180.0000771  6.0668000  2
   8829   8833   8865   8855     1  180.0000771  1.4644000  4
   8829   8827   8825   8890     1  0.0000000  0.6508444  3
   8830   8827   8829   8833     1  0.0000000  0.6508444  3
   8830   8827   8829   8831     1  0.0000000  0.6508444  3
   8830   8827   8829   8832     1  0.0000000  0.6508444  3
   8830   8827   8825   8890     1  0.0000000  0.6508444  3
   8831   8829   8833   8834     1  0.0000000  3.3472000  1
   8831   8829   8833   8834     1  0.0000000  0.0000000  2
   8831   8829   8833   8834     1  180.0000771  0.3347200  3
   8831   8829   8833   8865     1  180.0000771  0.0000000  2
   8832   8829   8833   8834     1  0.0000000  3.3472000  1
   8832   8829   8833   8834     1  0.0000000  0.0000000  2
   8832   8829   8833   8834     1  180.0000771  0.3347200  3
   8832   8829   8833   8865     1  180.0000771  0.0000000  2
   8833   8865   8846   8848     1  0.0000000  1.2552000  3
   8834   8833   8865   8855     1  180.0000771  6.0668000  2
   8834   8833   8865   8855     1  180.0000771  1.4644000  4
   8835   8826   8837   8840     1  0.0000000  0.6508444  3
   8835   8826   8837   8838     1  0.0000000  0.6508444  3
   8835   8826   8837   8839     1  0.0000000  0.6508444  3
   8835   8826   8825   8890     1  0.0000000  0.6508444  3
   8836   8826   8837   8840     1  0.0000000  0.6508444  3
   8836   8826   8837   8838     1  0.0000000  0.6508444  3
   8836   8826   8837   8839     1  0.0000000  0.6508444  3
   8836   8826   8825   8890     1  0.0000000  0.6508444  3
   8837   8840   8889   8879     1  180.0000771  6.0668000  2
   8837   8840   8889   8879     1  180.0000771  1.4644000  4
   8837   8826   8825   8890     1  0.0000000  0.6508444  3
   8838   8837   8840   8841     1  0.0000000  3.3472000  1
   8838   8837   8840   8841     1  0.0000000  0.0000000  2
   8838   8837   8840   8841     1  180.0000771  0.3347200  3
   8838   8837   8840   8889     1  180.0000771  0.0000000  2
   8839   8837   8840   8841     1  0.0000000  3.3472000  1
   8839   8837   8840   8841     1  0.0000000  0.0000000  2
   8839   8837   8840   8841     1  180.0000771  0.3347200  3
   8839   8837   8840   8889     1  180.0000771  0.0000000  2
   8840   8889   8870   8872     1  0.0000000  1.2552000  3
   8841   8840   8889   8879     1  180.0000771  6.0668000  2
   8841   8840   8889   8879     1  180.0000771  1.4644000  4
   8842   8843   8845   8849     1  0.0000000  0.6508444  3
   8842   8843   8863   8864     1  0.0000000  1.0460000  1
   8842   8843   8863   8864     1  0.0000000  0.6694400  3
   8842   8853   8858   8859     1  0.0000000  1.0460000  1
   8842   8853   8858   8859     1  0.0000000  0.6694400  3
   8842   8860   8847   8850     1  0.0000000  1.6038667  3
   8843   8845   8846   8848     1  0.0000000  0.6508444  3
   8843   8845   8852   8854     1  0.0000000  1.0460000  1
   8843   8845   8852   8854     1  0.0000000  0.6694400  3
   8843   8842   8853   8856     1  0.0000000  0.6508444  3
   8843   8842   8853   8857     1  0.0000000  0.6508444  3
   8844   8842   8843   8845     1  0.0000000  0.6508444  3
   8844   8842   8843   8863     1  0.0000000  1.0460000  1
   8844   8842   8843   8863     1  0.0000000  0.0000000  3
   8844   8842   8843   8862     1  0.0000000  0.6508444  3
   8844   8842   8853   8858     1  0.0000000  1.0460000  1
   8844   8842   8853   8858     1  0.0000000  0.0000000  3
   8844   8842   8853   8856     1  0.0000000  0.6508444  3
   8844   8842   8853   8857     1  0.0000000  0.6508444  3
   8844   8842   8860   8847     1  0.0000000  1.6038667  3
   8845   8846   8847   8850     1  0.0000000  0.6508444  3
   8845   8846   8865   8855     1  0.0000000  1.2552000  3
   8845   8843   8863   8864     1  0.0000000  1.0460000  1
   8845   8843   8863   8864     1  0.0000000  0.6694400  3
   8846   8847   8851   8861     1  0.0000000  1.0460000  1
   8846   8847   8851   8861     1  0.0000000  0.6694400  3
   8846   8845   8852   8854     1  0.0000000  1.0460000  1
   8846   8845   8852   8854     1  0.0000000  0.6694400  3
   8846   8845   8843   8862     1  0.0000000  0.6508444  3
   8847   8846   8865   8855     1  0.0000000  1.2552000  3
   8847   8846   8845   8849     1  0.0000000  0.6508444  3
   8848   8846   8847   8851     1  0.0000000  1.0460000  1
   8848   8846   8847   8851     1  0.0000000  0.0000000  3
   8848   8846   8847   8860     1  0.0000000  1.0460000  1
   8848   8846   8847   8860     1  0.0000000  0.0000000  3
   8848   8846   8847   8850     1  0.0000000  0.6508444  3
   8848   8846   8865   8855     1  0.0000000  1.2552000  3
   8848   8846   8845   8852     1  0.0000000  1.0460000  1
   8848   8846   8845   8852     1  0.0000000  0.0000000  3
   8848   8846   8845   8849     1  0.0000000  0.6508444  3
   8849   8845   8846   8865     1  0.0000000  0.6508444  3
   8849   8845   8852   8854     1  0.0000000  0.6973333  3
   8849   8845   8843   8863     1  0.0000000  1.0460000  1
   8849   8845   8843   8863     1  0.0000000  0.0000000  3
   8849   8845   8843   8862     1  0.0000000  0.6508444  3
   8850   8847   8851   8861     1  0.0000000  0.6973333  3
   8850   8847   8846   8865     1  0.0000000  0.6508444  3
   8852   8845   8843   8862     1  0.0000000  1.0460000  1
   8852   8845   8843   8862     1  0.0000000  0.0000000  3
   8853   8842   8843   8862     1  0.0000000  0.6508444  3
   8856   8853   8858   8859     1  0.0000000  0.6973333  3
   8856   8853   8842   8860     1  0.0000000  1.0460000  1
   8856   8853   8842   8860     1  0.0000000  0.0000000  3
   8857   8853   8858   8859     1  0.0000000  0.6973333  3
   8857   8853   8842   8860     1  0.0000000  1.0460000  1
   8857   8853   8842   8860     1  0.0000000  0.0000000  3
   8860   8847   8851   8861     1  0.0000000  0.6973333  3
   8860   8842   8843   8862     1  0.0000000  1.0460000  1
   8860   8842   8843   8862     1  0.0000000  0.0000000  3
   8862   8843   8863   8864     1  0.0000000  0.6973333  3
   8866   8867   8869   8873     1  0.0000000  0.6508444  3
   8866   8867   8887   8888     1  0.0000000  1.0460000  1
   8866   8867   8887   8888     1  0.0000000  0.6694400  3
   8866   8877   8882   8883     1  0.0000000  1.0460000  1
   8866   8877   8882   8883     1  0.0000000  0.6694400  3
   8866   8884   8871   8874     1  0.0000000  1.6038667  3
   8867   8869   8870   8872     1  0.0000000  0.6508444  3
   8867   8869   8876   8878     1  0.0000000  1.0460000  1
   8867   8869   8876   8878     1  0.0000000  0.6694400  3
   8867   8866   8877   8880     1  0.0000000  0.6508444  3
   8867   8866   8877   8881     1  0.0000000  0.6508444  3
   8868   8866   8867   8869     1  0.0000000  0.6508444  3
   8868   8866   8867   8887     1  0.0000000  1.0460000  1
   8868   8866   8867   8887     1  0.0000000  0.0000000  3
   8868   8866   8867   8886     1  0.0000000  0.6508444  3
   8868   8866   8877   8882     1  0.0000000  1.0460000  1
   8868   8866   8877   8882     1  0.0000000  0.0000000  3
   8868   8866   8877   8880     1  0.0000000  0.6508444  3
   8868   8866   8877   8881     1  0.0000000  0.6508444  3
   8868   8866   8884   8871     1  0.0000000  1.6038667  3
   8869   8870   8871   8874     1  0.0000000  0.6508444  3
   8869   8870   8889   8879     1  0.0000000  1.2552000  3
   8869   8867   8887   8888     1  0.0000000  1.0460000  1
   8869   8867   8887   8888     1  0.0000000  0.6694400  3
   8870   8871   8875   8885     1  0.0000000  1.0460000  1
   8870   8871   8875   8885     1  0.0000000  0.6694400  3
   8870   8869   8876   8878     1  0.0000000  1.0460000  1
   8870   8869   8876   8878     1  0.0000000  0.6694400  3
   8870   8869   8867   8886     1  0.0000000  0.6508444  3
   8871   8870   8889   8879     1  0.0000000  1.2552000  3
   8871   8870   8869   8873     1  0.0000000  0.6508444  3
   8872   8870   8871   8875     1  0.0000000  1.0460000  1
   8872   8870   8871   8875     1  0.0000000  0.0000000  3
   8872   8870   8871   8884     1  0.0000000  1.0460000  1
   8872   8870   8871   8884     1  0.0000000  0.0000000  3
   8872   8870   8871   8874     1  0.0000000  0.6508444  3
   8872   8870   8889   8879     1  0.0000000  1.2552000  3
   8872   8870   8869   8876     1  0.0000000  1.0460000  1
   8872   8870   8869   8876     1  0.0000000  0.0000000  3
   8872   8870   8869   8873     1  0.0000000  0.6508444  3
   8873   8869   8870   8889     1  0.0000000  0.6508444  3
   8873   8869   8876   8878     1  0.0000000  0.6973333  3
   8873   8869   8867   8887     1  0.0000000  1.0460000  1
   8873   8869   8867   8887     1  0.0000000  0.0000000  3
   8873   8869   8867   8886     1  0.0000000  0.6508444  3
   8874   8871   8875   8885     1  0.0000000  0.6973333  3
   8874   8871   8870   8889     1  0.0000000  0.6508444  3
   8876   8869   8867   8886     1  0.0000000  1.0460000  1
   8876   8869   8867   8886     1  0.0000000  0.0000000  3
   8877   8866   8867   8886     1  0.0000000  0.6508444  3
   8880   8877   8882   8883     1  0.0000000  0.6973333  3
   8880   8877   8866   8884     1  0.0000000  1.0460000  1
   8880   8877   8866   8884     1  0.0000000  0.0000000  3
   8881   8877   8882   8883     1  0.0000000  0.6973333  3
   8881   8877   8866   8884     1  0.0000000  1.0460000  1
   8881   8877   8866   8884     1  0.0000000  0.0000000  3
   8884   8871   8875   8885     1  0.0000000  0.6973333  3
   8884   8866   8867   8886     1  0.0000000  1.0460000  1
   8884   8866   8867   8886     1  0.0000000  0.0000000  3
   8886   8867   8887   8888     1  0.0000000  0.6973333  3
   8891   8893   8895   8897     1  0.0000000  0.6508444  3
   8891   8893   8895   8898     1  0.0000000  0.6508444  3
   8892   8891   8893   8895     1  0.0000000  0.0000000  2
   8892   8891   8893   8894     1  0.0000000  0.0000000  2
   8892   8891   8893   8896     1  0.0000000  0.0000000  2
   8893   8895   8899   8964     1  0.0000000  0.6508444  3
   8894   8893   8895   8899     1  0.0000000  0.6508444  3
   8894   8893   8895   8897     1  0.0000000  0.6508444  3
   8894   8893   8895   8898     1  0.0000000  0.6508444  3
   8895   8899   8900   8909     1  0.0000000  0.6508444  3
   8895   8899   8900   8910     1  0.0000000  0.6508444  3
   8895   8899   8901   8902     1  0.0000000  0.6508444  3
   8895   8899   8901   8904     1  0.0000000  0.6508444  3
   8896   8893   8895   8899     1  0.0000000  0.6508444  3
   8896   8893   8895   8897     1  0.0000000  0.6508444  3
   8896   8893   8895   8898     1  0.0000000  0.6508444  3
   8897   8895   8899   8900     1  0.0000000  0.6508444  3
   8897   8895   8899   8901     1  0.0000000  0.6508444  3
   8897   8895   8899   8964     1  0.0000000  0.6508444  3
   8898   8895   8899   8900     1  0.0000000  0.6508444  3
   8898   8895   8899   8901     1  0.0000000  0.6508444  3
   8898   8895   8899   8964     1  0.0000000  0.6508444  3
   8899   8900   8911   8912     1  0.0000000  0.6508444  3
   8899   8900   8911   8913     1  0.0000000  0.6508444  3
   8899   8901   8903   8905     1  0.0000000  0.6508444  3
   8899   8901   8903   8906     1  0.0000000  0.6508444  3
   8900   8899   8901   8902     1  0.0000000  0.6508444  3
   8900   8899   8901   8904     1  0.0000000  0.6508444  3
   8901   8899   8900   8909     1  0.0000000  0.6508444  3
   8901   8899   8900   8910     1  0.0000000  0.6508444  3
   8902   8901   8899   8964     1  0.0000000  0.6508444  3
   8902   8901   8903   8907     1  0.0000000  0.6508444  3
   8902   8901   8903   8905     1  0.0000000  0.6508444  3
   8902   8901   8903   8906     1  0.0000000  0.6508444  3
   8903   8901   8899   8964     1  0.0000000  0.6508444  3
   8903   8907   8939   8929     1  180.0000771  6.0668000  2
   8903   8907   8939   8929     1  180.0000771  1.4644000  4
   8904   8901   8899   8964     1  0.0000000  0.6508444  3
   8904   8901   8903   8907     1  0.0000000  0.6508444  3
   8904   8901   8903   8905     1  0.0000000  0.6508444  3
   8904   8901   8903   8906     1  0.0000000  0.6508444  3
   8905   8903   8907   8908     1  0.0000000  3.3472000  1
   8905   8903   8907   8908     1  0.0000000  0.0000000  2
   8905   8903   8907   8908     1  180.0000771  0.3347200  3
   8905   8903   8907   8939     1  180.0000771  0.0000000  2
   8906   8903   8907   8908     1  0.0000000  3.3472000  1
   8906   8903   8907   8908     1  0.0000000  0.0000000  2
   8906   8903   8907   8908     1  180.0000771  0.3347200  3
   8906   8903   8907   8939     1  180.0000771  0.0000000  2
   8907   8939   8920   8922     1  0.0000000  1.2552000  3
   8908   8907   8939   8929     1  180.0000771  6.0668000  2
   8908   8907   8939   8929     1  180.0000771  1.4644000  4
   8909   8900   8899   8964     1  0.0000000  0.6508444  3
   8909   8900   8911   8914     1  0.0000000  0.6508444  3
   8909   8900   8911   8912     1  0.0000000  0.6508444  3
   8909   8900   8911   8913     1  0.0000000  0.6508444  3
   8910   8900   8899   8964     1  0.0000000  0.6508444  3
   8910   8900   8911   8914     1  0.0000000  0.6508444  3
   8910   8900   8911   8912     1  0.0000000  0.6508444  3
   8910   8900   8911   8913     1  0.0000000  0.6508444  3
   8911   8900   8899   8964     1  0.0000000  0.6508444  3
   8911   8914   8963   8953     1  180.0000771  6.0668000  2
   8911   8914   8963   8953     1  180.0000771  1.4644000  4
   8912   8911   8914   8915     1  0.0000000  3.3472000  1
   8912   8911   8914   8915     1  0.0000000  0.0000000  2
   8912   8911   8914   8915     1  180.0000771  0.3347200  3
   8912   8911   8914   8963     1  180.0000771  0.0000000  2
   8913   8911   8914   8915     1  0.0000000  3.3472000  1
   8913   8911   8914   8915     1  0.0000000  0.0000000  2
   8913   8911   8914   8915     1  180.0000771  0.3347200  3
   8913   8911   8914   8963     1  180.0000771  0.0000000  2
   8914   8963   8944   8946     1  0.0000000  1.2552000  3
   8915   8914   8963   8953     1  180.0000771  6.0668000  2
   8915   8914   8963   8953     1  180.0000771  1.4644000  4
   8916   8917   8919   8923     1  0.0000000  0.6508444  3
   8916   8917   8937   8938     1  0.0000000  1.0460000  1
   8916   8917   8937   8938     1  0.0000000  0.6694400  3
   8916   8927   8932   8933     1  0.0000000  1.0460000  1
   8916   8927   8932   8933     1  0.0000000  0.6694400  3
   8916   8934   8921   8924     1  0.0000000  1.6038667  3
   8917   8916   8927   8930     1  0.0000000  0.6508444  3
   8917   8916   8927   8931     1  0.0000000  0.6508444  3
   8917   8919   8920   8922     1  0.0000000  0.6508444  3
   8917   8919   8926   8928     1  0.0000000  1.0460000  1
   8917   8919   8926   8928     1  0.0000000  0.6694400  3
   8918   8916   8917   8919     1  0.0000000  0.6508444  3
   8918   8916   8917   8937     1  0.0000000  1.0460000  1
   8918   8916   8917   8937     1  0.0000000  0.0000000  3
   8918   8916   8917   8936     1  0.0000000  0.6508444  3
   8918   8916   8927   8932     1  0.0000000  1.0460000  1
   8918   8916   8927   8932     1  0.0000000  0.0000000  3
   8918   8916   8927   8930     1  0.0000000  0.6508444  3
   8918   8916   8927   8931     1  0.0000000  0.6508444  3
   8918   8916   8934   8921     1  0.0000000  1.6038667  3
   8919   8917   8937   8938     1  0.0000000  1.0460000  1
   8919   8917   8937   8938     1  0.0000000  0.6694400  3
   8919   8920   8921   8924     1  0.0000000  0.6508444  3
   8919   8920   8939   8929     1  0.0000000  1.2552000  3
   8920   8919   8917   8936     1  0.0000000  0.6508444  3
   8920   8919   8926   8928     1  0.0000000  1.0460000  1
   8920   8919   8926   8928     1  0.0000000  0.6694400  3
   8920   8921   8925   8935     1  0.0000000  1.0460000  1
   8920   8921   8925   8935     1  0.0000000  0.6694400  3
   8921   8920   8919   8923     1  0.0000000  0.6508444  3
   8921   8920   8939   8929     1  0.0000000  1.2552000  3
   8922   8920   8919   8926     1  0.0000000  1.0460000  1
   8922   8920   8919   8926     1  0.0000000  0.0000000  3
   8922   8920   8919   8923     1  0.0000000  0.6508444  3
   8922   8920   8921   8925     1  0.0000000  1.0460000  1
   8922   8920   8921   8925     1  0.0000000  0.0000000  3
   8922   8920   8921   8934     1  0.0000000  1.0460000  1
   8922   8920   8921   8934     1  0.0000000  0.0000000  3
   8922   8920   8921   8924     1  0.0000000  0.6508444  3
   8922   8920   8939   8929     1  0.0000000  1.2552000  3
   8923   8919   8917   8937     1  0.0000000  1.0460000  1
   8923   8919   8917   8937     1  0.0000000  0.0000000  3
   8923   8919   8917   8936     1  0.0000000  0.6508444  3
   8923   8919   8920   8939     1  0.0000000  0.6508444  3
   8923   8919   8926   8928     1  0.0000000  0.6973333  3
   8924   8921   8920   8939     1  0.0000000  0.6508444  3
   8924   8921   8925   8935     1  0.0000000  0.6973333  3
   8926   8919   8917   8936     1  0.0000000  1.0460000  1
   8926   8919   8917   8936     1  0.0000000  0.0000000  3
   8927   8916   8917   8936     1  0.0000000  0.6508444  3
   8930   8927   8916   8934     1  0.0000000  1.0460000  1
   8930   8927   8916   8934     1  0.0000000  0.0000000  3
   8930   8927   8932   8933     1  0.0000000  0.6973333  3
   8931   8927   8916   8934     1  0.0000000  1.0460000  1
   8931   8927   8916   8934     1  0.0000000  0.0000000  3
   8931   8927   8932   8933     1  0.0000000  0.6973333  3
   8934   8916   8917   8936     1  0.0000000  1.0460000  1
   8934   8916   8917   8936     1  0.0000000  0.0000000  3
   8934   8921   8925   8935     1  0.0000000  0.6973333  3
   8936   8917   8937   8938     1  0.0000000  0.6973333  3
   8940   8941   8943   8947     1  0.0000000  0.6508444  3
   8940   8941   8961   8962     1  0.0000000  1.0460000  1
   8940   8941   8961   8962     1  0.0000000  0.6694400  3
   8940   8951   8956   8957     1  0.0000000  1.0460000  1
   8940   8951   8956   8957     1  0.0000000  0.6694400  3
   8940   8958   8945   8948     1  0.0000000  1.6038667  3
   8941   8940   8951   8954     1  0.0000000  0.6508444  3
   8941   8940   8951   8955     1  0.0000000  0.6508444  3
   8941   8943   8944   8946     1  0.0000000  0.6508444  3
   8941   8943   8950   8952     1  0.0000000  1.0460000  1
   8941   8943   8950   8952     1  0.0000000  0.6694400  3
   8942   8940   8941   8943     1  0.0000000  0.6508444  3
   8942   8940   8941   8961     1  0.0000000  1.0460000  1
   8942   8940   8941   8961     1  0.0000000  0.0000000  3
   8942   8940   8941   8960     1  0.0000000  0.6508444  3
   8942   8940   8951   8956     1  0.0000000  1.0460000  1
   8942   8940   8951   8956     1  0.0000000  0.0000000  3
   8942   8940   8951   8954     1  0.0000000  0.6508444  3
   8942   8940   8951   8955     1  0.0000000  0.6508444  3
   8942   8940   8958   8945     1  0.0000000  1.6038667  3
   8943   8941   8961   8962     1  0.0000000  1.0460000  1
   8943   8941   8961   8962     1  0.0000000  0.6694400  3
   8943   8944   8945   8948     1  0.0000000  0.6508444  3
   8943   8944   8963   8953     1  0.0000000  1.2552000  3
   8944   8943   8941   8960     1  0.0000000  0.6508444  3
   8944   8943   8950   8952     1  0.0000000  1.0460000  1
   8944   8943   8950   8952     1  0.0000000  0.6694400  3
   8944   8945   8949   8959     1  0.0000000  1.0460000  1
   8944   8945   8949   8959     1  0.0000000  0.6694400  3
   8945   8944   8943   8947     1  0.0000000  0.6508444  3
   8945   8944   8963   8953     1  0.0000000  1.2552000  3
   8946   8944   8943   8950     1  0.0000000  1.0460000  1
   8946   8944   8943   8950     1  0.0000000  0.0000000  3
   8946   8944   8943   8947     1  0.0000000  0.6508444  3
   8946   8944   8945   8949     1  0.0000000  1.0460000  1
   8946   8944   8945   8949     1  0.0000000  0.0000000  3
   8946   8944   8945   8958     1  0.0000000  1.0460000  1
   8946   8944   8945   8958     1  0.0000000  0.0000000  3
   8946   8944   8945   8948     1  0.0000000  0.6508444  3
   8946   8944   8963   8953     1  0.0000000  1.2552000  3
   8947   8943   8941   8961     1  0.0000000  1.0460000  1
   8947   8943   8941   8961     1  0.0000000  0.0000000  3
   8947   8943   8941   8960     1  0.0000000  0.6508444  3
   8947   8943   8944   8963     1  0.0000000  0.6508444  3
   8947   8943   8950   8952     1  0.0000000  0.6973333  3
   8948   8945   8944   8963     1  0.0000000  0.6508444  3
   8948   8945   8949   8959     1  0.0000000  0.6973333  3
   8950   8943   8941   8960     1  0.0000000  1.0460000  1
   8950   8943   8941   8960     1  0.0000000  0.0000000  3
   8951   8940   8941   8960     1  0.0000000  0.6508444  3
   8954   8951   8940   8958     1  0.0000000  1.0460000  1
   8954   8951   8940   8958     1  0.0000000  0.0000000  3
   8954   8951   8956   8957     1  0.0000000  0.6973333  3
   8955   8951   8940   8958     1  0.0000000  1.0460000  1
   8955   8951   8940   8958     1  0.0000000  0.0000000  3
   8955   8951   8956   8957     1  0.0000000  0.6973333  3
   8958   8940   8941   8960     1  0.0000000  1.0460000  1
   8958   8940   8941   8960     1  0.0000000  0.0000000  3
   8958   8945   8949   8959     1  0.0000000  0.6973333  3
   8960   8941   8961   8962     1  0.0000000  0.6973333  3
   8965   8967   8969   8971     1  0.0000000  0.6508444  3
   8965   8967   8969   8972     1  0.0000000  0.6508444  3
   8966   8965   8967   8969     1  0.0000000  0.0000000  2
   8966   8965   8967   8968     1  0.0000000  0.0000000  2
   8966   8965   8967   8970     1  0.0000000  0.0000000  2
   8967   8969   8973   9038     1  0.0000000  0.6508444  3
   8968   8967   8969   8973     1  0.0000000  0.6508444  3
   8968   8967   8969   8971     1  0.0000000  0.6508444  3
   8968   8967   8969   8972     1  0.0000000  0.6508444  3
   8969   8973   8974   8983     1  0.0000000  0.6508444  3
   8969   8973   8974   8984     1  0.0000000  0.6508444  3
   8969   8973   8975   8976     1  0.0000000  0.6508444  3
   8969   8973   8975   8978     1  0.0000000  0.6508444  3
   8970   8967   8969   8973     1  0.0000000  0.6508444  3
   8970   8967   8969   8971     1  0.0000000  0.6508444  3
   8970   8967   8969   8972     1  0.0000000  0.6508444  3
   8971   8969   8973   8974     1  0.0000000  0.6508444  3
   8971   8969   8973   8975     1  0.0000000  0.6508444  3
   8971   8969   8973   9038     1  0.0000000  0.6508444  3
   8972   8969   8973   8974     1  0.0000000  0.6508444  3
   8972   8969   8973   8975     1  0.0000000  0.6508444  3
   8972   8969   8973   9038     1  0.0000000  0.6508444  3
   8973   8974   8985   8986     1  0.0000000  0.6508444  3
   8973   8974   8985   8987     1  0.0000000  0.6508444  3
   8973   8975   8977   8979     1  0.0000000  0.6508444  3
   8973   8975   8977   8980     1  0.0000000  0.6508444  3
   8974   8973   8975   8976     1  0.0000000  0.6508444  3
   8974   8973   8975   8978     1  0.0000000  0.6508444  3
   8975   8973   8974   8983     1  0.0000000  0.6508444  3
   8975   8973   8974   8984     1  0.0000000  0.6508444  3
   8976   8975   8977   8981     1  0.0000000  0.6508444  3
   8976   8975   8977   8979     1  0.0000000  0.6508444  3
   8976   8975   8977   8980     1  0.0000000  0.6508444  3
   8976   8975   8973   9038     1  0.0000000  0.6508444  3
   8977   8981   9013   9003     1  180.0000771  6.0668000  2
   8977   8981   9013   9003     1  180.0000771  1.4644000  4
   8977   8975   8973   9038     1  0.0000000  0.6508444  3
   8978   8975   8977   8981     1  0.0000000  0.6508444  3
   8978   8975   8977   8979     1  0.0000000  0.6508444  3
   8978   8975   8977   8980     1  0.0000000  0.6508444  3
   8978   8975   8973   9038     1  0.0000000  0.6508444  3
   8979   8977   8981   8982     1  0.0000000  3.3472000  1
   8979   8977   8981   8982     1  0.0000000  0.0000000  2
   8979   8977   8981   8982     1  180.0000771  0.3347200  3
   8979   8977   8981   9013     1  180.0000771  0.0000000  2
   8980   8977   8981   8982     1  0.0000000  3.3472000  1
   8980   8977   8981   8982     1  0.0000000  0.0000000  2
   8980   8977   8981   8982     1  180.0000771  0.3347200  3
   8980   8977   8981   9013     1  180.0000771  0.0000000  2
   8981   9013   8994   8996     1  0.0000000  1.2552000  3
   8982   8981   9013   9003     1  180.0000771  6.0668000  2
   8982   8981   9013   9003     1  180.0000771  1.4644000  4
   8983   8974   8985   8988     1  0.0000000  0.6508444  3
   8983   8974   8985   8986     1  0.0000000  0.6508444  3
   8983   8974   8985   8987     1  0.0000000  0.6508444  3
   8983   8974   8973   9038     1  0.0000000  0.6508444  3
   8984   8974   8985   8988     1  0.0000000  0.6508444  3
   8984   8974   8985   8986     1  0.0000000  0.6508444  3
   8984   8974   8985   8987     1  0.0000000  0.6508444  3
   8984   8974   8973   9038     1  0.0000000  0.6508444  3
   8985   8988   9037   9027     1  180.0000771  6.0668000  2
   8985   8988   9037   9027     1  180.0000771  1.4644000  4
   8985   8974   8973   9038     1  0.0000000  0.6508444  3
   8986   8985   8988   8989     1  0.0000000  3.3472000  1
   8986   8985   8988   8989     1  0.0000000  0.0000000  2
   8986   8985   8988   8989     1  180.0000771  0.3347200  3
   8986   8985   8988   9037     1  180.0000771  0.0000000  2
   8987   8985   8988   8989     1  0.0000000  3.3472000  1
   8987   8985   8988   8989     1  0.0000000  0.0000000  2
   8987   8985   8988   8989     1  180.0000771  0.3347200  3
   8987   8985   8988   9037     1  180.0000771  0.0000000  2
   8988   9037   9018   9020     1  0.0000000  1.2552000  3
   8989   8988   9037   9027     1  180.0000771  6.0668000  2
   8989   8988   9037   9027     1  180.0000771  1.4644000  4
   8990   8991   8993   8997     1  0.0000000  0.6508444  3
   8990   8991   9011   9012     1  0.0000000  1.0460000  1
   8990   8991   9011   9012     1  0.0000000  0.6694400  3
   8990   9001   9006   9007     1  0.0000000  1.0460000  1
   8990   9001   9006   9007     1  0.0000000  0.6694400  3
   8990   9008   8995   8998     1  0.0000000  1.6038667  3
   8991   8993   8994   8996     1  0.0000000  0.6508444  3
   8991   8993   9000   9002     1  0.0000000  1.0460000  1
   8991   8993   9000   9002     1  0.0000000  0.6694400  3
   8991   8990   9001   9004     1  0.0000000  0.6508444  3
   8991   8990   9001   9005     1  0.0000000  0.6508444  3
   8992   8990   8991   8993     1  0.0000000  0.6508444  3
   8992   8990   8991   9011     1  0.0000000  1.0460000  1
   8992   8990   8991   9011     1  0.0000000  0.0000000  3
   8992   8990   8991   9010     1  0.0000000  0.6508444  3
   8992   8990   9001   9006     1  0.0000000  1.0460000  1
   8992   8990   9001   9006     1  0.0000000  0.0000000  3
   8992   8990   9001   9004     1  0.0000000  0.6508444  3
   8992   8990   9001   9005     1  0.0000000  0.6508444  3
   8992   8990   9008   8995     1  0.0000000  1.6038667  3
   8993   8994   8995   8998     1  0.0000000  0.6508444  3
   8993   8994   9013   9003     1  0.0000000  1.2552000  3
   8993   8991   9011   9012     1  0.0000000  1.0460000  1
   8993   8991   9011   9012     1  0.0000000  0.6694400  3
   8994   8995   8999   9009     1  0.0000000  1.0460000  1
   8994   8995   8999   9009     1  0.0000000  0.6694400  3
   8994   8993   9000   9002     1  0.0000000  1.0460000  1
   8994   8993   9000   9002     1  0.0000000  0.6694400  3
   8994   8993   8991   9010     1  0.0000000  0.6508444  3
   8995   8994   9013   9003     1  0.0000000  1.2552000  3
   8995   8994   8993   8997     1  0.0000000  0.6508444  3
   8996   8994   8995   8999     1  0.0000000  1.0460000  1
   8996   8994   8995   8999     1  0.0000000  0.0000000  3
   8996   8994   8995   9008     1  0.0000000  1.0460000  1
   8996   8994   8995   9008     1  0.0000000  0.0000000  3
   8996   8994   8995   8998     1  0.0000000  0.6508444  3
   8996   8994   9013   9003     1  0.0000000  1.2552000  3
   8996   8994   8993   9000     1  0.0000000  1.0460000  1
   8996   8994   8993   9000     1  0.0000000  0.0000000  3
   8996   8994   8993   8997     1  0.0000000  0.6508444  3
   8997   8993   8994   9013     1  0.0000000  0.6508444  3
   8997   8993   9000   9002     1  0.0000000  0.6973333  3
   8997   8993   8991   9011     1  0.0000000  1.0460000  1
   8997   8993   8991   9011     1  0.0000000  0.0000000  3
   8997   8993   8991   9010     1  0.0000000  0.6508444  3
   8998   8995   8999   9009     1  0.0000000  0.6973333  3
   8998   8995   8994   9013     1  0.0000000  0.6508444  3
   9000   8993   8991   9010     1  0.0000000  1.0460000  1
   9000   8993   8991   9010     1  0.0000000  0.0000000  3
   9001   8990   8991   9010     1  0.0000000  0.6508444  3
   9004   9001   9006   9007     1  0.0000000  0.6973333  3
   9004   9001   8990   9008     1  0.0000000  1.0460000  1
   9004   9001   8990   9008     1  0.0000000  0.0000000  3
   9005   9001   9006   9007     1  0.0000000  0.6973333  3
   9005   9001   8990   9008     1  0.0000000  1.0460000  1
   9005   9001   8990   9008     1  0.0000000  0.0000000  3
   9008   8995   8999   9009     1  0.0000000  0.6973333  3
   9008   8990   8991   9010     1  0.0000000  1.0460000  1
   9008   8990   8991   9010     1  0.0000000  0.0000000  3
   9010   8991   9011   9012     1  0.0000000  0.6973333  3
   9014   9015   9017   9021     1  0.0000000  0.6508444  3
   9014   9015   9035   9036     1  0.0000000  1.0460000  1
   9014   9015   9035   9036     1  0.0000000  0.6694400  3
   9014   9025   9030   9031     1  0.0000000  1.0460000  1
   9014   9025   9030   9031     1  0.0000000  0.6694400  3
   9014   9032   9019   9022     1  0.0000000  1.6038667  3
   9015   9017   9018   9020     1  0.0000000  0.6508444  3
   9015   9017   9024   9026     1  0.0000000  1.0460000  1
   9015   9017   9024   9026     1  0.0000000  0.6694400  3
   9015   9014   9025   9028     1  0.0000000  0.6508444  3
   9015   9014   9025   9029     1  0.0000000  0.6508444  3
   9016   9014   9015   9017     1  0.0000000  0.6508444  3
   9016   9014   9015   9035     1  0.0000000  1.0460000  1
   9016   9014   9015   9035     1  0.0000000  0.0000000  3
   9016   9014   9015   9034     1  0.0000000  0.6508444  3
   9016   9014   9025   9030     1  0.0000000  1.0460000  1
   9016   9014   9025   9030     1  0.0000000  0.0000000  3
   9016   9014   9025   9028     1  0.0000000  0.6508444  3
   9016   9014   9025   9029     1  0.0000000  0.6508444  3
   9016   9014   9032   9019     1  0.0000000  1.6038667  3
   9017   9018   9019   9022     1  0.0000000  0.6508444  3
   9017   9018   9037   9027     1  0.0000000  1.2552000  3
   9017   9015   9035   9036     1  0.0000000  1.0460000  1
   9017   9015   9035   9036     1  0.0000000  0.6694400  3
   9018   9019   9023   9033     1  0.0000000  1.0460000  1
   9018   9019   9023   9033     1  0.0000000  0.6694400  3
   9018   9017   9024   9026     1  0.0000000  1.0460000  1
   9018   9017   9024   9026     1  0.0000000  0.6694400  3
   9018   9017   9015   9034     1  0.0000000  0.6508444  3
   9019   9018   9037   9027     1  0.0000000  1.2552000  3
   9019   9018   9017   9021     1  0.0000000  0.6508444  3
   9020   9018   9019   9023     1  0.0000000  1.0460000  1
   9020   9018   9019   9023     1  0.0000000  0.0000000  3
   9020   9018   9019   9032     1  0.0000000  1.0460000  1
   9020   9018   9019   9032     1  0.0000000  0.0000000  3
   9020   9018   9019   9022     1  0.0000000  0.6508444  3
   9020   9018   9037   9027     1  0.0000000  1.2552000  3
   9020   9018   9017   9024     1  0.0000000  1.0460000  1
   9020   9018   9017   9024     1  0.0000000  0.0000000  3
   9020   9018   9017   9021     1  0.0000000  0.6508444  3
   9021   9017   9018   9037     1  0.0000000  0.6508444  3
   9021   9017   9024   9026     1  0.0000000  0.6973333  3
   9021   9017   9015   9035     1  0.0000000  1.0460000  1
   9021   9017   9015   9035     1  0.0000000  0.0000000  3
   9021   9017   9015   9034     1  0.0000000  0.6508444  3
   9022   9019   9023   9033     1  0.0000000  0.6973333  3
   9022   9019   9018   9037     1  0.0000000  0.6508444  3
   9024   9017   9015   9034     1  0.0000000  1.0460000  1
   9024   9017   9015   9034     1  0.0000000  0.0000000  3
   9025   9014   9015   9034     1  0.0000000  0.6508444  3
   9028   9025   9030   9031     1  0.0000000  0.6973333  3
   9028   9025   9014   9032     1  0.0000000  1.0460000  1
   9028   9025   9014   9032     1  0.0000000  0.0000000  3
   9029   9025   9030   9031     1  0.0000000  0.6973333  3
   9029   9025   9014   9032     1  0.0000000  1.0460000  1
   9029   9025   9014   9032     1  0.0000000  0.0000000  3
   9032   9019   9023   9033     1  0.0000000  0.6973333  3
   9032   9014   9015   9034     1  0.0000000  1.0460000  1
   9032   9014   9015   9034     1  0.0000000  0.0000000  3
   9034   9015   9035   9036     1  0.0000000  0.6973333  3
   9039   9041   9043   9045     1  0.0000000  0.6508444  3
   9039   9041   9043   9046     1  0.0000000  0.6508444  3
   9040   9039   9041   9043     1  0.0000000  0.0000000  2
   9040   9039   9041   9042     1  0.0000000  0.0000000  2
   9040   9039   9041   9044     1  0.0000000  0.0000000  2
   9041   9043   9047   9112     1  0.0000000  0.6508444  3
   9042   9041   9043   9047     1  0.0000000  0.6508444  3
   9042   9041   9043   9045     1  0.0000000  0.6508444  3
   9042   9041   9043   9046     1  0.0000000  0.6508444  3
   9043   9047   9048   9057     1  0.0000000  0.6508444  3
   9043   9047   9048   9058     1  0.0000000  0.6508444  3
   9043   9047   9049   9050     1  0.0000000  0.6508444  3
   9043   9047   9049   9052     1  0.0000000  0.6508444  3
   9044   9041   9043   9047     1  0.0000000  0.6508444  3
   9044   9041   9043   9045     1  0.0000000  0.6508444  3
   9044   9041   9043   9046     1  0.0000000  0.6508444  3
   9045   9043   9047   9048     1  0.0000000  0.6508444  3
   9045   9043   9047   9049     1  0.0000000  0.6508444  3
   9045   9043   9047   9112     1  0.0000000  0.6508444  3
   9046   9043   9047   9048     1  0.0000000  0.6508444  3
   9046   9043   9047   9049     1  0.0000000  0.6508444  3
   9046   9043   9047   9112     1  0.0000000  0.6508444  3
   9047   9048   9059   9060     1  0.0000000  0.6508444  3
   9047   9048   9059   9061     1  0.0000000  0.6508444  3
   9047   9049   9051   9053     1  0.0000000  0.6508444  3
   9047   9049   9051   9054     1  0.0000000  0.6508444  3
   9048   9047   9049   9050     1  0.0000000  0.6508444  3
   9048   9047   9049   9052     1  0.0000000  0.6508444  3
   9049   9047   9048   9057     1  0.0000000  0.6508444  3
   9049   9047   9048   9058     1  0.0000000  0.6508444  3
   9050   9049   9047   9112     1  0.0000000  0.6508444  3
   9050   9049   9051   9055     1  0.0000000  0.6508444  3
   9050   9049   9051   9053     1  0.0000000  0.6508444  3
   9050   9049   9051   9054     1  0.0000000  0.6508444  3
   9051   9049   9047   9112     1  0.0000000  0.6508444  3
   9051   9055   9087   9077     1  180.0000771  6.0668000  2
   9051   9055   9087   9077     1  180.0000771  1.4644000  4
   9052   9049   9047   9112     1  0.0000000  0.6508444  3
   9052   9049   9051   9055     1  0.0000000  0.6508444  3
   9052   9049   9051   9053     1  0.0000000  0.6508444  3
   9052   9049   9051   9054     1  0.0000000  0.6508444  3
   9053   9051   9055   9056     1  0.0000000  3.3472000  1
   9053   9051   9055   9056     1  0.0000000  0.0000000  2
   9053   9051   9055   9056     1  180.0000771  0.3347200  3
   9053   9051   9055   9087     1  180.0000771  0.0000000  2
   9054   9051   9055   9056     1  0.0000000  3.3472000  1
   9054   9051   9055   9056     1  0.0000000  0.0000000  2
   9054   9051   9055   9056     1  180.0000771  0.3347200  3
   9054   9051   9055   9087     1  180.0000771  0.0000000  2
   9055   9087   9068   9070     1  0.0000000  1.2552000  3
   9056   9055   9087   9077     1  180.0000771  6.0668000  2
   9056   9055   9087   9077     1  180.0000771  1.4644000  4
   9057   9048   9047   9112     1  0.0000000  0.6508444  3
   9057   9048   9059   9062     1  0.0000000  0.6508444  3
   9057   9048   9059   9060     1  0.0000000  0.6508444  3
   9057   9048   9059   9061     1  0.0000000  0.6508444  3
   9058   9048   9047   9112     1  0.0000000  0.6508444  3
   9058   9048   9059   9062     1  0.0000000  0.6508444  3
   9058   9048   9059   9060     1  0.0000000  0.6508444  3
   9058   9048   9059   9061     1  0.0000000  0.6508444  3
   9059   9048   9047   9112     1  0.0000000  0.6508444  3
   9059   9062   9111   9101     1  180.0000771  6.0668000  2
   9059   9062   9111   9101     1  180.0000771  1.4644000  4
   9060   9059   9062   9063     1  0.0000000  3.3472000  1
   9060   9059   9062   9063     1  0.0000000  0.0000000  2
   9060   9059   9062   9063     1  180.0000771  0.3347200  3
   9060   9059   9062   9111     1  180.0000771  0.0000000  2
   9061   9059   9062   9063     1  0.0000000  3.3472000  1
   9061   9059   9062   9063     1  0.0000000  0.0000000  2
   9061   9059   9062   9063     1  180.0000771  0.3347200  3
   9061   9059   9062   9111     1  180.0000771  0.0000000  2
   9062   9111   9092   9094     1  0.0000000  1.2552000  3
   9063   9062   9111   9101     1  180.0000771  6.0668000  2
   9063   9062   9111   9101     1  180.0000771  1.4644000  4
   9064   9065   9067   9071     1  0.0000000  0.6508444  3
   9064   9065   9085   9086     1  0.0000000  1.0460000  1
   9064   9065   9085   9086     1  0.0000000  0.6694400  3
   9064   9075   9080   9081     1  0.0000000  1.0460000  1
   9064   9075   9080   9081     1  0.0000000  0.6694400  3
   9064   9082   9069   9072     1  0.0000000  1.6038667  3
   9065   9064   9075   9078     1  0.0000000  0.6508444  3
   9065   9064   9075   9079     1  0.0000000  0.6508444  3
   9065   9067   9068   9070     1  0.0000000  0.6508444  3
   9065   9067   9074   9076     1  0.0000000  1.0460000  1
   9065   9067   9074   9076     1  0.0000000  0.6694400  3
   9066   9064   9065   9067     1  0.0000000  0.6508444  3
   9066   9064   9065   9085     1  0.0000000  1.0460000  1
   9066   9064   9065   9085     1  0.0000000  0.0000000  3
   9066   9064   9065   9084     1  0.0000000  0.6508444  3
   9066   9064   9075   9080     1  0.0000000  1.0460000  1
   9066   9064   9075   9080     1  0.0000000  0.0000000  3
   9066   9064   9075   9078     1  0.0000000  0.6508444  3
   9066   9064   9075   9079     1  0.0000000  0.6508444  3
   9066   9064   9082   9069     1  0.0000000  1.6038667  3
   9067   9065   9085   9086     1  0.0000000  1.0460000  1
   9067   9065   9085   9086     1  0.0000000  0.6694400  3
   9067   9068   9069   9072     1  0.0000000  0.6508444  3
   9067   9068   9087   9077     1  0.0000000  1.2552000  3
   9068   9067   9065   9084     1  0.0000000  0.6508444  3
   9068   9067   9074   9076     1  0.0000000  1.0460000  1
   9068   9067   9074   9076     1  0.0000000  0.6694400  3
   9068   9069   9073   9083     1  0.0000000  1.0460000  1
   9068   9069   9073   9083     1  0.0000000  0.6694400  3
   9069   9068   9067   9071     1  0.0000000  0.6508444  3
   9069   9068   9087   9077     1  0.0000000  1.2552000  3
   9070   9068   9067   9074     1  0.0000000  1.0460000  1
   9070   9068   9067   9074     1  0.0000000  0.0000000  3
   9070   9068   9067   9071     1  0.0000000  0.6508444  3
   9070   9068   9069   9073     1  0.0000000  1.0460000  1
   9070   9068   9069   9073     1  0.0000000  0.0000000  3
   9070   9068   9069   9082     1  0.0000000  1.0460000  1
   9070   9068   9069   9082     1  0.0000000  0.0000000  3
   9070   9068   9069   9072     1  0.0000000  0.6508444  3
   9070   9068   9087   9077     1  0.0000000  1.2552000  3
   9071   9067   9065   9085     1  0.0000000  1.0460000  1
   9071   9067   9065   9085     1  0.0000000  0.0000000  3
   9071   9067   9065   9084     1  0.0000000  0.6508444  3
   9071   9067   9068   9087     1  0.0000000  0.6508444  3
   9071   9067   9074   9076     1  0.0000000  0.6973333  3
   9072   9069   9068   9087     1  0.0000000  0.6508444  3
   9072   9069   9073   9083     1  0.0000000  0.6973333  3
   9074   9067   9065   9084     1  0.0000000  1.0460000  1
   9074   9067   9065   9084     1  0.0000000  0.0000000  3
   9075   9064   9065   9084     1  0.0000000  0.6508444  3
   9078   9075   9064   9082     1  0.0000000  1.0460000  1
   9078   9075   9064   9082     1  0.0000000  0.0000000  3
   9078   9075   9080   9081     1  0.0000000  0.6973333  3
   9079   9075   9064   9082     1  0.0000000  1.0460000  1
   9079   9075   9064   9082     1  0.0000000  0.0000000  3
   9079   9075   9080   9081     1  0.0000000  0.6973333  3
   9082   9064   9065   9084     1  0.0000000  1.0460000  1
   9082   9064   9065   9084     1  0.0000000  0.0000000  3
   9082   9069   9073   9083     1  0.0000000  0.6973333  3
   9084   9065   9085   9086     1  0.0000000  0.6973333  3
   9088   9089   9091   9095     1  0.0000000  0.6508444  3
   9088   9089   9109   9110     1  0.0000000  1.0460000  1
   9088   9089   9109   9110     1  0.0000000  0.6694400  3
   9088   9099   9104   9105     1  0.0000000  1.0460000  1
   9088   9099   9104   9105     1  0.0000000  0.6694400  3
   9088   9106   9093   9096     1  0.0000000  1.6038667  3
   9089   9088   9099   9102     1  0.0000000  0.6508444  3
   9089   9088   9099   9103     1  0.0000000  0.6508444  3
   9089   9091   9092   9094     1  0.0000000  0.6508444  3
   9089   9091   9098   9100     1  0.0000000  1.0460000  1
   9089   9091   9098   9100     1  0.0000000  0.6694400  3
   9090   9088   9089   9091     1  0.0000000  0.6508444  3
   9090   9088   9089   9109     1  0.0000000  1.0460000  1
   9090   9088   9089   9109     1  0.0000000  0.0000000  3
   9090   9088   9089   9108     1  0.0000000  0.6508444  3
   9090   9088   9099   9104     1  0.0000000  1.0460000  1
   9090   9088   9099   9104     1  0.0000000  0.0000000  3
   9090   9088   9099   9102     1  0.0000000  0.6508444  3
   9090   9088   9099   9103     1  0.0000000  0.6508444  3
   9090   9088   9106   9093     1  0.0000000  1.6038667  3
   9091   9089   9109   9110     1  0.0000000  1.0460000  1
   9091   9089   9109   9110     1  0.0000000  0.6694400  3
   9091   9092   9093   9096     1  0.0000000  0.6508444  3
   9091   9092   9111   9101     1  0.0000000  1.2552000  3
   9092   9091   9089   9108     1  0.0000000  0.6508444  3
   9092   9091   9098   9100     1  0.0000000  1.0460000  1
   9092   9091   9098   9100     1  0.0000000  0.6694400  3
   9092   9093   9097   9107     1  0.0000000  1.0460000  1
   9092   9093   9097   9107     1  0.0000000  0.6694400  3
   9093   9092   9091   9095     1  0.0000000  0.6508444  3
   9093   9092   9111   9101     1  0.0000000  1.2552000  3
   9094   9092   9091   9098     1  0.0000000  1.0460000  1
   9094   9092   9091   9098     1  0.0000000  0.0000000  3
   9094   9092   9091   9095     1  0.0000000  0.6508444  3
   9094   9092   9093   9097     1  0.0000000  1.0460000  1
   9094   9092   9093   9097     1  0.0000000  0.0000000  3
   9094   9092   9093   9106     1  0.0000000  1.0460000  1
   9094   9092   9093   9106     1  0.0000000  0.0000000  3
   9094   9092   9093   9096     1  0.0000000  0.6508444  3
   9094   9092   9111   9101     1  0.0000000  1.2552000  3
   9095   9091   9089   9109     1  0.0000000  1.0460000  1
   9095   9091   9089   9109     1  0.0000000  0.0000000  3
   9095   9091   9089   9108     1  0.0000000  0.6508444  3
   9095   9091   9092   9111     1  0.0000000  0.6508444  3
   9095   9091   9098   9100     1  0.0000000  0.6973333  3
   9096   9093   9092   9111     1  0.0000000  0.6508444  3
   9096   9093   9097   9107     1  0.0000000  0.6973333  3
   9098   9091   9089   9108     1  0.0000000  1.0460000  1
   9098   9091   9089   9108     1  0.0000000  0.0000000  3
   9099   9088   9089   9108     1  0.0000000  0.6508444  3
   9102   9099   9088   9106     1  0.0000000  1.0460000  1
   9102   9099   9088   9106     1  0.0000000  0.0000000  3
   9102   9099   9104   9105     1  0.0000000  0.6973333  3
   9103   9099   9088   9106     1  0.0000000  1.0460000  1
   9103   9099   9088   9106     1  0.0000000  0.0000000  3
   9103   9099   9104   9105     1  0.0000000  0.6973333  3
   9106   9088   9089   9108     1  0.0000000  1.0460000  1
   9106   9088   9089   9108     1  0.0000000  0.0000000  3
   9106   9093   9097   9107     1  0.0000000  0.6973333  3
   9108   9089   9109   9110     1  0.0000000  0.6973333  3
   9113   9115   9117   9119     1  0.0000000  0.6508444  3
   9113   9115   9117   9120     1  0.0000000  0.6508444  3
   9114   9113   9115   9117     1  0.0000000  0.0000000  2
   9114   9113   9115   9116     1  0.0000000  0.0000000  2
   9114   9113   9115   9118     1  0.0000000  0.0000000  2
   9115   9117   9121   9186     1  0.0000000  0.6508444  3
   9116   9115   9117   9121     1  0.0000000  0.6508444  3
   9116   9115   9117   9119     1  0.0000000  0.6508444  3
   9116   9115   9117   9120     1  0.0000000  0.6508444  3
   9117   9121   9122   9131     1  0.0000000  0.6508444  3
   9117   9121   9122   9132     1  0.0000000  0.6508444  3
   9117   9121   9123   9124     1  0.0000000  0.6508444  3
   9117   9121   9123   9126     1  0.0000000  0.6508444  3
   9118   9115   9117   9121     1  0.0000000  0.6508444  3
   9118   9115   9117   9119     1  0.0000000  0.6508444  3
   9118   9115   9117   9120     1  0.0000000  0.6508444  3
   9119   9117   9121   9122     1  0.0000000  0.6508444  3
   9119   9117   9121   9123     1  0.0000000  0.6508444  3
   9119   9117   9121   9186     1  0.0000000  0.6508444  3
   9120   9117   9121   9122     1  0.0000000  0.6508444  3
   9120   9117   9121   9123     1  0.0000000  0.6508444  3
   9120   9117   9121   9186     1  0.0000000  0.6508444  3
   9121   9122   9133   9134     1  0.0000000  0.6508444  3
   9121   9122   9133   9135     1  0.0000000  0.6508444  3
   9121   9123   9125   9127     1  0.0000000  0.6508444  3
   9121   9123   9125   9128     1  0.0000000  0.6508444  3
   9122   9121   9123   9124     1  0.0000000  0.6508444  3
   9122   9121   9123   9126     1  0.0000000  0.6508444  3
   9123   9121   9122   9131     1  0.0000000  0.6508444  3
   9123   9121   9122   9132     1  0.0000000  0.6508444  3
   9124   9123   9125   9129     1  0.0000000  0.6508444  3
   9124   9123   9125   9127     1  0.0000000  0.6508444  3
   9124   9123   9125   9128     1  0.0000000  0.6508444  3
   9124   9123   9121   9186     1  0.0000000  0.6508444  3
   9125   9129   9161   9151     1  180.0000771  6.0668000  2
   9125   9129   9161   9151     1  180.0000771  1.4644000  4
   9125   9123   9121   9186     1  0.0000000  0.6508444  3
   9126   9123   9125   9129     1  0.0000000  0.6508444  3
   9126   9123   9125   9127     1  0.0000000  0.6508444  3
   9126   9123   9125   9128     1  0.0000000  0.6508444  3
   9126   9123   9121   9186     1  0.0000000  0.6508444  3
   9127   9125   9129   9130     1  0.0000000  3.3472000  1
   9127   9125   9129   9130     1  0.0000000  0.0000000  2
   9127   9125   9129   9130     1  180.0000771  0.3347200  3
   9127   9125   9129   9161     1  180.0000771  0.0000000  2
   9128   9125   9129   9130     1  0.0000000  3.3472000  1
   9128   9125   9129   9130     1  0.0000000  0.0000000  2
   9128   9125   9129   9130     1  180.0000771  0.3347200  3
   9128   9125   9129   9161     1  180.0000771  0.0000000  2
   9129   9161   9142   9144     1  0.0000000  1.2552000  3
   9130   9129   9161   9151     1  180.0000771  6.0668000  2
   9130   9129   9161   9151     1  180.0000771  1.4644000  4
   9131   9122   9133   9136     1  0.0000000  0.6508444  3
   9131   9122   9133   9134     1  0.0000000  0.6508444  3
   9131   9122   9133   9135     1  0.0000000  0.6508444  3
   9131   9122   9121   9186     1  0.0000000  0.6508444  3
   9132   9122   9133   9136     1  0.0000000  0.6508444  3
   9132   9122   9133   9134     1  0.0000000  0.6508444  3
   9132   9122   9133   9135     1  0.0000000  0.6508444  3
   9132   9122   9121   9186     1  0.0000000  0.6508444  3
   9133   9136   9185   9175     1  180.0000771  6.0668000  2
   9133   9136   9185   9175     1  180.0000771  1.4644000  4
   9133   9122   9121   9186     1  0.0000000  0.6508444  3
   9134   9133   9136   9137     1  0.0000000  3.3472000  1
   9134   9133   9136   9137     1  0.0000000  0.0000000  2
   9134   9133   9136   9137     1  180.0000771  0.3347200  3
   9134   9133   9136   9185     1  180.0000771  0.0000000  2
   9135   9133   9136   9137     1  0.0000000  3.3472000  1
   9135   9133   9136   9137     1  0.0000000  0.0000000  2
   9135   9133   9136   9137     1  180.0000771  0.3347200  3
   9135   9133   9136   9185     1  180.0000771  0.0000000  2
   9136   9185   9166   9168     1  0.0000000  1.2552000  3
   9137   9136   9185   9175     1  180.0000771  6.0668000  2
   9137   9136   9185   9175     1  180.0000771  1.4644000  4
   9138   9139   9141   9145     1  0.0000000  0.6508444  3
   9138   9139   9159   9160     1  0.0000000  1.0460000  1
   9138   9139   9159   9160     1  0.0000000  0.6694400  3
   9138   9149   9154   9155     1  0.0000000  1.0460000  1
   9138   9149   9154   9155     1  0.0000000  0.6694400  3
   9138   9156   9143   9146     1  0.0000000  1.6038667  3
   9139   9141   9142   9144     1  0.0000000  0.6508444  3
   9139   9141   9148   9150     1  0.0000000  1.0460000  1
   9139   9141   9148   9150     1  0.0000000  0.6694400  3
   9139   9138   9149   9152     1  0.0000000  0.6508444  3
   9139   9138   9149   9153     1  0.0000000  0.6508444  3
   9140   9138   9139   9141     1  0.0000000  0.6508444  3
   9140   9138   9139   9159     1  0.0000000  1.0460000  1
   9140   9138   9139   9159     1  0.0000000  0.0000000  3
   9140   9138   9139   9158     1  0.0000000  0.6508444  3
   9140   9138   9149   9154     1  0.0000000  1.0460000  1
   9140   9138   9149   9154     1  0.0000000  0.0000000  3
   9140   9138   9149   9152     1  0.0000000  0.6508444  3
   9140   9138   9149   9153     1  0.0000000  0.6508444  3
   9140   9138   9156   9143     1  0.0000000  1.6038667  3
   9141   9142   9143   9146     1  0.0000000  0.6508444  3
   9141   9142   9161   9151     1  0.0000000  1.2552000  3
   9141   9139   9159   9160     1  0.0000000  1.0460000  1
   9141   9139   9159   9160     1  0.0000000  0.6694400  3
   9142   9143   9147   9157     1  0.0000000  1.0460000  1
   9142   9143   9147   9157     1  0.0000000  0.6694400  3
   9142   9141   9148   9150     1  0.0000000  1.0460000  1
   9142   9141   9148   9150     1  0.0000000  0.6694400  3
   9142   9141   9139   9158     1  0.0000000  0.6508444  3
   9143   9142   9161   9151     1  0.0000000  1.2552000  3
   9143   9142   9141   9145     1  0.0000000  0.6508444  3
   9144   9142   9143   9147     1  0.0000000  1.0460000  1
   9144   9142   9143   9147     1  0.0000000  0.0000000  3
   9144   9142   9143   9156     1  0.0000000  1.0460000  1
   9144   9142   9143   9156     1  0.0000000  0.0000000  3
   9144   9142   9143   9146     1  0.0000000  0.6508444  3
   9144   9142   9161   9151     1  0.0000000  1.2552000  3
   9144   9142   9141   9148     1  0.0000000  1.0460000  1
   9144   9142   9141   9148     1  0.0000000  0.0000000  3
   9144   9142   9141   9145     1  0.0000000  0.6508444  3
   9145   9141   9142   9161     1  0.0000000  0.6508444  3
   9145   9141   9148   9150     1  0.0000000  0.6973333  3
   9145   9141   9139   9159     1  0.0000000  1.0460000  1
   9145   9141   9139   9159     1  0.0000000  0.0000000  3
   9145   9141   9139   9158     1  0.0000000  0.6508444  3
   9146   9143   9147   9157     1  0.0000000  0.6973333  3
   9146   9143   9142   9161     1  0.0000000  0.6508444  3
   9148   9141   9139   9158     1  0.0000000  1.0460000  1
   9148   9141   9139   9158     1  0.0000000  0.0000000  3
   9149   9138   9139   9158     1  0.0000000  0.6508444  3
   9152   9149   9154   9155     1  0.0000000  0.6973333  3
   9152   9149   9138   9156     1  0.0000000  1.0460000  1
   9152   9149   9138   9156     1  0.0000000  0.0000000  3
   9153   9149   9154   9155     1  0.0000000  0.6973333  3
   9153   9149   9138   9156     1  0.0000000  1.0460000  1
   9153   9149   9138   9156     1  0.0000000  0.0000000  3
   9156   9143   9147   9157     1  0.0000000  0.6973333  3
   9156   9138   9139   9158     1  0.0000000  1.0460000  1
   9156   9138   9139   9158     1  0.0000000  0.0000000  3
   9158   9139   9159   9160     1  0.0000000  0.6973333  3
   9162   9163   9165   9169     1  0.0000000  0.6508444  3
   9162   9163   9183   9184     1  0.0000000  1.0460000  1
   9162   9163   9183   9184     1  0.0000000  0.6694400  3
   9162   9173   9178   9179     1  0.0000000  1.0460000  1
   9162   9173   9178   9179     1  0.0000000  0.6694400  3
   9162   9180   9167   9170     1  0.0000000  1.6038667  3
   9163   9165   9166   9168     1  0.0000000  0.6508444  3
   9163   9165   9172   9174     1  0.0000000  1.0460000  1
   9163   9165   9172   9174     1  0.0000000  0.6694400  3
   9163   9162   9173   9176     1  0.0000000  0.6508444  3
   9163   9162   9173   9177     1  0.0000000  0.6508444  3
   9164   9162   9163   9165     1  0.0000000  0.6508444  3
   9164   9162   9163   9183     1  0.0000000  1.0460000  1
   9164   9162   9163   9183     1  0.0000000  0.0000000  3
   9164   9162   9163   9182     1  0.0000000  0.6508444  3
   9164   9162   9173   9178     1  0.0000000  1.0460000  1
   9164   9162   9173   9178     1  0.0000000  0.0000000  3
   9164   9162   9173   9176     1  0.0000000  0.6508444  3
   9164   9162   9173   9177     1  0.0000000  0.6508444  3
   9164   9162   9180   9167     1  0.0000000  1.6038667  3
   9165   9166   9167   9170     1  0.0000000  0.6508444  3
   9165   9166   9185   9175     1  0.0000000  1.2552000  3
   9165   9163   9183   9184     1  0.0000000  1.0460000  1
   9165   9163   9183   9184     1  0.0000000  0.6694400  3
   9166   9167   9171   9181     1  0.0000000  1.0460000  1
   9166   9167   9171   9181     1  0.0000000  0.6694400  3
   9166   9165   9172   9174     1  0.0000000  1.0460000  1
   9166   9165   9172   9174     1  0.0000000  0.6694400  3
   9166   9165   9163   9182     1  0.0000000  0.6508444  3
   9167   9166   9185   9175     1  0.0000000  1.2552000  3
   9167   9166   9165   9169     1  0.0000000  0.6508444  3
   9168   9166   9167   9171     1  0.0000000  1.0460000  1
   9168   9166   9167   9171     1  0.0000000  0.0000000  3
   9168   9166   9167   9180     1  0.0000000  1.0460000  1
   9168   9166   9167   9180     1  0.0000000  0.0000000  3
   9168   9166   9167   9170     1  0.0000000  0.6508444  3
   9168   9166   9185   9175     1  0.0000000  1.2552000  3
   9168   9166   9165   9172     1  0.0000000  1.0460000  1
   9168   9166   9165   9172     1  0.0000000  0.0000000  3
   9168   9166   9165   9169     1  0.0000000  0.6508444  3
   9169   9165   9166   9185     1  0.0000000  0.6508444  3
   9169   9165   9172   9174     1  0.0000000  0.6973333  3
   9169   9165   9163   9183     1  0.0000000  1.0460000  1
   9169   9165   9163   9183     1  0.0000000  0.0000000  3
   9169   9165   9163   9182     1  0.0000000  0.6508444  3
   9170   9167   9171   9181     1  0.0000000  0.6973333  3
   9170   9167   9166   9185     1  0.0000000  0.6508444  3
   9172   9165   9163   9182     1  0.0000000  1.0460000  1
   9172   9165   9163   9182     1  0.0000000  0.0000000  3
   9173   9162   9163   9182     1  0.0000000  0.6508444  3
   9176   9173   9178   9179     1  0.0000000  0.6973333  3
   9176   9173   9162   9180     1  0.0000000  1.0460000  1
   9176   9173   9162   9180     1  0.0000000  0.0000000  3
   9177   9173   9178   9179     1  0.0000000  0.6973333  3
   9177   9173   9162   9180     1  0.0000000  1.0460000  1
   9177   9173   9162   9180     1  0.0000000  0.0000000  3
   9180   9167   9171   9181     1  0.0000000  0.6973333  3
   9180   9162   9163   9182     1  0.0000000  1.0460000  1
   9180   9162   9163   9182     1  0.0000000  0.0000000  3
   9182   9163   9183   9184     1  0.0000000  0.6973333  3
   9187   9189   9191   9193     1  0.0000000  0.6508444  3
   9187   9189   9191   9194     1  0.0000000  0.6508444  3
   9188   9187   9189   9191     1  0.0000000  0.0000000  2
   9188   9187   9189   9190     1  0.0000000  0.0000000  2
   9188   9187   9189   9192     1  0.0000000  0.0000000  2
   9189   9191   9195   9260     1  0.0000000  0.6508444  3
   9190   9189   9191   9195     1  0.0000000  0.6508444  3
   9190   9189   9191   9193     1  0.0000000  0.6508444  3
   9190   9189   9191   9194     1  0.0000000  0.6508444  3
   9191   9195   9196   9205     1  0.0000000  0.6508444  3
   9191   9195   9196   9206     1  0.0000000  0.6508444  3
   9191   9195   9197   9198     1  0.0000000  0.6508444  3
   9191   9195   9197   9200     1  0.0000000  0.6508444  3
   9192   9189   9191   9195     1  0.0000000  0.6508444  3
   9192   9189   9191   9193     1  0.0000000  0.6508444  3
   9192   9189   9191   9194     1  0.0000000  0.6508444  3
   9193   9191   9195   9196     1  0.0000000  0.6508444  3
   9193   9191   9195   9197     1  0.0000000  0.6508444  3
   9193   9191   9195   9260     1  0.0000000  0.6508444  3
   9194   9191   9195   9196     1  0.0000000  0.6508444  3
   9194   9191   9195   9197     1  0.0000000  0.6508444  3
   9194   9191   9195   9260     1  0.0000000  0.6508444  3
   9195   9196   9207   9208     1  0.0000000  0.6508444  3
   9195   9196   9207   9209     1  0.0000000  0.6508444  3
   9195   9197   9199   9201     1  0.0000000  0.6508444  3
   9195   9197   9199   9202     1  0.0000000  0.6508444  3
   9196   9195   9197   9198     1  0.0000000  0.6508444  3
   9196   9195   9197   9200     1  0.0000000  0.6508444  3
   9197   9195   9196   9205     1  0.0000000  0.6508444  3
   9197   9195   9196   9206     1  0.0000000  0.6508444  3
   9198   9197   9195   9260     1  0.0000000  0.6508444  3
   9198   9197   9199   9203     1  0.0000000  0.6508444  3
   9198   9197   9199   9201     1  0.0000000  0.6508444  3
   9198   9197   9199   9202     1  0.0000000  0.6508444  3
   9199   9197   9195   9260     1  0.0000000  0.6508444  3
   9199   9203   9235   9225     1  180.0000771  6.0668000  2
   9199   9203   9235   9225     1  180.0000771  1.4644000  4
   9200   9197   9195   9260     1  0.0000000  0.6508444  3
   9200   9197   9199   9203     1  0.0000000  0.6508444  3
   9200   9197   9199   9201     1  0.0000000  0.6508444  3
   9200   9197   9199   9202     1  0.0000000  0.6508444  3
   9201   9199   9203   9204     1  0.0000000  3.3472000  1
   9201   9199   9203   9204     1  0.0000000  0.0000000  2
   9201   9199   9203   9204     1  180.0000771  0.3347200  3
   9201   9199   9203   9235     1  180.0000771  0.0000000  2
   9202   9199   9203   9204     1  0.0000000  3.3472000  1
   9202   9199   9203   9204     1  0.0000000  0.0000000  2
   9202   9199   9203   9204     1  180.0000771  0.3347200  3
   9202   9199   9203   9235     1  180.0000771  0.0000000  2
   9203   9235   9216   9218     1  0.0000000  1.2552000  3
   9204   9203   9235   9225     1  180.0000771  6.0668000  2
   9204   9203   9235   9225     1  180.0000771  1.4644000  4
   9205   9196   9195   9260     1  0.0000000  0.6508444  3
   9205   9196   9207   9210     1  0.0000000  0.6508444  3
   9205   9196   9207   9208     1  0.0000000  0.6508444  3
   9205   9196   9207   9209     1  0.0000000  0.6508444  3
   9206   9196   9195   9260     1  0.0000000  0.6508444  3
   9206   9196   9207   9210     1  0.0000000  0.6508444  3
   9206   9196   9207   9208     1  0.0000000  0.6508444  3
   9206   9196   9207   9209     1  0.0000000  0.6508444  3
   9207   9196   9195   9260     1  0.0000000  0.6508444  3
   9207   9210   9259   9249     1  180.0000771  6.0668000  2
   9207   9210   9259   9249     1  180.0000771  1.4644000  4
   9208   9207   9210   9211     1  0.0000000  3.3472000  1
   9208   9207   9210   9211     1  0.0000000  0.0000000  2
   9208   9207   9210   9211     1  180.0000771  0.3347200  3
   9208   9207   9210   9259     1  180.0000771  0.0000000  2
   9209   9207   9210   9211     1  0.0000000  3.3472000  1
   9209   9207   9210   9211     1  0.0000000  0.0000000  2
   9209   9207   9210   9211     1  180.0000771  0.3347200  3
   9209   9207   9210   9259     1  180.0000771  0.0000000  2
   9210   9259   9240   9242     1  0.0000000  1.2552000  3
   9211   9210   9259   9249     1  180.0000771  6.0668000  2
   9211   9210   9259   9249     1  180.0000771  1.4644000  4
   9212   9213   9215   9219     1  0.0000000  0.6508444  3
   9212   9213   9233   9234     1  0.0000000  1.0460000  1
   9212   9213   9233   9234     1  0.0000000  0.6694400  3
   9212   9223   9228   9229     1  0.0000000  1.0460000  1
   9212   9223   9228   9229     1  0.0000000  0.6694400  3
   9212   9230   9217   9220     1  0.0000000  1.6038667  3
   9213   9212   9223   9226     1  0.0000000  0.6508444  3
   9213   9212   9223   9227     1  0.0000000  0.6508444  3
   9213   9215   9216   9218     1  0.0000000  0.6508444  3
   9213   9215   9222   9224     1  0.0000000  1.0460000  1
   9213   9215   9222   9224     1  0.0000000  0.6694400  3
   9214   9212   9213   9215     1  0.0000000  0.6508444  3
   9214   9212   9213   9233     1  0.0000000  1.0460000  1
   9214   9212   9213   9233     1  0.0000000  0.0000000  3
   9214   9212   9213   9232     1  0.0000000  0.6508444  3
   9214   9212   9223   9228     1  0.0000000  1.0460000  1
   9214   9212   9223   9228     1  0.0000000  0.0000000  3
   9214   9212   9223   9226     1  0.0000000  0.6508444  3
   9214   9212   9223   9227     1  0.0000000  0.6508444  3
   9214   9212   9230   9217     1  0.0000000  1.6038667  3
   9215   9213   9233   9234     1  0.0000000  1.0460000  1
   9215   9213   9233   9234     1  0.0000000  0.6694400  3
   9215   9216   9217   9220     1  0.0000000  0.6508444  3
   9215   9216   9235   9225     1  0.0000000  1.2552000  3
   9216   9215   9213   9232     1  0.0000000  0.6508444  3
   9216   9215   9222   9224     1  0.0000000  1.0460000  1
   9216   9215   9222   9224     1  0.0000000  0.6694400  3
   9216   9217   9221   9231     1  0.0000000  1.0460000  1
   9216   9217   9221   9231     1  0.0000000  0.6694400  3
   9217   9216   9215   9219     1  0.0000000  0.6508444  3
   9217   9216   9235   9225     1  0.0000000  1.2552000  3
   9218   9216   9215   9222     1  0.0000000  1.0460000  1
   9218   9216   9215   9222     1  0.0000000  0.0000000  3
   9218   9216   9215   9219     1  0.0000000  0.6508444  3
   9218   9216   9217   9221     1  0.0000000  1.0460000  1
   9218   9216   9217   9221     1  0.0000000  0.0000000  3
   9218   9216   9217   9230     1  0.0000000  1.0460000  1
   9218   9216   9217   9230     1  0.0000000  0.0000000  3
   9218   9216   9217   9220     1  0.0000000  0.6508444  3
   9218   9216   9235   9225     1  0.0000000  1.2552000  3
   9219   9215   9213   9233     1  0.0000000  1.0460000  1
   9219   9215   9213   9233     1  0.0000000  0.0000000  3
   9219   9215   9213   9232     1  0.0000000  0.6508444  3
   9219   9215   9216   9235     1  0.0000000  0.6508444  3
   9219   9215   9222   9224     1  0.0000000  0.6973333  3
   9220   9217   9216   9235     1  0.0000000  0.6508444  3
   9220   9217   9221   9231     1  0.0000000  0.6973333  3
   9222   9215   9213   9232     1  0.0000000  1.0460000  1
   9222   9215   9213   9232     1  0.0000000  0.0000000  3
   9223   9212   9213   9232     1  0.0000000  0.6508444  3
   9226   9223   9212   9230     1  0.0000000  1.0460000  1
   9226   9223   9212   9230     1  0.0000000  0.0000000  3
   9226   9223   9228   9229     1  0.0000000  0.6973333  3
   9227   9223   9212   9230     1  0.0000000  1.0460000  1
   9227   9223   9212   9230     1  0.0000000  0.0000000  3
   9227   9223   9228   9229     1  0.0000000  0.6973333  3
   9230   9212   9213   9232     1  0.0000000  1.0460000  1
   9230   9212   9213   9232     1  0.0000000  0.0000000  3
   9230   9217   9221   9231     1  0.0000000  0.6973333  3
   9232   9213   9233   9234     1  0.0000000  0.6973333  3
   9236   9237   9239   9243     1  0.0000000  0.6508444  3
   9236   9237   9257   9258     1  0.0000000  1.0460000  1
   9236   9237   9257   9258     1  0.0000000  0.6694400  3
   9236   9247   9252   9253     1  0.0000000  1.0460000  1
   9236   9247   9252   9253     1  0.0000000  0.6694400  3
   9236   9254   9241   9244     1  0.0000000  1.6038667  3
   9237   9236   9247   9250     1  0.0000000  0.6508444  3
   9237   9236   9247   9251     1  0.0000000  0.6508444  3
   9237   9239   9240   9242     1  0.0000000  0.6508444  3
   9237   9239   9246   9248     1  0.0000000  1.0460000  1
   9237   9239   9246   9248     1  0.0000000  0.6694400  3
   9238   9236   9237   9239     1  0.0000000  0.6508444  3
   9238   9236   9237   9257     1  0.0000000  1.0460000  1
   9238   9236   9237   9257     1  0.0000000  0.0000000  3
   9238   9236   9237   9256     1  0.0000000  0.6508444  3
   9238   9236   9247   9252     1  0.0000000  1.0460000  1
   9238   9236   9247   9252     1  0.0000000  0.0000000  3
   9238   9236   9247   9250     1  0.0000000  0.6508444  3
   9238   9236   9247   9251     1  0.0000000  0.6508444  3
   9238   9236   9254   9241     1  0.0000000  1.6038667  3
   9239   9237   9257   9258     1  0.0000000  1.0460000  1
   9239   9237   9257   9258     1  0.0000000  0.6694400  3
   9239   9240   9241   9244     1  0.0000000  0.6508444  3
   9239   9240   9259   9249     1  0.0000000  1.2552000  3
   9240   9239   9237   9256     1  0.0000000  0.6508444  3
   9240   9239   9246   9248     1  0.0000000  1.0460000  1
   9240   9239   9246   9248     1  0.0000000  0.6694400  3
   9240   9241   9245   9255     1  0.0000000  1.0460000  1
   9240   9241   9245   9255     1  0.0000000  0.6694400  3
   9241   9240   9239   9243     1  0.0000000  0.6508444  3
   9241   9240   9259   9249     1  0.0000000  1.2552000  3
   9242   9240   9239   9246     1  0.0000000  1.0460000  1
   9242   9240   9239   9246     1  0.0000000  0.0000000  3
   9242   9240   9239   9243     1  0.0000000  0.6508444  3
   9242   9240   9241   9245     1  0.0000000  1.0460000  1
   9242   9240   9241   9245     1  0.0000000  0.0000000  3
   9242   9240   9241   9254     1  0.0000000  1.0460000  1
   9242   9240   9241   9254     1  0.0000000  0.0000000  3
   9242   9240   9241   9244     1  0.0000000  0.6508444  3
   9242   9240   9259   9249     1  0.0000000  1.2552000  3
   9243   9239   9237   9257     1  0.0000000  1.0460000  1
   9243   9239   9237   9257     1  0.0000000  0.0000000  3
   9243   9239   9237   9256     1  0.0000000  0.6508444  3
   9243   9239   9240   9259     1  0.0000000  0.6508444  3
   9243   9239   9246   9248     1  0.0000000  0.6973333  3
   9244   9241   9240   9259     1  0.0000000  0.6508444  3
   9244   9241   9245   9255     1  0.0000000  0.6973333  3
   9246   9239   9237   9256     1  0.0000000  1.0460000  1
   9246   9239   9237   9256     1  0.0000000  0.0000000  3
   9247   9236   9237   9256     1  0.0000000  0.6508444  3
   9250   9247   9236   9254     1  0.0000000  1.0460000  1
   9250   9247   9236   9254     1  0.0000000  0.0000000  3
   9250   9247   9252   9253     1  0.0000000  0.6973333  3
   9251   9247   9236   9254     1  0.0000000  1.0460000  1
   9251   9247   9236   9254     1  0.0000000  0.0000000  3
   9251   9247   9252   9253     1  0.0000000  0.6973333  3
   9254   9236   9237   9256     1  0.0000000  1.0460000  1
   9254   9236   9237   9256     1  0.0000000  0.0000000  3
   9254   9241   9245   9255     1  0.0000000  0.6973333  3
   9256   9237   9257   9258     1  0.0000000  0.6973333  3
   9261   9263   9265   9267     1  0.0000000  0.6508444  3
   9261   9263   9265   9268     1  0.0000000  0.6508444  3
   9262   9261   9263   9265     1  0.0000000  0.0000000  2
   9262   9261   9263   9264     1  0.0000000  0.0000000  2
   9262   9261   9263   9266     1  0.0000000  0.0000000  2
   9263   9265   9269   9334     1  0.0000000  0.6508444  3
   9264   9263   9265   9269     1  0.0000000  0.6508444  3
   9264   9263   9265   9267     1  0.0000000  0.6508444  3
   9264   9263   9265   9268     1  0.0000000  0.6508444  3
   9265   9269   9270   9279     1  0.0000000  0.6508444  3
   9265   9269   9270   9280     1  0.0000000  0.6508444  3
   9265   9269   9271   9272     1  0.0000000  0.6508444  3
   9265   9269   9271   9274     1  0.0000000  0.6508444  3
   9266   9263   9265   9269     1  0.0000000  0.6508444  3
   9266   9263   9265   9267     1  0.0000000  0.6508444  3
   9266   9263   9265   9268     1  0.0000000  0.6508444  3
   9267   9265   9269   9270     1  0.0000000  0.6508444  3
   9267   9265   9269   9271     1  0.0000000  0.6508444  3
   9267   9265   9269   9334     1  0.0000000  0.6508444  3
   9268   9265   9269   9270     1  0.0000000  0.6508444  3
   9268   9265   9269   9271     1  0.0000000  0.6508444  3
   9268   9265   9269   9334     1  0.0000000  0.6508444  3
   9269   9270   9281   9282     1  0.0000000  0.6508444  3
   9269   9270   9281   9283     1  0.0000000  0.6508444  3
   9269   9271   9273   9275     1  0.0000000  0.6508444  3
   9269   9271   9273   9276     1  0.0000000  0.6508444  3
   9270   9269   9271   9272     1  0.0000000  0.6508444  3
   9270   9269   9271   9274     1  0.0000000  0.6508444  3
   9271   9269   9270   9279     1  0.0000000  0.6508444  3
   9271   9269   9270   9280     1  0.0000000  0.6508444  3
   9272   9271   9273   9277     1  0.0000000  0.6508444  3
   9272   9271   9273   9275     1  0.0000000  0.6508444  3
   9272   9271   9273   9276     1  0.0000000  0.6508444  3
   9272   9271   9269   9334     1  0.0000000  0.6508444  3
   9273   9277   9309   9299     1  180.0000771  6.0668000  2
   9273   9277   9309   9299     1  180.0000771  1.4644000  4
   9273   9271   9269   9334     1  0.0000000  0.6508444  3
   9274   9271   9273   9277     1  0.0000000  0.6508444  3
   9274   9271   9273   9275     1  0.0000000  0.6508444  3
   9274   9271   9273   9276     1  0.0000000  0.6508444  3
   9274   9271   9269   9334     1  0.0000000  0.6508444  3
   9275   9273   9277   9278     1  0.0000000  3.3472000  1
   9275   9273   9277   9278     1  0.0000000  0.0000000  2
   9275   9273   9277   9278     1  180.0000771  0.3347200  3
   9275   9273   9277   9309     1  180.0000771  0.0000000  2
   9276   9273   9277   9278     1  0.0000000  3.3472000  1
   9276   9273   9277   9278     1  0.0000000  0.0000000  2
   9276   9273   9277   9278     1  180.0000771  0.3347200  3
   9276   9273   9277   9309     1  180.0000771  0.0000000  2
   9277   9309   9290   9292     1  0.0000000  1.2552000  3
   9278   9277   9309   9299     1  180.0000771  6.0668000  2
   9278   9277   9309   9299     1  180.0000771  1.4644000  4
   9279   9270   9281   9284     1  0.0000000  0.6508444  3
   9279   9270   9281   9282     1  0.0000000  0.6508444  3
   9279   9270   9281   9283     1  0.0000000  0.6508444  3
   9279   9270   9269   9334     1  0.0000000  0.6508444  3
   9280   9270   9281   9284     1  0.0000000  0.6508444  3
   9280   9270   9281   9282     1  0.0000000  0.6508444  3
   9280   9270   9281   9283     1  0.0000000  0.6508444  3
   9280   9270   9269   9334     1  0.0000000  0.6508444  3
   9281   9284   9333   9323     1  180.0000771  6.0668000  2
   9281   9284   9333   9323     1  180.0000771  1.4644000  4
   9281   9270   9269   9334     1  0.0000000  0.6508444  3
   9282   9281   9284   9285     1  0.0000000  3.3472000  1
   9282   9281   9284   9285     1  0.0000000  0.0000000  2
   9282   9281   9284   9285     1  180.0000771  0.3347200  3
   9282   9281   9284   9333     1  180.0000771  0.0000000  2
   9283   9281   9284   9285     1  0.0000000  3.3472000  1
   9283   9281   9284   9285     1  0.0000000  0.0000000  2
   9283   9281   9284   9285     1  180.0000771  0.3347200  3
   9283   9281   9284   9333     1  180.0000771  0.0000000  2
   9284   9333   9314   9316     1  0.0000000  1.2552000  3
   9285   9284   9333   9323     1  180.0000771  6.0668000  2
   9285   9284   9333   9323     1  180.0000771  1.4644000  4
   9286   9287   9289   9293     1  0.0000000  0.6508444  3
   9286   9287   9307   9308     1  0.0000000  1.0460000  1
   9286   9287   9307   9308     1  0.0000000  0.6694400  3
   9286   9297   9302   9303     1  0.0000000  1.0460000  1
   9286   9297   9302   9303     1  0.0000000  0.6694400  3
   9286   9304   9291   9294     1  0.0000000  1.6038667  3
   9287   9289   9290   9292     1  0.0000000  0.6508444  3
   9287   9289   9296   9298     1  0.0000000  1.0460000  1
   9287   9289   9296   9298     1  0.0000000  0.6694400  3
   9287   9286   9297   9300     1  0.0000000  0.6508444  3
   9287   9286   9297   9301     1  0.0000000  0.6508444  3
   9288   9286   9287   9289     1  0.0000000  0.6508444  3
   9288   9286   9287   9307     1  0.0000000  1.0460000  1
   9288   9286   9287   9307     1  0.0000000  0.0000000  3
   9288   9286   9287   9306     1  0.0000000  0.6508444  3
   9288   9286   9297   9302     1  0.0000000  1.0460000  1
   9288   9286   9297   9302     1  0.0000000  0.0000000  3
   9288   9286   9297   9300     1  0.0000000  0.6508444  3
   9288   9286   9297   9301     1  0.0000000  0.6508444  3
   9288   9286   9304   9291     1  0.0000000  1.6038667  3
   9289   9290   9291   9294     1  0.0000000  0.6508444  3
   9289   9290   9309   9299     1  0.0000000  1.2552000  3
   9289   9287   9307   9308     1  0.0000000  1.0460000  1
   9289   9287   9307   9308     1  0.0000000  0.6694400  3
   9290   9291   9295   9305     1  0.0000000  1.0460000  1
   9290   9291   9295   9305     1  0.0000000  0.6694400  3
   9290   9289   9296   9298     1  0.0000000  1.0460000  1
   9290   9289   9296   9298     1  0.0000000  0.6694400  3
   9290   9289   9287   9306     1  0.0000000  0.6508444  3
   9291   9290   9309   9299     1  0.0000000  1.2552000  3
   9291   9290   9289   9293     1  0.0000000  0.6508444  3
   9292   9290   9291   9295     1  0.0000000  1.0460000  1
   9292   9290   9291   9295     1  0.0000000  0.0000000  3
   9292   9290   9291   9304     1  0.0000000  1.0460000  1
   9292   9290   9291   9304     1  0.0000000  0.0000000  3
   9292   9290   9291   9294     1  0.0000000  0.6508444  3
   9292   9290   9309   9299     1  0.0000000  1.2552000  3
   9292   9290   9289   9296     1  0.0000000  1.0460000  1
   9292   9290   9289   9296     1  0.0000000  0.0000000  3
   9292   9290   9289   9293     1  0.0000000  0.6508444  3
   9293   9289   9290   9309     1  0.0000000  0.6508444  3
   9293   9289   9296   9298     1  0.0000000  0.6973333  3
   9293   9289   9287   9307     1  0.0000000  1.0460000  1
   9293   9289   9287   9307     1  0.0000000  0.0000000  3
   9293   9289   9287   9306     1  0.0000000  0.6508444  3
   9294   9291   9295   9305     1  0.0000000  0.6973333  3
   9294   9291   9290   9309     1  0.0000000  0.6508444  3
   9296   9289   9287   9306     1  0.0000000  1.0460000  1
   9296   9289   9287   9306     1  0.0000000  0.0000000  3
   9297   9286   9287   9306     1  0.0000000  0.6508444  3
   9300   9297   9302   9303     1  0.0000000  0.6973333  3
   9300   9297   9286   9304     1  0.0000000  1.0460000  1
   9300   9297   9286   9304     1  0.0000000  0.0000000  3
   9301   9297   9302   9303     1  0.0000000  0.6973333  3
   9301   9297   9286   9304     1  0.0000000  1.0460000  1
   9301   9297   9286   9304     1  0.0000000  0.0000000  3
   9304   9291   9295   9305     1  0.0000000  0.6973333  3
   9304   9286   9287   9306     1  0.0000000  1.0460000  1
   9304   9286   9287   9306     1  0.0000000  0.0000000  3
   9306   9287   9307   9308     1  0.0000000  0.6973333  3
   9310   9311   9313   9317     1  0.0000000  0.6508444  3
   9310   9311   9331   9332     1  0.0000000  1.0460000  1
   9310   9311   9331   9332     1  0.0000000  0.6694400  3
   9310   9321   9326   9327     1  0.0000000  1.0460000  1
   9310   9321   9326   9327     1  0.0000000  0.6694400  3
   9310   9328   9315   9318     1  0.0000000  1.6038667  3
   9311   9313   9314   9316     1  0.0000000  0.6508444  3
   9311   9313   9320   9322     1  0.0000000  1.0460000  1
   9311   9313   9320   9322     1  0.0000000  0.6694400  3
   9311   9310   9321   9324     1  0.0000000  0.6508444  3
   9311   9310   9321   9325     1  0.0000000  0.6508444  3
   9312   9310   9311   9313     1  0.0000000  0.6508444  3
   9312   9310   9311   9331     1  0.0000000  1.0460000  1
   9312   9310   9311   9331     1  0.0000000  0.0000000  3
   9312   9310   9311   9330     1  0.0000000  0.6508444  3
   9312   9310   9321   9326     1  0.0000000  1.0460000  1
   9312   9310   9321   9326     1  0.0000000  0.0000000  3
   9312   9310   9321   9324     1  0.0000000  0.6508444  3
   9312   9310   9321   9325     1  0.0000000  0.6508444  3
   9312   9310   9328   9315     1  0.0000000  1.6038667  3
   9313   9314   9315   9318     1  0.0000000  0.6508444  3
   9313   9314   9333   9323     1  0.0000000  1.2552000  3
   9313   9311   9331   9332     1  0.0000000  1.0460000  1
   9313   9311   9331   9332     1  0.0000000  0.6694400  3
   9314   9315   9319   9329     1  0.0000000  1.0460000  1
   9314   9315   9319   9329     1  0.0000000  0.6694400  3
   9314   9313   9320   9322     1  0.0000000  1.0460000  1
   9314   9313   9320   9322     1  0.0000000  0.6694400  3
   9314   9313   9311   9330     1  0.0000000  0.6508444  3
   9315   9314   9333   9323     1  0.0000000  1.2552000  3
   9315   9314   9313   9317     1  0.0000000  0.6508444  3
   9316   9314   9315   9319     1  0.0000000  1.0460000  1
   9316   9314   9315   9319     1  0.0000000  0.0000000  3
   9316   9314   9315   9328     1  0.0000000  1.0460000  1
   9316   9314   9315   9328     1  0.0000000  0.0000000  3
   9316   9314   9315   9318     1  0.0000000  0.6508444  3
   9316   9314   9333   9323     1  0.0000000  1.2552000  3
   9316   9314   9313   9320     1  0.0000000  1.0460000  1
   9316   9314   9313   9320     1  0.0000000  0.0000000  3
   9316   9314   9313   9317     1  0.0000000  0.6508444  3
   9317   9313   9314   9333     1  0.0000000  0.6508444  3
   9317   9313   9320   9322     1  0.0000000  0.6973333  3
   9317   9313   9311   9331     1  0.0000000  1.0460000  1
   9317   9313   9311   9331     1  0.0000000  0.0000000  3
   9317   9313   9311   9330     1  0.0000000  0.6508444  3
   9318   9315   9319   9329     1  0.0000000  0.6973333  3
   9318   9315   9314   9333     1  0.0000000  0.6508444  3
   9320   9313   9311   9330     1  0.0000000  1.0460000  1
   9320   9313   9311   9330     1  0.0000000  0.0000000  3
   9321   9310   9311   9330     1  0.0000000  0.6508444  3
   9324   9321   9326   9327     1  0.0000000  0.6973333  3
   9324   9321   9310   9328     1  0.0000000  1.0460000  1
   9324   9321   9310   9328     1  0.0000000  0.0000000  3
   9325   9321   9326   9327     1  0.0000000  0.6973333  3
   9325   9321   9310   9328     1  0.0000000  1.0460000  1
   9325   9321   9310   9328     1  0.0000000  0.0000000  3
   9328   9315   9319   9329     1  0.0000000  0.6973333  3
   9328   9310   9311   9330     1  0.0000000  1.0460000  1
   9328   9310   9311   9330     1  0.0000000  0.0000000  3
   9330   9311   9331   9332     1  0.0000000  0.6973333  3
   9335   9337   9339   9341     1  0.0000000  0.6508444  3
   9335   9337   9339   9342     1  0.0000000  0.6508444  3
   9336   9335   9337   9339     1  0.0000000  0.0000000  2
   9336   9335   9337   9338     1  0.0000000  0.0000000  2
   9336   9335   9337   9340     1  0.0000000  0.0000000  2
   9337   9339   9343   9408     1  0.0000000  0.6508444  3
   9338   9337   9339   9343     1  0.0000000  0.6508444  3
   9338   9337   9339   9341     1  0.0000000  0.6508444  3
   9338   9337   9339   9342     1  0.0000000  0.6508444  3
   9339   9343   9344   9353     1  0.0000000  0.6508444  3
   9339   9343   9344   9354     1  0.0000000  0.6508444  3
   9339   9343   9345   9346     1  0.0000000  0.6508444  3
   9339   9343   9345   9348     1  0.0000000  0.6508444  3
   9340   9337   9339   9343     1  0.0000000  0.6508444  3
   9340   9337   9339   9341     1  0.0000000  0.6508444  3
   9340   9337   9339   9342     1  0.0000000  0.6508444  3
   9341   9339   9343   9344     1  0.0000000  0.6508444  3
   9341   9339   9343   9345     1  0.0000000  0.6508444  3
   9341   9339   9343   9408     1  0.0000000  0.6508444  3
   9342   9339   9343   9344     1  0.0000000  0.6508444  3
   9342   9339   9343   9345     1  0.0000000  0.6508444  3
   9342   9339   9343   9408     1  0.0000000  0.6508444  3
   9343   9344   9355   9356     1  0.0000000  0.6508444  3
   9343   9344   9355   9357     1  0.0000000  0.6508444  3
   9343   9345   9347   9349     1  0.0000000  0.6508444  3
   9343   9345   9347   9350     1  0.0000000  0.6508444  3
   9344   9343   9345   9346     1  0.0000000  0.6508444  3
   9344   9343   9345   9348     1  0.0000000  0.6508444  3
   9345   9343   9344   9353     1  0.0000000  0.6508444  3
   9345   9343   9344   9354     1  0.0000000  0.6508444  3
   9346   9345   9343   9408     1  0.0000000  0.6508444  3
   9346   9345   9347   9351     1  0.0000000  0.6508444  3
   9346   9345   9347   9349     1  0.0000000  0.6508444  3
   9346   9345   9347   9350     1  0.0000000  0.6508444  3
   9347   9345   9343   9408     1  0.0000000  0.6508444  3
   9347   9351   9383   9373     1  180.0000771  6.0668000  2
   9347   9351   9383   9373     1  180.0000771  1.4644000  4
   9348   9345   9343   9408     1  0.0000000  0.6508444  3
   9348   9345   9347   9351     1  0.0000000  0.6508444  3
   9348   9345   9347   9349     1  0.0000000  0.6508444  3
   9348   9345   9347   9350     1  0.0000000  0.6508444  3
   9349   9347   9351   9352     1  0.0000000  3.3472000  1
   9349   9347   9351   9352     1  0.0000000  0.0000000  2
   9349   9347   9351   9352     1  180.0000771  0.3347200  3
   9349   9347   9351   9383     1  180.0000771  0.0000000  2
   9350   9347   9351   9352     1  0.0000000  3.3472000  1
   9350   9347   9351   9352     1  0.0000000  0.0000000  2
   9350   9347   9351   9352     1  180.0000771  0.3347200  3
   9350   9347   9351   9383     1  180.0000771  0.0000000  2
   9351   9383   9364   9366     1  0.0000000  1.2552000  3
   9352   9351   9383   9373     1  180.0000771  6.0668000  2
   9352   9351   9383   9373     1  180.0000771  1.4644000  4
   9353   9344   9343   9408     1  0.0000000  0.6508444  3
   9353   9344   9355   9358     1  0.0000000  0.6508444  3
   9353   9344   9355   9356     1  0.0000000  0.6508444  3
   9353   9344   9355   9357     1  0.0000000  0.6508444  3
   9354   9344   9343   9408     1  0.0000000  0.6508444  3
   9354   9344   9355   9358     1  0.0000000  0.6508444  3
   9354   9344   9355   9356     1  0.0000000  0.6508444  3
   9354   9344   9355   9357     1  0.0000000  0.6508444  3
   9355   9344   9343   9408     1  0.0000000  0.6508444  3
   9355   9358   9407   9397     1  180.0000771  6.0668000  2
   9355   9358   9407   9397     1  180.0000771  1.4644000  4
   9356   9355   9358   9359     1  0.0000000  3.3472000  1
   9356   9355   9358   9359     1  0.0000000  0.0000000  2
   9356   9355   9358   9359     1  180.0000771  0.3347200  3
   9356   9355   9358   9407     1  180.0000771  0.0000000  2
   9357   9355   9358   9359     1  0.0000000  3.3472000  1
   9357   9355   9358   9359     1  0.0000000  0.0000000  2
   9357   9355   9358   9359     1  180.0000771  0.3347200  3
   9357   9355   9358   9407     1  180.0000771  0.0000000  2
   9358   9407   9388   9390     1  0.0000000  1.2552000  3
   9359   9358   9407   9397     1  180.0000771  6.0668000  2
   9359   9358   9407   9397     1  180.0000771  1.4644000  4
   9360   9361   9363   9367     1  0.0000000  0.6508444  3
   9360   9361   9381   9382     1  0.0000000  1.0460000  1
   9360   9361   9381   9382     1  0.0000000  0.6694400  3
   9360   9371   9376   9377     1  0.0000000  1.0460000  1
   9360   9371   9376   9377     1  0.0000000  0.6694400  3
   9360   9378   9365   9368     1  0.0000000  1.6038667  3
   9361   9360   9371   9374     1  0.0000000  0.6508444  3
   9361   9360   9371   9375     1  0.0000000  0.6508444  3
   9361   9363   9364   9366     1  0.0000000  0.6508444  3
   9361   9363   9370   9372     1  0.0000000  1.0460000  1
   9361   9363   9370   9372     1  0.0000000  0.6694400  3
   9362   9360   9361   9363     1  0.0000000  0.6508444  3
   9362   9360   9361   9381     1  0.0000000  1.0460000  1
   9362   9360   9361   9381     1  0.0000000  0.0000000  3
   9362   9360   9361   9380     1  0.0000000  0.6508444  3
   9362   9360   9371   9376     1  0.0000000  1.0460000  1
   9362   9360   9371   9376     1  0.0000000  0.0000000  3
   9362   9360   9371   9374     1  0.0000000  0.6508444  3
   9362   9360   9371   9375     1  0.0000000  0.6508444  3
   9362   9360   9378   9365     1  0.0000000  1.6038667  3
   9363   9361   9381   9382     1  0.0000000  1.0460000  1
   9363   9361   9381   9382     1  0.0000000  0.6694400  3
   9363   9364   9365   9368     1  0.0000000  0.6508444  3
   9363   9364   9383   9373     1  0.0000000  1.2552000  3
   9364   9363   9361   9380     1  0.0000000  0.6508444  3
   9364   9363   9370   9372     1  0.0000000  1.0460000  1
   9364   9363   9370   9372     1  0.0000000  0.6694400  3
   9364   9365   9369   9379     1  0.0000000  1.0460000  1
   9364   9365   9369   9379     1  0.0000000  0.6694400  3
   9365   9364   9363   9367     1  0.0000000  0.6508444  3
   9365   9364   9383   9373     1  0.0000000  1.2552000  3
   9366   9364   9363   9370     1  0.0000000  1.0460000  1
   9366   9364   9363   9370     1  0.0000000  0.0000000  3
   9366   9364   9363   9367     1  0.0000000  0.6508444  3
   9366   9364   9365   9369     1  0.0000000  1.0460000  1
   9366   9364   9365   9369     1  0.0000000  0.0000000  3
   9366   9364   9365   9378     1  0.0000000  1.0460000  1
   9366   9364   9365   9378     1  0.0000000  0.0000000  3
   9366   9364   9365   9368     1  0.0000000  0.6508444  3
   9366   9364   9383   9373     1  0.0000000  1.2552000  3
   9367   9363   9361   9381     1  0.0000000  1.0460000  1
   9367   9363   9361   9381     1  0.0000000  0.0000000  3
   9367   9363   9361   9380     1  0.0000000  0.6508444  3
   9367   9363   9364   9383     1  0.0000000  0.6508444  3
   9367   9363   9370   9372     1  0.0000000  0.6973333  3
   9368   9365   9364   9383     1  0.0000000  0.6508444  3
   9368   9365   9369   9379     1  0.0000000  0.6973333  3
   9370   9363   9361   9380     1  0.0000000  1.0460000  1
   9370   9363   9361   9380     1  0.0000000  0.0000000  3
   9371   9360   9361   9380     1  0.0000000  0.6508444  3
   9374   9371   9360   9378     1  0.0000000  1.0460000  1
   9374   9371   9360   9378     1  0.0000000  0.0000000  3
   9374   9371   9376   9377     1  0.0000000  0.6973333  3
   9375   9371   9360   9378     1  0.0000000  1.0460000  1
   9375   9371   9360   9378     1  0.0000000  0.0000000  3
   9375   9371   9376   9377     1  0.0000000  0.6973333  3
   9378   9360   9361   9380     1  0.0000000  1.0460000  1
   9378   9360   9361   9380     1  0.0000000  0.0000000  3
   9378   9365   9369   9379     1  0.0000000  0.6973333  3
   9380   9361   9381   9382     1  0.0000000  0.6973333  3
   9384   9385   9387   9391     1  0.0000000  0.6508444  3
   9384   9385   9405   9406     1  0.0000000  1.0460000  1
   9384   9385   9405   9406     1  0.0000000  0.6694400  3
   9384   9395   9400   9401     1  0.0000000  1.0460000  1
   9384   9395   9400   9401     1  0.0000000  0.6694400  3
   9384   9402   9389   9392     1  0.0000000  1.6038667  3
   9385   9384   9395   9398     1  0.0000000  0.6508444  3
   9385   9384   9395   9399     1  0.0000000  0.6508444  3
   9385   9387   9388   9390     1  0.0000000  0.6508444  3
   9385   9387   9394   9396     1  0.0000000  1.0460000  1
   9385   9387   9394   9396     1  0.0000000  0.6694400  3
   9386   9384   9385   9387     1  0.0000000  0.6508444  3
   9386   9384   9385   9405     1  0.0000000  1.0460000  1
   9386   9384   9385   9405     1  0.0000000  0.0000000  3
   9386   9384   9385   9404     1  0.0000000  0.6508444  3
   9386   9384   9395   9400     1  0.0000000  1.0460000  1
   9386   9384   9395   9400     1  0.0000000  0.0000000  3
   9386   9384   9395   9398     1  0.0000000  0.6508444  3
   9386   9384   9395   9399     1  0.0000000  0.6508444  3
   9386   9384   9402   9389     1  0.0000000  1.6038667  3
   9387   9385   9405   9406     1  0.0000000  1.0460000  1
   9387   9385   9405   9406     1  0.0000000  0.6694400  3
   9387   9388   9389   9392     1  0.0000000  0.6508444  3
   9387   9388   9407   9397     1  0.0000000  1.2552000  3
   9388   9387   9385   9404     1  0.0000000  0.6508444  3
   9388   9387   9394   9396     1  0.0000000  1.0460000  1
   9388   9387   9394   9396     1  0.0000000  0.6694400  3
   9388   9389   9393   9403     1  0.0000000  1.0460000  1
   9388   9389   9393   9403     1  0.0000000  0.6694400  3
   9389   9388   9387   9391     1  0.0000000  0.6508444  3
   9389   9388   9407   9397     1  0.0000000  1.2552000  3
   9390   9388   9387   9394     1  0.0000000  1.0460000  1
   9390   9388   9387   9394     1  0.0000000  0.0000000  3
   9390   9388   9387   9391     1  0.0000000  0.6508444  3
   9390   9388   9389   9393     1  0.0000000  1.0460000  1
   9390   9388   9389   9393     1  0.0000000  0.0000000  3
   9390   9388   9389   9402     1  0.0000000  1.0460000  1
   9390   9388   9389   9402     1  0.0000000  0.0000000  3
   9390   9388   9389   9392     1  0.0000000  0.6508444  3
   9390   9388   9407   9397     1  0.0000000  1.2552000  3
   9391   9387   9385   9405     1  0.0000000  1.0460000  1
   9391   9387   9385   9405     1  0.0000000  0.0000000  3
   9391   9387   9385   9404     1  0.0000000  0.6508444  3
   9391   9387   9388   9407     1  0.0000000  0.6508444  3
   9391   9387   9394   9396     1  0.0000000  0.6973333  3
   9392   9389   9388   9407     1  0.0000000  0.6508444  3
   9392   9389   9393   9403     1  0.0000000  0.6973333  3
   9394   9387   9385   9404     1  0.0000000  1.0460000  1
   9394   9387   9385   9404     1  0.0000000  0.0000000  3
   9395   9384   9385   9404     1  0.0000000  0.6508444  3
   9398   9395   9384   9402     1  0.0000000  1.0460000  1
   9398   9395   9384   9402     1  0.0000000  0.0000000  3
   9398   9395   9400   9401     1  0.0000000  0.6973333  3
   9399   9395   9384   9402     1  0.0000000  1.0460000  1
   9399   9395   9384   9402     1  0.0000000  0.0000000  3
   9399   9395   9400   9401     1  0.0000000  0.6973333  3
   9402   9384   9385   9404     1  0.0000000  1.0460000  1
   9402   9384   9385   9404     1  0.0000000  0.0000000  3
   9402   9389   9393   9403     1  0.0000000  0.6973333  3
   9404   9385   9405   9406     1  0.0000000  0.6973333  3
   9409   9411   9413   9415     1  0.0000000  0.6508444  3
   9409   9411   9413   9416     1  0.0000000  0.6508444  3
   9410   9409   9411   9413     1  0.0000000  0.0000000  2
   9410   9409   9411   9412     1  0.0000000  0.0000000  2
   9410   9409   9411   9414     1  0.0000000  0.0000000  2
   9411   9413   9417   9482     1  0.0000000  0.6508444  3
   9412   9411   9413   9417     1  0.0000000  0.6508444  3
   9412   9411   9413   9415     1  0.0000000  0.6508444  3
   9412   9411   9413   9416     1  0.0000000  0.6508444  3
   9413   9417   9418   9427     1  0.0000000  0.6508444  3
   9413   9417   9418   9428     1  0.0000000  0.6508444  3
   9413   9417   9419   9420     1  0.0000000  0.6508444  3
   9413   9417   9419   9422     1  0.0000000  0.6508444  3
   9414   9411   9413   9417     1  0.0000000  0.6508444  3
   9414   9411   9413   9415     1  0.0000000  0.6508444  3
   9414   9411   9413   9416     1  0.0000000  0.6508444  3
   9415   9413   9417   9418     1  0.0000000  0.6508444  3
   9415   9413   9417   9419     1  0.0000000  0.6508444  3
   9415   9413   9417   9482     1  0.0000000  0.6508444  3
   9416   9413   9417   9418     1  0.0000000  0.6508444  3
   9416   9413   9417   9419     1  0.0000000  0.6508444  3
   9416   9413   9417   9482     1  0.0000000  0.6508444  3
   9417   9418   9429   9430     1  0.0000000  0.6508444  3
   9417   9418   9429   9431     1  0.0000000  0.6508444  3
   9417   9419   9421   9423     1  0.0000000  0.6508444  3
   9417   9419   9421   9424     1  0.0000000  0.6508444  3
   9418   9417   9419   9420     1  0.0000000  0.6508444  3
   9418   9417   9419   9422     1  0.0000000  0.6508444  3
   9419   9417   9418   9427     1  0.0000000  0.6508444  3
   9419   9417   9418   9428     1  0.0000000  0.6508444  3
   9420   9419   9421   9425     1  0.0000000  0.6508444  3
   9420   9419   9421   9423     1  0.0000000  0.6508444  3
   9420   9419   9421   9424     1  0.0000000  0.6508444  3
   9420   9419   9417   9482     1  0.0000000  0.6508444  3
   9421   9425   9457   9447     1  180.0000771  6.0668000  2
   9421   9425   9457   9447     1  180.0000771  1.4644000  4
   9421   9419   9417   9482     1  0.0000000  0.6508444  3
   9422   9419   9421   9425     1  0.0000000  0.6508444  3
   9422   9419   9421   9423     1  0.0000000  0.6508444  3
   9422   9419   9421   9424     1  0.0000000  0.6508444  3
   9422   9419   9417   9482     1  0.0000000  0.6508444  3
   9423   9421   9425   9426     1  0.0000000  3.3472000  1
   9423   9421   9425   9426     1  0.0000000  0.0000000  2
   9423   9421   9425   9426     1  180.0000771  0.3347200  3
   9423   9421   9425   9457     1  180.0000771  0.0000000  2
   9424   9421   9425   9426     1  0.0000000  3.3472000  1
   9424   9421   9425   9426     1  0.0000000  0.0000000  2
   9424   9421   9425   9426     1  180.0000771  0.3347200  3
   9424   9421   9425   9457     1  180.0000771  0.0000000  2
   9425   9457   9438   9440     1  0.0000000  1.2552000  3
   9426   9425   9457   9447     1  180.0000771  6.0668000  2
   9426   9425   9457   9447     1  180.0000771  1.4644000  4
   9427   9418   9429   9432     1  0.0000000  0.6508444  3
   9427   9418   9429   9430     1  0.0000000  0.6508444  3
   9427   9418   9429   9431     1  0.0000000  0.6508444  3
   9427   9418   9417   9482     1  0.0000000  0.6508444  3
   9428   9418   9429   9432     1  0.0000000  0.6508444  3
   9428   9418   9429   9430     1  0.0000000  0.6508444  3
   9428   9418   9429   9431     1  0.0000000  0.6508444  3
   9428   9418   9417   9482     1  0.0000000  0.6508444  3
   9429   9432   9481   9471     1  180.0000771  6.0668000  2
   9429   9432   9481   9471     1  180.0000771  1.4644000  4
   9429   9418   9417   9482     1  0.0000000  0.6508444  3
   9430   9429   9432   9433     1  0.0000000  3.3472000  1
   9430   9429   9432   9433     1  0.0000000  0.0000000  2
   9430   9429   9432   9433     1  180.0000771  0.3347200  3
   9430   9429   9432   9481     1  180.0000771  0.0000000  2
   9431   9429   9432   9433     1  0.0000000  3.3472000  1
   9431   9429   9432   9433     1  0.0000000  0.0000000  2
   9431   9429   9432   9433     1  180.0000771  0.3347200  3
   9431   9429   9432   9481     1  180.0000771  0.0000000  2
   9432   9481   9462   9464     1  0.0000000  1.2552000  3
   9433   9432   9481   9471     1  180.0000771  6.0668000  2
   9433   9432   9481   9471     1  180.0000771  1.4644000  4
   9434   9435   9437   9441     1  0.0000000  0.6508444  3
   9434   9435   9455   9456     1  0.0000000  1.0460000  1
   9434   9435   9455   9456     1  0.0000000  0.6694400  3
   9434   9445   9450   9451     1  0.0000000  1.0460000  1
   9434   9445   9450   9451     1  0.0000000  0.6694400  3
   9434   9452   9439   9442     1  0.0000000  1.6038667  3
   9435   9437   9438   9440     1  0.0000000  0.6508444  3
   9435   9437   9444   9446     1  0.0000000  1.0460000  1
   9435   9437   9444   9446     1  0.0000000  0.6694400  3
   9435   9434   9445   9448     1  0.0000000  0.6508444  3
   9435   9434   9445   9449     1  0.0000000  0.6508444  3
   9436   9434   9435   9437     1  0.0000000  0.6508444  3
   9436   9434   9435   9455     1  0.0000000  1.0460000  1
   9436   9434   9435   9455     1  0.0000000  0.0000000  3
   9436   9434   9435   9454     1  0.0000000  0.6508444  3
   9436   9434   9445   9450     1  0.0000000  1.0460000  1
   9436   9434   9445   9450     1  0.0000000  0.0000000  3
   9436   9434   9445   9448     1  0.0000000  0.6508444  3
   9436   9434   9445   9449     1  0.0000000  0.6508444  3
   9436   9434   9452   9439     1  0.0000000  1.6038667  3
   9437   9438   9439   9442     1  0.0000000  0.6508444  3
   9437   9438   9457   9447     1  0.0000000  1.2552000  3
   9437   9435   9455   9456     1  0.0000000  1.0460000  1
   9437   9435   9455   9456     1  0.0000000  0.6694400  3
   9438   9439   9443   9453     1  0.0000000  1.0460000  1
   9438   9439   9443   9453     1  0.0000000  0.6694400  3
   9438   9437   9444   9446     1  0.0000000  1.0460000  1
   9438   9437   9444   9446     1  0.0000000  0.6694400  3
   9438   9437   9435   9454     1  0.0000000  0.6508444  3
   9439   9438   9457   9447     1  0.0000000  1.2552000  3
   9439   9438   9437   9441     1  0.0000000  0.6508444  3
   9440   9438   9439   9443     1  0.0000000  1.0460000  1
   9440   9438   9439   9443     1  0.0000000  0.0000000  3
   9440   9438   9439   9452     1  0.0000000  1.0460000  1
   9440   9438   9439   9452     1  0.0000000  0.0000000  3
   9440   9438   9439   9442     1  0.0000000  0.6508444  3
   9440   9438   9457   9447     1  0.0000000  1.2552000  3
   9440   9438   9437   9444     1  0.0000000  1.0460000  1
   9440   9438   9437   9444     1  0.0000000  0.0000000  3
   9440   9438   9437   9441     1  0.0000000  0.6508444  3
   9441   9437   9438   9457     1  0.0000000  0.6508444  3
   9441   9437   9444   9446     1  0.0000000  0.6973333  3
   9441   9437   9435   9455     1  0.0000000  1.0460000  1
   9441   9437   9435   9455     1  0.0000000  0.0000000  3
   9441   9437   9435   9454     1  0.0000000  0.6508444  3
   9442   9439   9443   9453     1  0.0000000  0.6973333  3
   9442   9439   9438   9457     1  0.0000000  0.6508444  3
   9444   9437   9435   9454     1  0.0000000  1.0460000  1
   9444   9437   9435   9454     1  0.0000000  0.0000000  3
   9445   9434   9435   9454     1  0.0000000  0.6508444  3
   9448   9445   9450   9451     1  0.0000000  0.6973333  3
   9448   9445   9434   9452     1  0.0000000  1.0460000  1
   9448   9445   9434   9452     1  0.0000000  0.0000000  3
   9449   9445   9450   9451     1  0.0000000  0.6973333  3
   9449   9445   9434   9452     1  0.0000000  1.0460000  1
   9449   9445   9434   9452     1  0.0000000  0.0000000  3
   9452   9439   9443   9453     1  0.0000000  0.6973333  3
   9452   9434   9435   9454     1  0.0000000  1.0460000  1
   9452   9434   9435   9454     1  0.0000000  0.0000000  3
   9454   9435   9455   9456     1  0.0000000  0.6973333  3
   9458   9459   9461   9465     1  0.0000000  0.6508444  3
   9458   9459   9479   9480     1  0.0000000  1.0460000  1
   9458   9459   9479   9480     1  0.0000000  0.6694400  3
   9458   9469   9474   9475     1  0.0000000  1.0460000  1
   9458   9469   9474   9475     1  0.0000000  0.6694400  3
   9458   9476   9463   9466     1  0.0000000  1.6038667  3
   9459   9461   9462   9464     1  0.0000000  0.6508444  3
   9459   9461   9468   9470     1  0.0000000  1.0460000  1
   9459   9461   9468   9470     1  0.0000000  0.6694400  3
   9459   9458   9469   9472     1  0.0000000  0.6508444  3
   9459   9458   9469   9473     1  0.0000000  0.6508444  3
   9460   9458   9459   9461     1  0.0000000  0.6508444  3
   9460   9458   9459   9479     1  0.0000000  1.0460000  1
   9460   9458   9459   9479     1  0.0000000  0.0000000  3
   9460   9458   9459   9478     1  0.0000000  0.6508444  3
   9460   9458   9469   9474     1  0.0000000  1.0460000  1
   9460   9458   9469   9474     1  0.0000000  0.0000000  3
   9460   9458   9469   9472     1  0.0000000  0.6508444  3
   9460   9458   9469   9473     1  0.0000000  0.6508444  3
   9460   9458   9476   9463     1  0.0000000  1.6038667  3
   9461   9462   9463   9466     1  0.0000000  0.6508444  3
   9461   9462   9481   9471     1  0.0000000  1.2552000  3
   9461   9459   9479   9480     1  0.0000000  1.0460000  1
   9461   9459   9479   9480     1  0.0000000  0.6694400  3
   9462   9463   9467   9477     1  0.0000000  1.0460000  1
   9462   9463   9467   9477     1  0.0000000  0.6694400  3
   9462   9461   9468   9470     1  0.0000000  1.0460000  1
   9462   9461   9468   9470     1  0.0000000  0.6694400  3
   9462   9461   9459   9478     1  0.0000000  0.6508444  3
   9463   9462   9481   9471     1  0.0000000  1.2552000  3
   9463   9462   9461   9465     1  0.0000000  0.6508444  3
   9464   9462   9463   9467     1  0.0000000  1.0460000  1
   9464   9462   9463   9467     1  0.0000000  0.0000000  3
   9464   9462   9463   9476     1  0.0000000  1.0460000  1
   9464   9462   9463   9476     1  0.0000000  0.0000000  3
   9464   9462   9463   9466     1  0.0000000  0.6508444  3
   9464   9462   9481   9471     1  0.0000000  1.2552000  3
   9464   9462   9461   9468     1  0.0000000  1.0460000  1
   9464   9462   9461   9468     1  0.0000000  0.0000000  3
   9464   9462   9461   9465     1  0.0000000  0.6508444  3
   9465   9461   9462   9481     1  0.0000000  0.6508444  3
   9465   9461   9468   9470     1  0.0000000  0.6973333  3
   9465   9461   9459   9479     1  0.0000000  1.0460000  1
   9465   9461   9459   9479     1  0.0000000  0.0000000  3
   9465   9461   9459   9478     1  0.0000000  0.6508444  3
   9466   9463   9467   9477     1  0.0000000  0.6973333  3
   9466   9463   9462   9481     1  0.0000000  0.6508444  3
   9468   9461   9459   9478     1  0.0000000  1.0460000  1
   9468   9461   9459   9478     1  0.0000000  0.0000000  3
   9469   9458   9459   9478     1  0.0000000  0.6508444  3
   9472   9469   9474   9475     1  0.0000000  0.6973333  3
   9472   9469   9458   9476     1  0.0000000  1.0460000  1
   9472   9469   9458   9476     1  0.0000000  0.0000000  3
   9473   9469   9474   9475     1  0.0000000  0.6973333  3
   9473   9469   9458   9476     1  0.0000000  1.0460000  1
   9473   9469   9458   9476     1  0.0000000  0.0000000  3
   9476   9463   9467   9477     1  0.0000000  0.6973333  3
   9476   9458   9459   9478     1  0.0000000  1.0460000  1
   9476   9458   9459   9478     1  0.0000000  0.0000000  3
   9478   9459   9479   9480     1  0.0000000  0.6973333  3
   9483   9485   9487   9489     1  0.0000000  0.6508444  3
   9483   9485   9487   9490     1  0.0000000  0.6508444  3
   9484   9483   9485   9487     1  0.0000000  0.0000000  2
   9484   9483   9485   9486     1  0.0000000  0.0000000  2
   9484   9483   9485   9488     1  0.0000000  0.0000000  2
   9485   9487   9491   9556     1  0.0000000  0.6508444  3
   9486   9485   9487   9491     1  0.0000000  0.6508444  3
   9486   9485   9487   9489     1  0.0000000  0.6508444  3
   9486   9485   9487   9490     1  0.0000000  0.6508444  3
   9487   9491   9492   9501     1  0.0000000  0.6508444  3
   9487   9491   9492   9502     1  0.0000000  0.6508444  3
   9487   9491   9493   9494     1  0.0000000  0.6508444  3
   9487   9491   9493   9496     1  0.0000000  0.6508444  3
   9488   9485   9487   9491     1  0.0000000  0.6508444  3
   9488   9485   9487   9489     1  0.0000000  0.6508444  3
   9488   9485   9487   9490     1  0.0000000  0.6508444  3
   9489   9487   9491   9492     1  0.0000000  0.6508444  3
   9489   9487   9491   9493     1  0.0000000  0.6508444  3
   9489   9487   9491   9556     1  0.0000000  0.6508444  3
   9490   9487   9491   9492     1  0.0000000  0.6508444  3
   9490   9487   9491   9493     1  0.0000000  0.6508444  3
   9490   9487   9491   9556     1  0.0000000  0.6508444  3
   9491   9492   9503   9504     1  0.0000000  0.6508444  3
   9491   9492   9503   9505     1  0.0000000  0.6508444  3
   9491   9493   9495   9497     1  0.0000000  0.6508444  3
   9491   9493   9495   9498     1  0.0000000  0.6508444  3
   9492   9491   9493   9494     1  0.0000000  0.6508444  3
   9492   9491   9493   9496     1  0.0000000  0.6508444  3
   9493   9491   9492   9501     1  0.0000000  0.6508444  3
   9493   9491   9492   9502     1  0.0000000  0.6508444  3
   9494   9493   9491   9556     1  0.0000000  0.6508444  3
   9494   9493   9495   9499     1  0.0000000  0.6508444  3
   9494   9493   9495   9497     1  0.0000000  0.6508444  3
   9494   9493   9495   9498     1  0.0000000  0.6508444  3
   9495   9493   9491   9556     1  0.0000000  0.6508444  3
   9495   9499   9531   9521     1  180.0000771  6.0668000  2
   9495   9499   9531   9521     1  180.0000771  1.4644000  4
   9496   9493   9491   9556     1  0.0000000  0.6508444  3
   9496   9493   9495   9499     1  0.0000000  0.6508444  3
   9496   9493   9495   9497     1  0.0000000  0.6508444  3
   9496   9493   9495   9498     1  0.0000000  0.6508444  3
   9497   9495   9499   9500     1  0.0000000  3.3472000  1
   9497   9495   9499   9500     1  0.0000000  0.0000000  2
   9497   9495   9499   9500     1  180.0000771  0.3347200  3
   9497   9495   9499   9531     1  180.0000771  0.0000000  2
   9498   9495   9499   9500     1  0.0000000  3.3472000  1
   9498   9495   9499   9500     1  0.0000000  0.0000000  2
   9498   9495   9499   9500     1  180.0000771  0.3347200  3
   9498   9495   9499   9531     1  180.0000771  0.0000000  2
   9499   9531   9512   9514     1  0.0000000  1.2552000  3
   9500   9499   9531   9521     1  180.0000771  6.0668000  2
   9500   9499   9531   9521     1  180.0000771  1.4644000  4
   9501   9492   9491   9556     1  0.0000000  0.6508444  3
   9501   9492   9503   9506     1  0.0000000  0.6508444  3
   9501   9492   9503   9504     1  0.0000000  0.6508444  3
   9501   9492   9503   9505     1  0.0000000  0.6508444  3
   9502   9492   9491   9556     1  0.0000000  0.6508444  3
   9502   9492   9503   9506     1  0.0000000  0.6508444  3
   9502   9492   9503   9504     1  0.0000000  0.6508444  3
   9502   9492   9503   9505     1  0.0000000  0.6508444  3
   9503   9492   9491   9556     1  0.0000000  0.6508444  3
   9503   9506   9555   9545     1  180.0000771  6.0668000  2
   9503   9506   9555   9545     1  180.0000771  1.4644000  4
   9504   9503   9506   9507     1  0.0000000  3.3472000  1
   9504   9503   9506   9507     1  0.0000000  0.0000000  2
   9504   9503   9506   9507     1  180.0000771  0.3347200  3
   9504   9503   9506   9555     1  180.0000771  0.0000000  2
   9505   9503   9506   9507     1  0.0000000  3.3472000  1
   9505   9503   9506   9507     1  0.0000000  0.0000000  2
   9505   9503   9506   9507     1  180.0000771  0.3347200  3
   9505   9503   9506   9555     1  180.0000771  0.0000000  2
   9506   9555   9536   9538     1  0.0000000  1.2552000  3
   9507   9506   9555   9545     1  180.0000771  6.0668000  2
   9507   9506   9555   9545     1  180.0000771  1.4644000  4
   9508   9509   9511   9515     1  0.0000000  0.6508444  3
   9508   9509   9529   9530     1  0.0000000  1.0460000  1
   9508   9509   9529   9530     1  0.0000000  0.6694400  3
   9508   9519   9524   9525     1  0.0000000  1.0460000  1
   9508   9519   9524   9525     1  0.0000000  0.6694400  3
   9508   9526   9513   9516     1  0.0000000  1.6038667  3
   9509   9508   9519   9522     1  0.0000000  0.6508444  3
   9509   9508   9519   9523     1  0.0000000  0.6508444  3
   9509   9511   9512   9514     1  0.0000000  0.6508444  3
   9509   9511   9518   9520     1  0.0000000  1.0460000  1
   9509   9511   9518   9520     1  0.0000000  0.6694400  3
   9510   9508   9509   9511     1  0.0000000  0.6508444  3
   9510   9508   9509   9529     1  0.0000000  1.0460000  1
   9510   9508   9509   9529     1  0.0000000  0.0000000  3
   9510   9508   9509   9528     1  0.0000000  0.6508444  3
   9510   9508   9519   9524     1  0.0000000  1.0460000  1
   9510   9508   9519   9524     1  0.0000000  0.0000000  3
   9510   9508   9519   9522     1  0.0000000  0.6508444  3
   9510   9508   9519   9523     1  0.0000000  0.6508444  3
   9510   9508   9526   9513     1  0.0000000  1.6038667  3
   9511   9509   9529   9530     1  0.0000000  1.0460000  1
   9511   9509   9529   9530     1  0.0000000  0.6694400  3
   9511   9512   9513   9516     1  0.0000000  0.6508444  3
   9511   9512   9531   9521     1  0.0000000  1.2552000  3
   9512   9511   9509   9528     1  0.0000000  0.6508444  3
   9512   9511   9518   9520     1  0.0000000  1.0460000  1
   9512   9511   9518   9520     1  0.0000000  0.6694400  3
   9512   9513   9517   9527     1  0.0000000  1.0460000  1
   9512   9513   9517   9527     1  0.0000000  0.6694400  3
   9513   9512   9511   9515     1  0.0000000  0.6508444  3
   9513   9512   9531   9521     1  0.0000000  1.2552000  3
   9514   9512   9511   9518     1  0.0000000  1.0460000  1
   9514   9512   9511   9518     1  0.0000000  0.0000000  3
   9514   9512   9511   9515     1  0.0000000  0.6508444  3
   9514   9512   9513   9517     1  0.0000000  1.0460000  1
   9514   9512   9513   9517     1  0.0000000  0.0000000  3
   9514   9512   9513   9526     1  0.0000000  1.0460000  1
   9514   9512   9513   9526     1  0.0000000  0.0000000  3
   9514   9512   9513   9516     1  0.0000000  0.6508444  3
   9514   9512   9531   9521     1  0.0000000  1.2552000  3
   9515   9511   9509   9529     1  0.0000000  1.0460000  1
   9515   9511   9509   9529     1  0.0000000  0.0000000  3
   9515   9511   9509   9528     1  0.0000000  0.6508444  3
   9515   9511   9512   9531     1  0.0000000  0.6508444  3
   9515   9511   9518   9520     1  0.0000000  0.6973333  3
   9516   9513   9512   9531     1  0.0000000  0.6508444  3
   9516   9513   9517   9527     1  0.0000000  0.6973333  3
   9518   9511   9509   9528     1  0.0000000  1.0460000  1
   9518   9511   9509   9528     1  0.0000000  0.0000000  3
   9519   9508   9509   9528     1  0.0000000  0.6508444  3
   9522   9519   9508   9526     1  0.0000000  1.0460000  1
   9522   9519   9508   9526     1  0.0000000  0.0000000  3
   9522   9519   9524   9525     1  0.0000000  0.6973333  3
   9523   9519   9508   9526     1  0.0000000  1.0460000  1
   9523   9519   9508   9526     1  0.0000000  0.0000000  3
   9523   9519   9524   9525     1  0.0000000  0.6973333  3
   9526   9508   9509   9528     1  0.0000000  1.0460000  1
   9526   9508   9509   9528     1  0.0000000  0.0000000  3
   9526   9513   9517   9527     1  0.0000000  0.6973333  3
   9528   9509   9529   9530     1  0.0000000  0.6973333  3
   9532   9533   9535   9539     1  0.0000000  0.6508444  3
   9532   9533   9553   9554     1  0.0000000  1.0460000  1
   9532   9533   9553   9554     1  0.0000000  0.6694400  3
   9532   9543   9548   9549     1  0.0000000  1.0460000  1
   9532   9543   9548   9549     1  0.0000000  0.6694400  3
   9532   9550   9537   9540     1  0.0000000  1.6038667  3
   9533   9532   9543   9546     1  0.0000000  0.6508444  3
   9533   9532   9543   9547     1  0.0000000  0.6508444  3
   9533   9535   9536   9538     1  0.0000000  0.6508444  3
   9533   9535   9542   9544     1  0.0000000  1.0460000  1
   9533   9535   9542   9544     1  0.0000000  0.6694400  3
   9534   9532   9533   9535     1  0.0000000  0.6508444  3
   9534   9532   9533   9553     1  0.0000000  1.0460000  1
   9534   9532   9533   9553     1  0.0000000  0.0000000  3
   9534   9532   9533   9552     1  0.0000000  0.6508444  3
   9534   9532   9543   9548     1  0.0000000  1.0460000  1
   9534   9532   9543   9548     1  0.0000000  0.0000000  3
   9534   9532   9543   9546     1  0.0000000  0.6508444  3
   9534   9532   9543   9547     1  0.0000000  0.6508444  3
   9534   9532   9550   9537     1  0.0000000  1.6038667  3
   9535   9533   9553   9554     1  0.0000000  1.0460000  1
   9535   9533   9553   9554     1  0.0000000  0.6694400  3
   9535   9536   9537   9540     1  0.0000000  0.6508444  3
   9535   9536   9555   9545     1  0.0000000  1.2552000  3
   9536   9535   9533   9552     1  0.0000000  0.6508444  3
   9536   9535   9542   9544     1  0.0000000  1.0460000  1
   9536   9535   9542   9544     1  0.0000000  0.6694400  3
   9536   9537   9541   9551     1  0.0000000  1.0460000  1
   9536   9537   9541   9551     1  0.0000000  0.6694400  3
   9537   9536   9535   9539     1  0.0000000  0.6508444  3
   9537   9536   9555   9545     1  0.0000000  1.2552000  3
   9538   9536   9535   9542     1  0.0000000  1.0460000  1
   9538   9536   9535   9542     1  0.0000000  0.0000000  3
   9538   9536   9535   9539     1  0.0000000  0.6508444  3
   9538   9536   9537   9541     1  0.0000000  1.0460000  1
   9538   9536   9537   9541     1  0.0000000  0.0000000  3
   9538   9536   9537   9550     1  0.0000000  1.0460000  1
   9538   9536   9537   9550     1  0.0000000  0.0000000  3
   9538   9536   9537   9540     1  0.0000000  0.6508444  3
   9538   9536   9555   9545     1  0.0000000  1.2552000  3
   9539   9535   9533   9553     1  0.0000000  1.0460000  1
   9539   9535   9533   9553     1  0.0000000  0.0000000  3
   9539   9535   9533   9552     1  0.0000000  0.6508444  3
   9539   9535   9536   9555     1  0.0000000  0.6508444  3
   9539   9535   9542   9544     1  0.0000000  0.6973333  3
   9540   9537   9536   9555     1  0.0000000  0.6508444  3
   9540   9537   9541   9551     1  0.0000000  0.6973333  3
   9542   9535   9533   9552     1  0.0000000  1.0460000  1
   9542   9535   9533   9552     1  0.0000000  0.0000000  3
   9543   9532   9533   9552     1  0.0000000  0.6508444  3
   9546   9543   9532   9550     1  0.0000000  1.0460000  1
   9546   9543   9532   9550     1  0.0000000  0.0000000  3
   9546   9543   9548   9549     1  0.0000000  0.6973333  3
   9547   9543   9532   9550     1  0.0000000  1.0460000  1
   9547   9543   9532   9550     1  0.0000000  0.0000000  3
   9547   9543   9548   9549     1  0.0000000  0.6973333  3
   9550   9532   9533   9552     1  0.0000000  1.0460000  1
   9550   9532   9533   9552     1  0.0000000  0.0000000  3
   9550   9537   9541   9551     1  0.0000000  0.6973333  3
   9552   9533   9553   9554     1  0.0000000  0.6973333  3
   9557   9559   9561   9563     1  0.0000000  0.6508444  3
   9557   9559   9561   9564     1  0.0000000  0.6508444  3
   9558   9557   9559   9561     1  0.0000000  0.0000000  2
   9558   9557   9559   9560     1  0.0000000  0.0000000  2
   9558   9557   9559   9562     1  0.0000000  0.0000000  2
   9559   9561   9565   9630     1  0.0000000  0.6508444  3
   9560   9559   9561   9565     1  0.0000000  0.6508444  3
   9560   9559   9561   9563     1  0.0000000  0.6508444  3
   9560   9559   9561   9564     1  0.0000000  0.6508444  3
   9561   9565   9566   9575     1  0.0000000  0.6508444  3
   9561   9565   9566   9576     1  0.0000000  0.6508444  3
   9561   9565   9567   9568     1  0.0000000  0.6508444  3
   9561   9565   9567   9570     1  0.0000000  0.6508444  3
   9562   9559   9561   9565     1  0.0000000  0.6508444  3
   9562   9559   9561   9563     1  0.0000000  0.6508444  3
   9562   9559   9561   9564     1  0.0000000  0.6508444  3
   9563   9561   9565   9566     1  0.0000000  0.6508444  3
   9563   9561   9565   9567     1  0.0000000  0.6508444  3
   9563   9561   9565   9630     1  0.0000000  0.6508444  3
   9564   9561   9565   9566     1  0.0000000  0.6508444  3
   9564   9561   9565   9567     1  0.0000000  0.6508444  3
   9564   9561   9565   9630     1  0.0000000  0.6508444  3
   9565   9566   9577   9578     1  0.0000000  0.6508444  3
   9565   9566   9577   9579     1  0.0000000  0.6508444  3
   9565   9567   9569   9571     1  0.0000000  0.6508444  3
   9565   9567   9569   9572     1  0.0000000  0.6508444  3
   9566   9565   9567   9568     1  0.0000000  0.6508444  3
   9566   9565   9567   9570     1  0.0000000  0.6508444  3
   9567   9565   9566   9575     1  0.0000000  0.6508444  3
   9567   9565   9566   9576     1  0.0000000  0.6508444  3
   9568   9567   9569   9573     1  0.0000000  0.6508444  3
   9568   9567   9569   9571     1  0.0000000  0.6508444  3
   9568   9567   9569   9572     1  0.0000000  0.6508444  3
   9568   9567   9565   9630     1  0.0000000  0.6508444  3
   9569   9573   9605   9595     1  180.0000771  6.0668000  2
   9569   9573   9605   9595     1  180.0000771  1.4644000  4
   9569   9567   9565   9630     1  0.0000000  0.6508444  3
   9570   9567   9569   9573     1  0.0000000  0.6508444  3
   9570   9567   9569   9571     1  0.0000000  0.6508444  3
   9570   9567   9569   9572     1  0.0000000  0.6508444  3
   9570   9567   9565   9630     1  0.0000000  0.6508444  3
   9571   9569   9573   9574     1  0.0000000  3.3472000  1
   9571   9569   9573   9574     1  0.0000000  0.0000000  2
   9571   9569   9573   9574     1  180.0000771  0.3347200  3
   9571   9569   9573   9605     1  180.0000771  0.0000000  2
   9572   9569   9573   9574     1  0.0000000  3.3472000  1
   9572   9569   9573   9574     1  0.0000000  0.0000000  2
   9572   9569   9573   9574     1  180.0000771  0.3347200  3
   9572   9569   9573   9605     1  180.0000771  0.0000000  2
   9573   9605   9586   9588     1  0.0000000  1.2552000  3
   9574   9573   9605   9595     1  180.0000771  6.0668000  2
   9574   9573   9605   9595     1  180.0000771  1.4644000  4
   9575   9566   9577   9580     1  0.0000000  0.6508444  3
   9575   9566   9577   9578     1  0.0000000  0.6508444  3
   9575   9566   9577   9579     1  0.0000000  0.6508444  3
   9575   9566   9565   9630     1  0.0000000  0.6508444  3
   9576   9566   9577   9580     1  0.0000000  0.6508444  3
   9576   9566   9577   9578     1  0.0000000  0.6508444  3
   9576   9566   9577   9579     1  0.0000000  0.6508444  3
   9576   9566   9565   9630     1  0.0000000  0.6508444  3
   9577   9580   9629   9619     1  180.0000771  6.0668000  2
   9577   9580   9629   9619     1  180.0000771  1.4644000  4
   9577   9566   9565   9630     1  0.0000000  0.6508444  3
   9578   9577   9580   9581     1  0.0000000  3.3472000  1
   9578   9577   9580   9581     1  0.0000000  0.0000000  2
   9578   9577   9580   9581     1  180.0000771  0.3347200  3
   9578   9577   9580   9629     1  180.0000771  0.0000000  2
   9579   9577   9580   9581     1  0.0000000  3.3472000  1
   9579   9577   9580   9581     1  0.0000000  0.0000000  2
   9579   9577   9580   9581     1  180.0000771  0.3347200  3
   9579   9577   9580   9629     1  180.0000771  0.0000000  2
   9580   9629   9610   9612     1  0.0000000  1.2552000  3
   9581   9580   9629   9619     1  180.0000771  6.0668000  2
   9581   9580   9629   9619     1  180.0000771  1.4644000  4
   9582   9583   9585   9589     1  0.0000000  0.6508444  3
   9582   9583   9603   9604     1  0.0000000  1.0460000  1
   9582   9583   9603   9604     1  0.0000000  0.6694400  3
   9582   9593   9598   9599     1  0.0000000  1.0460000  1
   9582   9593   9598   9599     1  0.0000000  0.6694400  3
   9582   9600   9587   9590     1  0.0000000  1.6038667  3
   9583   9585   9586   9588     1  0.0000000  0.6508444  3
   9583   9585   9592   9594     1  0.0000000  1.0460000  1
   9583   9585   9592   9594     1  0.0000000  0.6694400  3
   9583   9582   9593   9596     1  0.0000000  0.6508444  3
   9583   9582   9593   9597     1  0.0000000  0.6508444  3
   9584   9582   9583   9585     1  0.0000000  0.6508444  3
   9584   9582   9583   9603     1  0.0000000  1.0460000  1
   9584   9582   9583   9603     1  0.0000000  0.0000000  3
   9584   9582   9583   9602     1  0.0000000  0.6508444  3
   9584   9582   9593   9598     1  0.0000000  1.0460000  1
   9584   9582   9593   9598     1  0.0000000  0.0000000  3
   9584   9582   9593   9596     1  0.0000000  0.6508444  3
   9584   9582   9593   9597     1  0.0000000  0.6508444  3
   9584   9582   9600   9587     1  0.0000000  1.6038667  3
   9585   9586   9587   9590     1  0.0000000  0.6508444  3
   9585   9586   9605   9595     1  0.0000000  1.2552000  3
   9585   9583   9603   9604     1  0.0000000  1.0460000  1
   9585   9583   9603   9604     1  0.0000000  0.6694400  3
   9586   9587   9591   9601     1  0.0000000  1.0460000  1
   9586   9587   9591   9601     1  0.0000000  0.6694400  3
   9586   9585   9592   9594     1  0.0000000  1.0460000  1
   9586   9585   9592   9594     1  0.0000000  0.6694400  3
   9586   9585   9583   9602     1  0.0000000  0.6508444  3
   9587   9586   9605   9595     1  0.0000000  1.2552000  3
   9587   9586   9585   9589     1  0.0000000  0.6508444  3
   9588   9586   9587   9591     1  0.0000000  1.0460000  1
   9588   9586   9587   9591     1  0.0000000  0.0000000  3
   9588   9586   9587   9600     1  0.0000000  1.0460000  1
   9588   9586   9587   9600     1  0.0000000  0.0000000  3
   9588   9586   9587   9590     1  0.0000000  0.6508444  3
   9588   9586   9605   9595     1  0.0000000  1.2552000  3
   9588   9586   9585   9592     1  0.0000000  1.0460000  1
   9588   9586   9585   9592     1  0.0000000  0.0000000  3
   9588   9586   9585   9589     1  0.0000000  0.6508444  3
   9589   9585   9586   9605     1  0.0000000  0.6508444  3
   9589   9585   9592   9594     1  0.0000000  0.6973333  3
   9589   9585   9583   9603     1  0.0000000  1.0460000  1
   9589   9585   9583   9603     1  0.0000000  0.0000000  3
   9589   9585   9583   9602     1  0.0000000  0.6508444  3
   9590   9587   9591   9601     1  0.0000000  0.6973333  3
   9590   9587   9586   9605     1  0.0000000  0.6508444  3
   9592   9585   9583   9602     1  0.0000000  1.0460000  1
   9592   9585   9583   9602     1  0.0000000  0.0000000  3
   9593   9582   9583   9602     1  0.0000000  0.6508444  3
   9596   9593   9598   9599     1  0.0000000  0.6973333  3
   9596   9593   9582   9600     1  0.0000000  1.0460000  1
   9596   9593   9582   9600     1  0.0000000  0.0000000  3
   9597   9593   9598   9599     1  0.0000000  0.6973333  3
   9597   9593   9582   9600     1  0.0000000  1.0460000  1
   9597   9593   9582   9600     1  0.0000000  0.0000000  3
   9600   9587   9591   9601     1  0.0000000  0.6973333  3
   9600   9582   9583   9602     1  0.0000000  1.0460000  1
   9600   9582   9583   9602     1  0.0000000  0.0000000  3
   9602   9583   9603   9604     1  0.0000000  0.6973333  3
   9606   9607   9609   9613     1  0.0000000  0.6508444  3
   9606   9607   9627   9628     1  0.0000000  1.0460000  1
   9606   9607   9627   9628     1  0.0000000  0.6694400  3
   9606   9617   9622   9623     1  0.0000000  1.0460000  1
   9606   9617   9622   9623     1  0.0000000  0.6694400  3
   9606   9624   9611   9614     1  0.0000000  1.6038667  3
   9607   9609   9610   9612     1  0.0000000  0.6508444  3
   9607   9609   9616   9618     1  0.0000000  1.0460000  1
   9607   9609   9616   9618     1  0.0000000  0.6694400  3
   9607   9606   9617   9620     1  0.0000000  0.6508444  3
   9607   9606   9617   9621     1  0.0000000  0.6508444  3
   9608   9606   9607   9609     1  0.0000000  0.6508444  3
   9608   9606   9607   9627     1  0.0000000  1.0460000  1
   9608   9606   9607   9627     1  0.0000000  0.0000000  3
   9608   9606   9607   9626     1  0.0000000  0.6508444  3
   9608   9606   9617   9622     1  0.0000000  1.0460000  1
   9608   9606   9617   9622     1  0.0000000  0.0000000  3
   9608   9606   9617   9620     1  0.0000000  0.6508444  3
   9608   9606   9617   9621     1  0.0000000  0.6508444  3
   9608   9606   9624   9611     1  0.0000000  1.6038667  3
   9609   9610   9611   9614     1  0.0000000  0.6508444  3
   9609   9610   9629   9619     1  0.0000000  1.2552000  3
   9609   9607   9627   9628     1  0.0000000  1.0460000  1
   9609   9607   9627   9628     1  0.0000000  0.6694400  3
   9610   9611   9615   9625     1  0.0000000  1.0460000  1
   9610   9611   9615   9625     1  0.0000000  0.6694400  3
   9610   9609   9616   9618     1  0.0000000  1.0460000  1
   9610   9609   9616   9618     1  0.0000000  0.6694400  3
   9610   9609   9607   9626     1  0.0000000  0.6508444  3
   9611   9610   9629   9619     1  0.0000000  1.2552000  3
   9611   9610   9609   9613     1  0.0000000  0.6508444  3
   9612   9610   9611   9615     1  0.0000000  1.0460000  1
   9612   9610   9611   9615     1  0.0000000  0.0000000  3
   9612   9610   9611   9624     1  0.0000000  1.0460000  1
   9612   9610   9611   9624     1  0.0000000  0.0000000  3
   9612   9610   9611   9614     1  0.0000000  0.6508444  3
   9612   9610   9629   9619     1  0.0000000  1.2552000  3
   9612   9610   9609   9616     1  0.0000000  1.0460000  1
   9612   9610   9609   9616     1  0.0000000  0.0000000  3
   9612   9610   9609   9613     1  0.0000000  0.6508444  3
   9613   9609   9610   9629     1  0.0000000  0.6508444  3
   9613   9609   9616   9618     1  0.0000000  0.6973333  3
   9613   9609   9607   9627     1  0.0000000  1.0460000  1
   9613   9609   9607   9627     1  0.0000000  0.0000000  3
   9613   9609   9607   9626     1  0.0000000  0.6508444  3
   9614   9611   9615   9625     1  0.0000000  0.6973333  3
   9614   9611   9610   9629     1  0.0000000  0.6508444  3
   9616   9609   9607   9626     1  0.0000000  1.0460000  1
   9616   9609   9607   9626     1  0.0000000  0.0000000  3
   9617   9606   9607   9626     1  0.0000000  0.6508444  3
   9620   9617   9622   9623     1  0.0000000  0.6973333  3
   9620   9617   9606   9624     1  0.0000000  1.0460000  1
   9620   9617   9606   9624     1  0.0000000  0.0000000  3
   9621   9617   9622   9623     1  0.0000000  0.6973333  3
   9621   9617   9606   9624     1  0.0000000  1.0460000  1
   9621   9617   9606   9624     1  0.0000000  0.0000000  3
   9624   9611   9615   9625     1  0.0000000  0.6973333  3
   9624   9606   9607   9626     1  0.0000000  1.0460000  1
   9624   9606   9607   9626     1  0.0000000  0.0000000  3
   9626   9607   9627   9628     1  0.0000000  0.6973333  3
   9631   9633   9635   9637     1  0.0000000  0.6508444  3
   9631   9633   9635   9638     1  0.0000000  0.6508444  3
   9632   9631   9633   9635     1  0.0000000  0.0000000  2
   9632   9631   9633   9634     1  0.0000000  0.0000000  2
   9632   9631   9633   9636     1  0.0000000  0.0000000  2
   9633   9635   9639   9704     1  0.0000000  0.6508444  3
   9634   9633   9635   9639     1  0.0000000  0.6508444  3
   9634   9633   9635   9637     1  0.0000000  0.6508444  3
   9634   9633   9635   9638     1  0.0000000  0.6508444  3
   9635   9639   9640   9649     1  0.0000000  0.6508444  3
   9635   9639   9640   9650     1  0.0000000  0.6508444  3
   9635   9639   9641   9642     1  0.0000000  0.6508444  3
   9635   9639   9641   9644     1  0.0000000  0.6508444  3
   9636   9633   9635   9639     1  0.0000000  0.6508444  3
   9636   9633   9635   9637     1  0.0000000  0.6508444  3
   9636   9633   9635   9638     1  0.0000000  0.6508444  3
   9637   9635   9639   9640     1  0.0000000  0.6508444  3
   9637   9635   9639   9641     1  0.0000000  0.6508444  3
   9637   9635   9639   9704     1  0.0000000  0.6508444  3
   9638   9635   9639   9640     1  0.0000000  0.6508444  3
   9638   9635   9639   9641     1  0.0000000  0.6508444  3
   9638   9635   9639   9704     1  0.0000000  0.6508444  3
   9639   9640   9651   9652     1  0.0000000  0.6508444  3
   9639   9640   9651   9653     1  0.0000000  0.6508444  3
   9639   9641   9643   9645     1  0.0000000  0.6508444  3
   9639   9641   9643   9646     1  0.0000000  0.6508444  3
   9640   9639   9641   9642     1  0.0000000  0.6508444  3
   9640   9639   9641   9644     1  0.0000000  0.6508444  3
   9641   9639   9640   9649     1  0.0000000  0.6508444  3
   9641   9639   9640   9650     1  0.0000000  0.6508444  3
   9642   9641   9639   9704     1  0.0000000  0.6508444  3
   9642   9641   9643   9647     1  0.0000000  0.6508444  3
   9642   9641   9643   9645     1  0.0000000  0.6508444  3
   9642   9641   9643   9646     1  0.0000000  0.6508444  3
   9643   9641   9639   9704     1  0.0000000  0.6508444  3
   9643   9647   9679   9669     1  180.0000771  6.0668000  2
   9643   9647   9679   9669     1  180.0000771  1.4644000  4
   9644   9641   9639   9704     1  0.0000000  0.6508444  3
   9644   9641   9643   9647     1  0.0000000  0.6508444  3
   9644   9641   9643   9645     1  0.0000000  0.6508444  3
   9644   9641   9643   9646     1  0.0000000  0.6508444  3
   9645   9643   9647   9648     1  0.0000000  3.3472000  1
   9645   9643   9647   9648     1  0.0000000  0.0000000  2
   9645   9643   9647   9648     1  180.0000771  0.3347200  3
   9645   9643   9647   9679     1  180.0000771  0.0000000  2
   9646   9643   9647   9648     1  0.0000000  3.3472000  1
   9646   9643   9647   9648     1  0.0000000  0.0000000  2
   9646   9643   9647   9648     1  180.0000771  0.3347200  3
   9646   9643   9647   9679     1  180.0000771  0.0000000  2
   9647   9679   9660   9662     1  0.0000000  1.2552000  3
   9648   9647   9679   9669     1  180.0000771  6.0668000  2
   9648   9647   9679   9669     1  180.0000771  1.4644000  4
   9649   9640   9639   9704     1  0.0000000  0.6508444  3
   9649   9640   9651   9654     1  0.0000000  0.6508444  3
   9649   9640   9651   9652     1  0.0000000  0.6508444  3
   9649   9640   9651   9653     1  0.0000000  0.6508444  3
   9650   9640   9639   9704     1  0.0000000  0.6508444  3
   9650   9640   9651   9654     1  0.0000000  0.6508444  3
   9650   9640   9651   9652     1  0.0000000  0.6508444  3
   9650   9640   9651   9653     1  0.0000000  0.6508444  3
   9651   9640   9639   9704     1  0.0000000  0.6508444  3
   9651   9654   9703   9693     1  180.0000771  6.0668000  2
   9651   9654   9703   9693     1  180.0000771  1.4644000  4
   9652   9651   9654   9655     1  0.0000000  3.3472000  1
   9652   9651   9654   9655     1  0.0000000  0.0000000  2
   9652   9651   9654   9655     1  180.0000771  0.3347200  3
   9652   9651   9654   9703     1  180.0000771  0.0000000  2
   9653   9651   9654   9655     1  0.0000000  3.3472000  1
   9653   9651   9654   9655     1  0.0000000  0.0000000  2
   9653   9651   9654   9655     1  180.0000771  0.3347200  3
   9653   9651   9654   9703     1  180.0000771  0.0000000  2
   9654   9703   9684   9686     1  0.0000000  1.2552000  3
   9655   9654   9703   9693     1  180.0000771  6.0668000  2
   9655   9654   9703   9693     1  180.0000771  1.4644000  4
   9656   9657   9659   9663     1  0.0000000  0.6508444  3
   9656   9657   9677   9678     1  0.0000000  1.0460000  1
   9656   9657   9677   9678     1  0.0000000  0.6694400  3
   9656   9667   9672   9673     1  0.0000000  1.0460000  1
   9656   9667   9672   9673     1  0.0000000  0.6694400  3
   9656   9674   9661   9664     1  0.0000000  1.6038667  3
   9657   9656   9667   9670     1  0.0000000  0.6508444  3
   9657   9656   9667   9671     1  0.0000000  0.6508444  3
   9657   9659   9660   9662     1  0.0000000  0.6508444  3
   9657   9659   9666   9668     1  0.0000000  1.0460000  1
   9657   9659   9666   9668     1  0.0000000  0.6694400  3
   9658   9656   9657   9659     1  0.0000000  0.6508444  3
   9658   9656   9657   9677     1  0.0000000  1.0460000  1
   9658   9656   9657   9677     1  0.0000000  0.0000000  3
   9658   9656   9657   9676     1  0.0000000  0.6508444  3
   9658   9656   9667   9672     1  0.0000000  1.0460000  1
   9658   9656   9667   9672     1  0.0000000  0.0000000  3
   9658   9656   9667   9670     1  0.0000000  0.6508444  3
   9658   9656   9667   9671     1  0.0000000  0.6508444  3
   9658   9656   9674   9661     1  0.0000000  1.6038667  3
   9659   9657   9677   9678     1  0.0000000  1.0460000  1
   9659   9657   9677   9678     1  0.0000000  0.6694400  3
   9659   9660   9661   9664     1  0.0000000  0.6508444  3
   9659   9660   9679   9669     1  0.0000000  1.2552000  3
   9660   9659   9657   9676     1  0.0000000  0.6508444  3
   9660   9659   9666   9668     1  0.0000000  1.0460000  1
   9660   9659   9666   9668     1  0.0000000  0.6694400  3
   9660   9661   9665   9675     1  0.0000000  1.0460000  1
   9660   9661   9665   9675     1  0.0000000  0.6694400  3
   9661   9660   9659   9663     1  0.0000000  0.6508444  3
   9661   9660   9679   9669     1  0.0000000  1.2552000  3
   9662   9660   9659   9666     1  0.0000000  1.0460000  1
   9662   9660   9659   9666     1  0.0000000  0.0000000  3
   9662   9660   9659   9663     1  0.0000000  0.6508444  3
   9662   9660   9661   9665     1  0.0000000  1.0460000  1
   9662   9660   9661   9665     1  0.0000000  0.0000000  3
   9662   9660   9661   9674     1  0.0000000  1.0460000  1
   9662   9660   9661   9674     1  0.0000000  0.0000000  3
   9662   9660   9661   9664     1  0.0000000  0.6508444  3
   9662   9660   9679   9669     1  0.0000000  1.2552000  3
   9663   9659   9657   9677     1  0.0000000  1.0460000  1
   9663   9659   9657   9677     1  0.0000000  0.0000000  3
   9663   9659   9657   9676     1  0.0000000  0.6508444  3
   9663   9659   9660   9679     1  0.0000000  0.6508444  3
   9663   9659   9666   9668     1  0.0000000  0.6973333  3
   9664   9661   9660   9679     1  0.0000000  0.6508444  3
   9664   9661   9665   9675     1  0.0000000  0.6973333  3
   9666   9659   9657   9676     1  0.0000000  1.0460000  1
   9666   9659   9657   9676     1  0.0000000  0.0000000  3
   9667   9656   9657   9676     1  0.0000000  0.6508444  3
   9670   9667   9656   9674     1  0.0000000  1.0460000  1
   9670   9667   9656   9674     1  0.0000000  0.0000000  3
   9670   9667   9672   9673     1  0.0000000  0.6973333  3
   9671   9667   9656   9674     1  0.0000000  1.0460000  1
   9671   9667   9656   9674     1  0.0000000  0.0000000  3
   9671   9667   9672   9673     1  0.0000000  0.6973333  3
   9674   9656   9657   9676     1  0.0000000  1.0460000  1
   9674   9656   9657   9676     1  0.0000000  0.0000000  3
   9674   9661   9665   9675     1  0.0000000  0.6973333  3
   9676   9657   9677   9678     1  0.0000000  0.6973333  3
   9680   9681   9683   9687     1  0.0000000  0.6508444  3
   9680   9681   9701   9702     1  0.0000000  1.0460000  1
   9680   9681   9701   9702     1  0.0000000  0.6694400  3
   9680   9691   9696   9697     1  0.0000000  1.0460000  1
   9680   9691   9696   9697     1  0.0000000  0.6694400  3
   9680   9698   9685   9688     1  0.0000000  1.6038667  3
   9681   9680   9691   9694     1  0.0000000  0.6508444  3
   9681   9680   9691   9695     1  0.0000000  0.6508444  3
   9681   9683   9684   9686     1  0.0000000  0.6508444  3
   9681   9683   9690   9692     1  0.0000000  1.0460000  1
   9681   9683   9690   9692     1  0.0000000  0.6694400  3
   9682   9680   9681   9683     1  0.0000000  0.6508444  3
   9682   9680   9681   9701     1  0.0000000  1.0460000  1
   9682   9680   9681   9701     1  0.0000000  0.0000000  3
   9682   9680   9681   9700     1  0.0000000  0.6508444  3
   9682   9680   9691   9696     1  0.0000000  1.0460000  1
   9682   9680   9691   9696     1  0.0000000  0.0000000  3
   9682   9680   9691   9694     1  0.0000000  0.6508444  3
   9682   9680   9691   9695     1  0.0000000  0.6508444  3
   9682   9680   9698   9685     1  0.0000000  1.6038667  3
   9683   9681   9701   9702     1  0.0000000  1.0460000  1
   9683   9681   9701   9702     1  0.0000000  0.6694400  3
   9683   9684   9685   9688     1  0.0000000  0.6508444  3
   9683   9684   9703   9693     1  0.0000000  1.2552000  3
   9684   9683   9681   9700     1  0.0000000  0.6508444  3
   9684   9683   9690   9692     1  0.0000000  1.0460000  1
   9684   9683   9690   9692     1  0.0000000  0.6694400  3
   9684   9685   9689   9699     1  0.0000000  1.0460000  1
   9684   9685   9689   9699     1  0.0000000  0.6694400  3
   9685   9684   9683   9687     1  0.0000000  0.6508444  3
   9685   9684   9703   9693     1  0.0000000  1.2552000  3
   9686   9684   9683   9690     1  0.0000000  1.0460000  1
   9686   9684   9683   9690     1  0.0000000  0.0000000  3
   9686   9684   9683   9687     1  0.0000000  0.6508444  3
   9686   9684   9685   9689     1  0.0000000  1.0460000  1
   9686   9684   9685   9689     1  0.0000000  0.0000000  3
   9686   9684   9685   9698     1  0.0000000  1.0460000  1
   9686   9684   9685   9698     1  0.0000000  0.0000000  3
   9686   9684   9685   9688     1  0.0000000  0.6508444  3
   9686   9684   9703   9693     1  0.0000000  1.2552000  3
   9687   9683   9681   9701     1  0.0000000  1.0460000  1
   9687   9683   9681   9701     1  0.0000000  0.0000000  3
   9687   9683   9681   9700     1  0.0000000  0.6508444  3
   9687   9683   9684   9703     1  0.0000000  0.6508444  3
   9687   9683   9690   9692     1  0.0000000  0.6973333  3
   9688   9685   9684   9703     1  0.0000000  0.6508444  3
   9688   9685   9689   9699     1  0.0000000  0.6973333  3
   9690   9683   9681   9700     1  0.0000000  1.0460000  1
   9690   9683   9681   9700     1  0.0000000  0.0000000  3
   9691   9680   9681   9700     1  0.0000000  0.6508444  3
   9694   9691   9680   9698     1  0.0000000  1.0460000  1
   9694   9691   9680   9698     1  0.0000000  0.0000000  3
   9694   9691   9696   9697     1  0.0000000  0.6973333  3
   9695   9691   9680   9698     1  0.0000000  1.0460000  1
   9695   9691   9680   9698     1  0.0000000  0.0000000  3
   9695   9691   9696   9697     1  0.0000000  0.6973333  3
   9698   9680   9681   9700     1  0.0000000  1.0460000  1
   9698   9680   9681   9700     1  0.0000000  0.0000000  3
   9698   9685   9689   9699     1  0.0000000  0.6973333  3
   9700   9681   9701   9702     1  0.0000000  0.6973333  3
   9705   9707   9709   9711     1  0.0000000  0.6508444  3
   9705   9707   9709   9712     1  0.0000000  0.6508444  3
   9706   9705   9707   9709     1  0.0000000  0.0000000  2
   9706   9705   9707   9708     1  0.0000000  0.0000000  2
   9706   9705   9707   9710     1  0.0000000  0.0000000  2
   9707   9709   9713   9778     1  0.0000000  0.6508444  3
   9708   9707   9709   9713     1  0.0000000  0.6508444  3
   9708   9707   9709   9711     1  0.0000000  0.6508444  3
   9708   9707   9709   9712     1  0.0000000  0.6508444  3
   9709   9713   9714   9723     1  0.0000000  0.6508444  3
   9709   9713   9714   9724     1  0.0000000  0.6508444  3
   9709   9713   9715   9716     1  0.0000000  0.6508444  3
   9709   9713   9715   9718     1  0.0000000  0.6508444  3
   9710   9707   9709   9713     1  0.0000000  0.6508444  3
   9710   9707   9709   9711     1  0.0000000  0.6508444  3
   9710   9707   9709   9712     1  0.0000000  0.6508444  3
   9711   9709   9713   9714     1  0.0000000  0.6508444  3
   9711   9709   9713   9715     1  0.0000000  0.6508444  3
   9711   9709   9713   9778     1  0.0000000  0.6508444  3
   9712   9709   9713   9714     1  0.0000000  0.6508444  3
   9712   9709   9713   9715     1  0.0000000  0.6508444  3
   9712   9709   9713   9778     1  0.0000000  0.6508444  3
   9713   9714   9725   9726     1  0.0000000  0.6508444  3
   9713   9714   9725   9727     1  0.0000000  0.6508444  3
   9713   9715   9717   9719     1  0.0000000  0.6508444  3
   9713   9715   9717   9720     1  0.0000000  0.6508444  3
   9714   9713   9715   9716     1  0.0000000  0.6508444  3
   9714   9713   9715   9718     1  0.0000000  0.6508444  3
   9715   9713   9714   9723     1  0.0000000  0.6508444  3
   9715   9713   9714   9724     1  0.0000000  0.6508444  3
   9716   9715   9717   9721     1  0.0000000  0.6508444  3
   9716   9715   9717   9719     1  0.0000000  0.6508444  3
   9716   9715   9717   9720     1  0.0000000  0.6508444  3
   9716   9715   9713   9778     1  0.0000000  0.6508444  3
   9717   9721   9753   9743     1  180.0000771  6.0668000  2
   9717   9721   9753   9743     1  180.0000771  1.4644000  4
   9717   9715   9713   9778     1  0.0000000  0.6508444  3
   9718   9715   9717   9721     1  0.0000000  0.6508444  3
   9718   9715   9717   9719     1  0.0000000  0.6508444  3
   9718   9715   9717   9720     1  0.0000000  0.6508444  3
   9718   9715   9713   9778     1  0.0000000  0.6508444  3
   9719   9717   9721   9722     1  0.0000000  3.3472000  1
   9719   9717   9721   9722     1  0.0000000  0.0000000  2
   9719   9717   9721   9722     1  180.0000771  0.3347200  3
   9719   9717   9721   9753     1  180.0000771  0.0000000  2
   9720   9717   9721   9722     1  0.0000000  3.3472000  1
   9720   9717   9721   9722     1  0.0000000  0.0000000  2
   9720   9717   9721   9722     1  180.0000771  0.3347200  3
   9720   9717   9721   9753     1  180.0000771  0.0000000  2
   9721   9753   9734   9736     1  0.0000000  1.2552000  3
   9722   9721   9753   9743     1  180.0000771  6.0668000  2
   9722   9721   9753   9743     1  180.0000771  1.4644000  4
   9723   9714   9725   9728     1  0.0000000  0.6508444  3
   9723   9714   9725   9726     1  0.0000000  0.6508444  3
   9723   9714   9725   9727     1  0.0000000  0.6508444  3
   9723   9714   9713   9778     1  0.0000000  0.6508444  3
   9724   9714   9725   9728     1  0.0000000  0.6508444  3
   9724   9714   9725   9726     1  0.0000000  0.6508444  3
   9724   9714   9725   9727     1  0.0000000  0.6508444  3
   9724   9714   9713   9778     1  0.0000000  0.6508444  3
   9725   9728   9777   9767     1  180.0000771  6.0668000  2
   9725   9728   9777   9767     1  180.0000771  1.4644000  4
   9725   9714   9713   9778     1  0.0000000  0.6508444  3
   9726   9725   9728   9729     1  0.0000000  3.3472000  1
   9726   9725   9728   9729     1  0.0000000  0.0000000  2
   9726   9725   9728   9729     1  180.0000771  0.3347200  3
   9726   9725   9728   9777     1  180.0000771  0.0000000  2
   9727   9725   9728   9729     1  0.0000000  3.3472000  1
   9727   9725   9728   9729     1  0.0000000  0.0000000  2
   9727   9725   9728   9729     1  180.0000771  0.3347200  3
   9727   9725   9728   9777     1  180.0000771  0.0000000  2
   9728   9777   9758   9760     1  0.0000000  1.2552000  3
   9729   9728   9777   9767     1  180.0000771  6.0668000  2
   9729   9728   9777   9767     1  180.0000771  1.4644000  4
   9730   9731   9733   9737     1  0.0000000  0.6508444  3
   9730   9731   9751   9752     1  0.0000000  1.0460000  1
   9730   9731   9751   9752     1  0.0000000  0.6694400  3
   9730   9741   9746   9747     1  0.0000000  1.0460000  1
   9730   9741   9746   9747     1  0.0000000  0.6694400  3
   9730   9748   9735   9738     1  0.0000000  1.6038667  3
   9731   9733   9734   9736     1  0.0000000  0.6508444  3
   9731   9733   9740   9742     1  0.0000000  1.0460000  1
   9731   9733   9740   9742     1  0.0000000  0.6694400  3
   9731   9730   9741   9744     1  0.0000000  0.6508444  3
   9731   9730   9741   9745     1  0.0000000  0.6508444  3
   9732   9730   9731   9733     1  0.0000000  0.6508444  3
   9732   9730   9731   9751     1  0.0000000  1.0460000  1
   9732   9730   9731   9751     1  0.0000000  0.0000000  3
   9732   9730   9731   9750     1  0.0000000  0.6508444  3
   9732   9730   9741   9746     1  0.0000000  1.0460000  1
   9732   9730   9741   9746     1  0.0000000  0.0000000  3
   9732   9730   9741   9744     1  0.0000000  0.6508444  3
   9732   9730   9741   9745     1  0.0000000  0.6508444  3
   9732   9730   9748   9735     1  0.0000000  1.6038667  3
   9733   9734   9735   9738     1  0.0000000  0.6508444  3
   9733   9734   9753   9743     1  0.0000000  1.2552000  3
   9733   9731   9751   9752     1  0.0000000  1.0460000  1
   9733   9731   9751   9752     1  0.0000000  0.6694400  3
   9734   9735   9739   9749     1  0.0000000  1.0460000  1
   9734   9735   9739   9749     1  0.0000000  0.6694400  3
   9734   9733   9740   9742     1  0.0000000  1.0460000  1
   9734   9733   9740   9742     1  0.0000000  0.6694400  3
   9734   9733   9731   9750     1  0.0000000  0.6508444  3
   9735   9734   9753   9743     1  0.0000000  1.2552000  3
   9735   9734   9733   9737     1  0.0000000  0.6508444  3
   9736   9734   9735   9739     1  0.0000000  1.0460000  1
   9736   9734   9735   9739     1  0.0000000  0.0000000  3
   9736   9734   9735   9748     1  0.0000000  1.0460000  1
   9736   9734   9735   9748     1  0.0000000  0.0000000  3
   9736   9734   9735   9738     1  0.0000000  0.6508444  3
   9736   9734   9753   9743     1  0.0000000  1.2552000  3
   9736   9734   9733   9740     1  0.0000000  1.0460000  1
   9736   9734   9733   9740     1  0.0000000  0.0000000  3
   9736   9734   9733   9737     1  0.0000000  0.6508444  3
   9737   9733   9734   9753     1  0.0000000  0.6508444  3
   9737   9733   9740   9742     1  0.0000000  0.6973333  3
   9737   9733   9731   9751     1  0.0000000  1.0460000  1
   9737   9733   9731   9751     1  0.0000000  0.0000000  3
   9737   9733   9731   9750     1  0.0000000  0.6508444  3
   9738   9735   9739   9749     1  0.0000000  0.6973333  3
   9738   9735   9734   9753     1  0.0000000  0.6508444  3
   9740   9733   9731   9750     1  0.0000000  1.0460000  1
   9740   9733   9731   9750     1  0.0000000  0.0000000  3
   9741   9730   9731   9750     1  0.0000000  0.6508444  3
   9744   9741   9746   9747     1  0.0000000  0.6973333  3
   9744   9741   9730   9748     1  0.0000000  1.0460000  1
   9744   9741   9730   9748     1  0.0000000  0.0000000  3
   9745   9741   9746   9747     1  0.0000000  0.6973333  3
   9745   9741   9730   9748     1  0.0000000  1.0460000  1
   9745   9741   9730   9748     1  0.0000000  0.0000000  3
   9748   9735   9739   9749     1  0.0000000  0.6973333  3
   9748   9730   9731   9750     1  0.0000000  1.0460000  1
   9748   9730   9731   9750     1  0.0000000  0.0000000  3
   9750   9731   9751   9752     1  0.0000000  0.6973333  3
   9754   9755   9757   9761     1  0.0000000  0.6508444  3
   9754   9755   9775   9776     1  0.0000000  1.0460000  1
   9754   9755   9775   9776     1  0.0000000  0.6694400  3
   9754   9765   9770   9771     1  0.0000000  1.0460000  1
   9754   9765   9770   9771     1  0.0000000  0.6694400  3
   9754   9772   9759   9762     1  0.0000000  1.6038667  3
   9755   9757   9758   9760     1  0.0000000  0.6508444  3
   9755   9757   9764   9766     1  0.0000000  1.0460000  1
   9755   9757   9764   9766     1  0.0000000  0.6694400  3
   9755   9754   9765   9768     1  0.0000000  0.6508444  3
   9755   9754   9765   9769     1  0.0000000  0.6508444  3
   9756   9754   9755   9757     1  0.0000000  0.6508444  3
   9756   9754   9755   9775     1  0.0000000  1.0460000  1
   9756   9754   9755   9775     1  0.0000000  0.0000000  3
   9756   9754   9755   9774     1  0.0000000  0.6508444  3
   9756   9754   9765   9770     1  0.0000000  1.0460000  1
   9756   9754   9765   9770     1  0.0000000  0.0000000  3
   9756   9754   9765   9768     1  0.0000000  0.6508444  3
   9756   9754   9765   9769     1  0.0000000  0.6508444  3
   9756   9754   9772   9759     1  0.0000000  1.6038667  3
   9757   9758   9759   9762     1  0.0000000  0.6508444  3
   9757   9758   9777   9767     1  0.0000000  1.2552000  3
   9757   9755   9775   9776     1  0.0000000  1.0460000  1
   9757   9755   9775   9776     1  0.0000000  0.6694400  3
   9758   9759   9763   9773     1  0.0000000  1.0460000  1
   9758   9759   9763   9773     1  0.0000000  0.6694400  3
   9758   9757   9764   9766     1  0.0000000  1.0460000  1
   9758   9757   9764   9766     1  0.0000000  0.6694400  3
   9758   9757   9755   9774     1  0.0000000  0.6508444  3
   9759   9758   9777   9767     1  0.0000000  1.2552000  3
   9759   9758   9757   9761     1  0.0000000  0.6508444  3
   9760   9758   9759   9763     1  0.0000000  1.0460000  1
   9760   9758   9759   9763     1  0.0000000  0.0000000  3
   9760   9758   9759   9772     1  0.0000000  1.0460000  1
   9760   9758   9759   9772     1  0.0000000  0.0000000  3
   9760   9758   9759   9762     1  0.0000000  0.6508444  3
   9760   9758   9777   9767     1  0.0000000  1.2552000  3
   9760   9758   9757   9764     1  0.0000000  1.0460000  1
   9760   9758   9757   9764     1  0.0000000  0.0000000  3
   9760   9758   9757   9761     1  0.0000000  0.6508444  3
   9761   9757   9758   9777     1  0.0000000  0.6508444  3
   9761   9757   9764   9766     1  0.0000000  0.6973333  3
   9761   9757   9755   9775     1  0.0000000  1.0460000  1
   9761   9757   9755   9775     1  0.0000000  0.0000000  3
   9761   9757   9755   9774     1  0.0000000  0.6508444  3
   9762   9759   9763   9773     1  0.0000000  0.6973333  3
   9762   9759   9758   9777     1  0.0000000  0.6508444  3
   9764   9757   9755   9774     1  0.0000000  1.0460000  1
   9764   9757   9755   9774     1  0.0000000  0.0000000  3
   9765   9754   9755   9774     1  0.0000000  0.6508444  3
   9768   9765   9770   9771     1  0.0000000  0.6973333  3
   9768   9765   9754   9772     1  0.0000000  1.0460000  1
   9768   9765   9754   9772     1  0.0000000  0.0000000  3
   9769   9765   9770   9771     1  0.0000000  0.6973333  3
   9769   9765   9754   9772     1  0.0000000  1.0460000  1
   9769   9765   9754   9772     1  0.0000000  0.0000000  3
   9772   9759   9763   9773     1  0.0000000  0.6973333  3
   9772   9754   9755   9774     1  0.0000000  1.0460000  1
   9772   9754   9755   9774     1  0.0000000  0.0000000  3
   9774   9755   9775   9776     1  0.0000000  0.6973333  3
   9779   9781   9783   9785     1  0.0000000  0.6508444  3
   9779   9781   9783   9786     1  0.0000000  0.6508444  3
   9780   9779   9781   9783     1  0.0000000  0.0000000  2
   9780   9779   9781   9782     1  0.0000000  0.0000000  2
   9780   9779   9781   9784     1  0.0000000  0.0000000  2
   9781   9783   9787   9852     1  0.0000000  0.6508444  3
   9782   9781   9783   9787     1  0.0000000  0.6508444  3
   9782   9781   9783   9785     1  0.0000000  0.6508444  3
   9782   9781   9783   9786     1  0.0000000  0.6508444  3
   9783   9787   9788   9797     1  0.0000000  0.6508444  3
   9783   9787   9788   9798     1  0.0000000  0.6508444  3
   9783   9787   9789   9790     1  0.0000000  0.6508444  3
   9783   9787   9789   9792     1  0.0000000  0.6508444  3
   9784   9781   9783   9787     1  0.0000000  0.6508444  3
   9784   9781   9783   9785     1  0.0000000  0.6508444  3
   9784   9781   9783   9786     1  0.0000000  0.6508444  3
   9785   9783   9787   9788     1  0.0000000  0.6508444  3
   9785   9783   9787   9789     1  0.0000000  0.6508444  3
   9785   9783   9787   9852     1  0.0000000  0.6508444  3
   9786   9783   9787   9788     1  0.0000000  0.6508444  3
   9786   9783   9787   9789     1  0.0000000  0.6508444  3
   9786   9783   9787   9852     1  0.0000000  0.6508444  3
   9787   9788   9799   9800     1  0.0000000  0.6508444  3
   9787   9788   9799   9801     1  0.0000000  0.6508444  3
   9787   9789   9791   9793     1  0.0000000  0.6508444  3
   9787   9789   9791   9794     1  0.0000000  0.6508444  3
   9788   9787   9789   9790     1  0.0000000  0.6508444  3
   9788   9787   9789   9792     1  0.0000000  0.6508444  3
   9789   9787   9788   9797     1  0.0000000  0.6508444  3
   9789   9787   9788   9798     1  0.0000000  0.6508444  3
   9790   9789   9787   9852     1  0.0000000  0.6508444  3
   9790   9789   9791   9795     1  0.0000000  0.6508444  3
   9790   9789   9791   9793     1  0.0000000  0.6508444  3
   9790   9789   9791   9794     1  0.0000000  0.6508444  3
   9791   9789   9787   9852     1  0.0000000  0.6508444  3
   9791   9795   9827   9817     1  180.0000771  6.0668000  2
   9791   9795   9827   9817     1  180.0000771  1.4644000  4
   9792   9789   9787   9852     1  0.0000000  0.6508444  3
   9792   9789   9791   9795     1  0.0000000  0.6508444  3
   9792   9789   9791   9793     1  0.0000000  0.6508444  3
   9792   9789   9791   9794     1  0.0000000  0.6508444  3
   9793   9791   9795   9796     1  0.0000000  3.3472000  1
   9793   9791   9795   9796     1  0.0000000  0.0000000  2
   9793   9791   9795   9796     1  180.0000771  0.3347200  3
   9793   9791   9795   9827     1  180.0000771  0.0000000  2
   9794   9791   9795   9796     1  0.0000000  3.3472000  1
   9794   9791   9795   9796     1  0.0000000  0.0000000  2
   9794   9791   9795   9796     1  180.0000771  0.3347200  3
   9794   9791   9795   9827     1  180.0000771  0.0000000  2
   9795   9827   9808   9810     1  0.0000000  1.2552000  3
   9796   9795   9827   9817     1  180.0000771  6.0668000  2
   9796   9795   9827   9817     1  180.0000771  1.4644000  4
   9797   9788   9787   9852     1  0.0000000  0.6508444  3
   9797   9788   9799   9802     1  0.0000000  0.6508444  3
   9797   9788   9799   9800     1  0.0000000  0.6508444  3
   9797   9788   9799   9801     1  0.0000000  0.6508444  3
   9798   9788   9787   9852     1  0.0000000  0.6508444  3
   9798   9788   9799   9802     1  0.0000000  0.6508444  3
   9798   9788   9799   9800     1  0.0000000  0.6508444  3
   9798   9788   9799   9801     1  0.0000000  0.6508444  3
   9799   9788   9787   9852     1  0.0000000  0.6508444  3
   9799   9802   9851   9841     1  180.0000771  6.0668000  2
   9799   9802   9851   9841     1  180.0000771  1.4644000  4
   9800   9799   9802   9803     1  0.0000000  3.3472000  1
   9800   9799   9802   9803     1  0.0000000  0.0000000  2
   9800   9799   9802   9803     1  180.0000771  0.3347200  3
   9800   9799   9802   9851     1  180.0000771  0.0000000  2
   9801   9799   9802   9803     1  0.0000000  3.3472000  1
   9801   9799   9802   9803     1  0.0000000  0.0000000  2
   9801   9799   9802   9803     1  180.0000771  0.3347200  3
   9801   9799   9802   9851     1  180.0000771  0.0000000  2
   9802   9851   9832   9834     1  0.0000000  1.2552000  3
   9803   9802   9851   9841     1  180.0000771  6.0668000  2
   9803   9802   9851   9841     1  180.0000771  1.4644000  4
   9804   9805   9807   9811     1  0.0000000  0.6508444  3
   9804   9805   9825   9826     1  0.0000000  1.0460000  1
   9804   9805   9825   9826     1  0.0000000  0.6694400  3
   9804   9815   9820   9821     1  0.0000000  1.0460000  1
   9804   9815   9820   9821     1  0.0000000  0.6694400  3
   9804   9822   9809   9812     1  0.0000000  1.6038667  3
   9805   9804   9815   9818     1  0.0000000  0.6508444  3
   9805   9804   9815   9819     1  0.0000000  0.6508444  3
   9805   9807   9808   9810     1  0.0000000  0.6508444  3
   9805   9807   9814   9816     1  0.0000000  1.0460000  1
   9805   9807   9814   9816     1  0.0000000  0.6694400  3
   9806   9804   9805   9807     1  0.0000000  0.6508444  3
   9806   9804   9805   9825     1  0.0000000  1.0460000  1
   9806   9804   9805   9825     1  0.0000000  0.0000000  3
   9806   9804   9805   9824     1  0.0000000  0.6508444  3
   9806   9804   9815   9820     1  0.0000000  1.0460000  1
   9806   9804   9815   9820     1  0.0000000  0.0000000  3
   9806   9804   9815   9818     1  0.0000000  0.6508444  3
   9806   9804   9815   9819     1  0.0000000  0.6508444  3
   9806   9804   9822   9809     1  0.0000000  1.6038667  3
   9807   9805   9825   9826     1  0.0000000  1.0460000  1
   9807   9805   9825   9826     1  0.0000000  0.6694400  3
   9807   9808   9809   9812     1  0.0000000  0.6508444  3
   9807   9808   9827   9817     1  0.0000000  1.2552000  3
   9808   9807   9805   9824     1  0.0000000  0.6508444  3
   9808   9807   9814   9816     1  0.0000000  1.0460000  1
   9808   9807   9814   9816     1  0.0000000  0.6694400  3
   9808   9809   9813   9823     1  0.0000000  1.0460000  1
   9808   9809   9813   9823     1  0.0000000  0.6694400  3
   9809   9808   9807   9811     1  0.0000000  0.6508444  3
   9809   9808   9827   9817     1  0.0000000  1.2552000  3
   9810   9808   9807   9814     1  0.0000000  1.0460000  1
   9810   9808   9807   9814     1  0.0000000  0.0000000  3
   9810   9808   9807   9811     1  0.0000000  0.6508444  3
   9810   9808   9809   9813     1  0.0000000  1.0460000  1
   9810   9808   9809   9813     1  0.0000000  0.0000000  3
   9810   9808   9809   9822     1  0.0000000  1.0460000  1
   9810   9808   9809   9822     1  0.0000000  0.0000000  3
   9810   9808   9809   9812     1  0.0000000  0.6508444  3
   9810   9808   9827   9817     1  0.0000000  1.2552000  3
   9811   9807   9805   9825     1  0.0000000  1.0460000  1
   9811   9807   9805   9825     1  0.0000000  0.0000000  3
   9811   9807   9805   9824     1  0.0000000  0.6508444  3
   9811   9807   9808   9827     1  0.0000000  0.6508444  3
   9811   9807   9814   9816     1  0.0000000  0.6973333  3
   9812   9809   9808   9827     1  0.0000000  0.6508444  3
   9812   9809   9813   9823     1  0.0000000  0.6973333  3
   9814   9807   9805   9824     1  0.0000000  1.0460000  1
   9814   9807   9805   9824     1  0.0000000  0.0000000  3
   9815   9804   9805   9824     1  0.0000000  0.6508444  3
   9818   9815   9804   9822     1  0.0000000  1.0460000  1
   9818   9815   9804   9822     1  0.0000000  0.0000000  3
   9818   9815   9820   9821     1  0.0000000  0.6973333  3
   9819   9815   9804   9822     1  0.0000000  1.0460000  1
   9819   9815   9804   9822     1  0.0000000  0.0000000  3
   9819   9815   9820   9821     1  0.0000000  0.6973333  3
   9822   9804   9805   9824     1  0.0000000  1.0460000  1
   9822   9804   9805   9824     1  0.0000000  0.0000000  3
   9822   9809   9813   9823     1  0.0000000  0.6973333  3
   9824   9805   9825   9826     1  0.0000000  0.6973333  3
   9828   9829   9831   9835     1  0.0000000  0.6508444  3
   9828   9829   9849   9850     1  0.0000000  1.0460000  1
   9828   9829   9849   9850     1  0.0000000  0.6694400  3
   9828   9839   9844   9845     1  0.0000000  1.0460000  1
   9828   9839   9844   9845     1  0.0000000  0.6694400  3
   9828   9846   9833   9836     1  0.0000000  1.6038667  3
   9829   9828   9839   9842     1  0.0000000  0.6508444  3
   9829   9828   9839   9843     1  0.0000000  0.6508444  3
   9829   9831   9832   9834     1  0.0000000  0.6508444  3
   9829   9831   9838   9840     1  0.0000000  1.0460000  1
   9829   9831   9838   9840     1  0.0000000  0.6694400  3
   9830   9828   9829   9831     1  0.0000000  0.6508444  3
   9830   9828   9829   9849     1  0.0000000  1.0460000  1
   9830   9828   9829   9849     1  0.0000000  0.0000000  3
   9830   9828   9829   9848     1  0.0000000  0.6508444  3
   9830   9828   9839   9844     1  0.0000000  1.0460000  1
   9830   9828   9839   9844     1  0.0000000  0.0000000  3
   9830   9828   9839   9842     1  0.0000000  0.6508444  3
   9830   9828   9839   9843     1  0.0000000  0.6508444  3
   9830   9828   9846   9833     1  0.0000000  1.6038667  3
   9831   9829   9849   9850     1  0.0000000  1.0460000  1
   9831   9829   9849   9850     1  0.0000000  0.6694400  3
   9831   9832   9833   9836     1  0.0000000  0.6508444  3
   9831   9832   9851   9841     1  0.0000000  1.2552000  3
   9832   9831   9829   9848     1  0.0000000  0.6508444  3
   9832   9831   9838   9840     1  0.0000000  1.0460000  1
   9832   9831   9838   9840     1  0.0000000  0.6694400  3
   9832   9833   9837   9847     1  0.0000000  1.0460000  1
   9832   9833   9837   9847     1  0.0000000  0.6694400  3
   9833   9832   9831   9835     1  0.0000000  0.6508444  3
   9833   9832   9851   9841     1  0.0000000  1.2552000  3
   9834   9832   9831   9838     1  0.0000000  1.0460000  1
   9834   9832   9831   9838     1  0.0000000  0.0000000  3
   9834   9832   9831   9835     1  0.0000000  0.6508444  3
   9834   9832   9833   9837     1  0.0000000  1.0460000  1
   9834   9832   9833   9837     1  0.0000000  0.0000000  3
   9834   9832   9833   9846     1  0.0000000  1.0460000  1
   9834   9832   9833   9846     1  0.0000000  0.0000000  3
   9834   9832   9833   9836     1  0.0000000  0.6508444  3
   9834   9832   9851   9841     1  0.0000000  1.2552000  3
   9835   9831   9829   9849     1  0.0000000  1.0460000  1
   9835   9831   9829   9849     1  0.0000000  0.0000000  3
   9835   9831   9829   9848     1  0.0000000  0.6508444  3
   9835   9831   9832   9851     1  0.0000000  0.6508444  3
   9835   9831   9838   9840     1  0.0000000  0.6973333  3
   9836   9833   9832   9851     1  0.0000000  0.6508444  3
   9836   9833   9837   9847     1  0.0000000  0.6973333  3
   9838   9831   9829   9848     1  0.0000000  1.0460000  1
   9838   9831   9829   9848     1  0.0000000  0.0000000  3
   9839   9828   9829   9848     1  0.0000000  0.6508444  3
   9842   9839   9828   9846     1  0.0000000  1.0460000  1
   9842   9839   9828   9846     1  0.0000000  0.0000000  3
   9842   9839   9844   9845     1  0.0000000  0.6973333  3
   9843   9839   9828   9846     1  0.0000000  1.0460000  1
   9843   9839   9828   9846     1  0.0000000  0.0000000  3
   9843   9839   9844   9845     1  0.0000000  0.6973333  3
   9846   9828   9829   9848     1  0.0000000  1.0460000  1
   9846   9828   9829   9848     1  0.0000000  0.0000000  3
   9846   9833   9837   9847     1  0.0000000  0.6973333  3
   9848   9829   9849   9850     1  0.0000000  0.6973333  3
   9853   9855   9857   9859     1  0.0000000  0.6508444  3
   9853   9855   9857   9860     1  0.0000000  0.6508444  3
   9854   9853   9855   9857     1  0.0000000  0.0000000  2
   9854   9853   9855   9856     1  0.0000000  0.0000000  2
   9854   9853   9855   9858     1  0.0000000  0.0000000  2
   9855   9857   9861   9926     1  0.0000000  0.6508444  3
   9856   9855   9857   9861     1  0.0000000  0.6508444  3
   9856   9855   9857   9859     1  0.0000000  0.6508444  3
   9856   9855   9857   9860     1  0.0000000  0.6508444  3
   9857   9861   9862   9871     1  0.0000000  0.6508444  3
   9857   9861   9862   9872     1  0.0000000  0.6508444  3
   9857   9861   9863   9864     1  0.0000000  0.6508444  3
   9857   9861   9863   9866     1  0.0000000  0.6508444  3
   9858   9855   9857   9861     1  0.0000000  0.6508444  3
   9858   9855   9857   9859     1  0.0000000  0.6508444  3
   9858   9855   9857   9860     1  0.0000000  0.6508444  3
   9859   9857   9861   9862     1  0.0000000  0.6508444  3
   9859   9857   9861   9863     1  0.0000000  0.6508444  3
   9859   9857   9861   9926     1  0.0000000  0.6508444  3
   9860   9857   9861   9862     1  0.0000000  0.6508444  3
   9860   9857   9861   9863     1  0.0000000  0.6508444  3
   9860   9857   9861   9926     1  0.0000000  0.6508444  3
   9861   9862   9873   9874     1  0.0000000  0.6508444  3
   9861   9862   9873   9875     1  0.0000000  0.6508444  3
   9861   9863   9865   9867     1  0.0000000  0.6508444  3
   9861   9863   9865   9868     1  0.0000000  0.6508444  3
   9862   9861   9863   9864     1  0.0000000  0.6508444  3
   9862   9861   9863   9866     1  0.0000000  0.6508444  3
   9863   9861   9862   9871     1  0.0000000  0.6508444  3
   9863   9861   9862   9872     1  0.0000000  0.6508444  3
   9864   9863   9865   9869     1  0.0000000  0.6508444  3
   9864   9863   9865   9867     1  0.0000000  0.6508444  3
   9864   9863   9865   9868     1  0.0000000  0.6508444  3
   9864   9863   9861   9926     1  0.0000000  0.6508444  3
   9865   9869   9901   9891     1  180.0000771  6.0668000  2
   9865   9869   9901   9891     1  180.0000771  1.4644000  4
   9865   9863   9861   9926     1  0.0000000  0.6508444  3
   9866   9863   9865   9869     1  0.0000000  0.6508444  3
   9866   9863   9865   9867     1  0.0000000  0.6508444  3
   9866   9863   9865   9868     1  0.0000000  0.6508444  3
   9866   9863   9861   9926     1  0.0000000  0.6508444  3
   9867   9865   9869   9870     1  0.0000000  3.3472000  1
   9867   9865   9869   9870     1  0.0000000  0.0000000  2
   9867   9865   9869   9870     1  180.0000771  0.3347200  3
   9867   9865   9869   9901     1  180.0000771  0.0000000  2
   9868   9865   9869   9870     1  0.0000000  3.3472000  1
   9868   9865   9869   9870     1  0.0000000  0.0000000  2
   9868   9865   9869   9870     1  180.0000771  0.3347200  3
   9868   9865   9869   9901     1  180.0000771  0.0000000  2
   9869   9901   9882   9884     1  0.0000000  1.2552000  3
   9870   9869   9901   9891     1  180.0000771  6.0668000  2
   9870   9869   9901   9891     1  180.0000771  1.4644000  4
   9871   9862   9873   9876     1  0.0000000  0.6508444  3
   9871   9862   9873   9874     1  0.0000000  0.6508444  3
   9871   9862   9873   9875     1  0.0000000  0.6508444  3
   9871   9862   9861   9926     1  0.0000000  0.6508444  3
   9872   9862   9873   9876     1  0.0000000  0.6508444  3
   9872   9862   9873   9874     1  0.0000000  0.6508444  3
   9872   9862   9873   9875     1  0.0000000  0.6508444  3
   9872   9862   9861   9926     1  0.0000000  0.6508444  3
   9873   9876   9925   9915     1  180.0000771  6.0668000  2
   9873   9876   9925   9915     1  180.0000771  1.4644000  4
   9873   9862   9861   9926     1  0.0000000  0.6508444  3
   9874   9873   9876   9877     1  0.0000000  3.3472000  1
   9874   9873   9876   9877     1  0.0000000  0.0000000  2
   9874   9873   9876   9877     1  180.0000771  0.3347200  3
   9874   9873   9876   9925     1  180.0000771  0.0000000  2
   9875   9873   9876   9877     1  0.0000000  3.3472000  1
   9875   9873   9876   9877     1  0.0000000  0.0000000  2
   9875   9873   9876   9877     1  180.0000771  0.3347200  3
   9875   9873   9876   9925     1  180.0000771  0.0000000  2
   9876   9925   9906   9908     1  0.0000000  1.2552000  3
   9877   9876   9925   9915     1  180.0000771  6.0668000  2
   9877   9876   9925   9915     1  180.0000771  1.4644000  4
   9878   9879   9881   9885     1  0.0000000  0.6508444  3
   9878   9879   9899   9900     1  0.0000000  1.0460000  1
   9878   9879   9899   9900     1  0.0000000  0.6694400  3
   9878   9889   9894   9895     1  0.0000000  1.0460000  1
   9878   9889   9894   9895     1  0.0000000  0.6694400  3
   9878   9896   9883   9886     1  0.0000000  1.6038667  3
   9879   9881   9882   9884     1  0.0000000  0.6508444  3
   9879   9881   9888   9890     1  0.0000000  1.0460000  1
   9879   9881   9888   9890     1  0.0000000  0.6694400  3
   9879   9878   9889   9892     1  0.0000000  0.6508444  3
   9879   9878   9889   9893     1  0.0000000  0.6508444  3
   9880   9878   9879   9881     1  0.0000000  0.6508444  3
   9880   9878   9879   9899     1  0.0000000  1.0460000  1
   9880   9878   9879   9899     1  0.0000000  0.0000000  3
   9880   9878   9879   9898     1  0.0000000  0.6508444  3
   9880   9878   9889   9894     1  0.0000000  1.0460000  1
   9880   9878   9889   9894     1  0.0000000  0.0000000  3
   9880   9878   9889   9892     1  0.0000000  0.6508444  3
   9880   9878   9889   9893     1  0.0000000  0.6508444  3
   9880   9878   9896   9883     1  0.0000000  1.6038667  3
   9881   9882   9883   9886     1  0.0000000  0.6508444  3
   9881   9882   9901   9891     1  0.0000000  1.2552000  3
   9881   9879   9899   9900     1  0.0000000  1.0460000  1
   9881   9879   9899   9900     1  0.0000000  0.6694400  3
   9882   9883   9887   9897     1  0.0000000  1.0460000  1
   9882   9883   9887   9897     1  0.0000000  0.6694400  3
   9882   9881   9888   9890     1  0.0000000  1.0460000  1
   9882   9881   9888   9890     1  0.0000000  0.6694400  3
   9882   9881   9879   9898     1  0.0000000  0.6508444  3
   9883   9882   9901   9891     1  0.0000000  1.2552000  3
   9883   9882   9881   9885     1  0.0000000  0.6508444  3
   9884   9882   9883   9887     1  0.0000000  1.0460000  1
   9884   9882   9883   9887     1  0.0000000  0.0000000  3
   9884   9882   9883   9896     1  0.0000000  1.0460000  1
   9884   9882   9883   9896     1  0.0000000  0.0000000  3
   9884   9882   9883   9886     1  0.0000000  0.6508444  3
   9884   9882   9901   9891     1  0.0000000  1.2552000  3
   9884   9882   9881   9888     1  0.0000000  1.0460000  1
   9884   9882   9881   9888     1  0.0000000  0.0000000  3
   9884   9882   9881   9885     1  0.0000000  0.6508444  3
   9885   9881   9882   9901     1  0.0000000  0.6508444  3
   9885   9881   9888   9890     1  0.0000000  0.6973333  3
   9885   9881   9879   9899     1  0.0000000  1.0460000  1
   9885   9881   9879   9899     1  0.0000000  0.0000000  3
   9885   9881   9879   9898     1  0.0000000  0.6508444  3
   9886   9883   9887   9897     1  0.0000000  0.6973333  3
   9886   9883   9882   9901     1  0.0000000  0.6508444  3
   9888   9881   9879   9898     1  0.0000000  1.0460000  1
   9888   9881   9879   9898     1  0.0000000  0.0000000  3
   9889   9878   9879   9898     1  0.0000000  0.6508444  3
   9892   9889   9894   9895     1  0.0000000  0.6973333  3
   9892   9889   9878   9896     1  0.0000000  1.0460000  1
   9892   9889   9878   9896     1  0.0000000  0.0000000  3
   9893   9889   9894   9895     1  0.0000000  0.6973333  3
   9893   9889   9878   9896     1  0.0000000  1.0460000  1
   9893   9889   9878   9896     1  0.0000000  0.0000000  3
   9896   9883   9887   9897     1  0.0000000  0.6973333  3
   9896   9878   9879   9898     1  0.0000000  1.0460000  1
   9896   9878   9879   9898     1  0.0000000  0.0000000  3
   9898   9879   9899   9900     1  0.0000000  0.6973333  3
   9902   9903   9905   9909     1  0.0000000  0.6508444  3
   9902   9903   9923   9924     1  0.0000000  1.0460000  1
   9902   9903   9923   9924     1  0.0000000  0.6694400  3
   9902   9913   9918   9919     1  0.0000000  1.0460000  1
   9902   9913   9918   9919     1  0.0000000  0.6694400  3
   9902   9920   9907   9910     1  0.0000000  1.6038667  3
   9903   9905   9906   9908     1  0.0000000  0.6508444  3
   9903   9905   9912   9914     1  0.0000000  1.0460000  1
   9903   9905   9912   9914     1  0.0000000  0.6694400  3
   9903   9902   9913   9916     1  0.0000000  0.6508444  3
   9903   9902   9913   9917     1  0.0000000  0.6508444  3
   9904   9902   9903   9905     1  0.0000000  0.6508444  3
   9904   9902   9903   9923     1  0.0000000  1.0460000  1
   9904   9902   9903   9923     1  0.0000000  0.0000000  3
   9904   9902   9903   9922     1  0.0000000  0.6508444  3
   9904   9902   9913   9918     1  0.0000000  1.0460000  1
   9904   9902   9913   9918     1  0.0000000  0.0000000  3
   9904   9902   9913   9916     1  0.0000000  0.6508444  3
   9904   9902   9913   9917     1  0.0000000  0.6508444  3
   9904   9902   9920   9907     1  0.0000000  1.6038667  3
   9905   9906   9907   9910     1  0.0000000  0.6508444  3
   9905   9906   9925   9915     1  0.0000000  1.2552000  3
   9905   9903   9923   9924     1  0.0000000  1.0460000  1
   9905   9903   9923   9924     1  0.0000000  0.6694400  3
   9906   9907   9911   9921     1  0.0000000  1.0460000  1
   9906   9907   9911   9921     1  0.0000000  0.6694400  3
   9906   9905   9912   9914     1  0.0000000  1.0460000  1
   9906   9905   9912   9914     1  0.0000000  0.6694400  3
   9906   9905   9903   9922     1  0.0000000  0.6508444  3
   9907   9906   9925   9915     1  0.0000000  1.2552000  3
   9907   9906   9905   9909     1  0.0000000  0.6508444  3
   9908   9906   9907   9911     1  0.0000000  1.0460000  1
   9908   9906   9907   9911     1  0.0000000  0.0000000  3
   9908   9906   9907   9920     1  0.0000000  1.0460000  1
   9908   9906   9907   9920     1  0.0000000  0.0000000  3
   9908   9906   9907   9910     1  0.0000000  0.6508444  3
   9908   9906   9925   9915     1  0.0000000  1.2552000  3
   9908   9906   9905   9912     1  0.0000000  1.0460000  1
   9908   9906   9905   9912     1  0.0000000  0.0000000  3
   9908   9906   9905   9909     1  0.0000000  0.6508444  3
   9909   9905   9906   9925     1  0.0000000  0.6508444  3
   9909   9905   9912   9914     1  0.0000000  0.6973333  3
   9909   9905   9903   9923     1  0.0000000  1.0460000  1
   9909   9905   9903   9923     1  0.0000000  0.0000000  3
   9909   9905   9903   9922     1  0.0000000  0.6508444  3
   9910   9907   9911   9921     1  0.0000000  0.6973333  3
   9910   9907   9906   9925     1  0.0000000  0.6508444  3
   9912   9905   9903   9922     1  0.0000000  1.0460000  1
   9912   9905   9903   9922     1  0.0000000  0.0000000  3
   9913   9902   9903   9922     1  0.0000000  0.6508444  3
   9916   9913   9918   9919     1  0.0000000  0.6973333  3
   9916   9913   9902   9920     1  0.0000000  1.0460000  1
   9916   9913   9902   9920     1  0.0000000  0.0000000  3
   9917   9913   9918   9919     1  0.0000000  0.6973333  3
   9917   9913   9902   9920     1  0.0000000  1.0460000  1
   9917   9913   9902   9920     1  0.0000000  0.0000000  3
   9920   9907   9911   9921     1  0.0000000  0.6973333  3
   9920   9902   9903   9922     1  0.0000000  1.0460000  1
   9920   9902   9903   9922     1  0.0000000  0.0000000  3
   9922   9903   9923   9924     1  0.0000000  0.6973333  3
   9927   9929   9931   9933     1  0.0000000  0.6508444  3
   9927   9929   9931   9934     1  0.0000000  0.6508444  3
   9928   9927   9929   9931     1  0.0000000  0.0000000  2
   9928   9927   9929   9930     1  0.0000000  0.0000000  2
   9928   9927   9929   9932     1  0.0000000  0.0000000  2
   9929   9931   9935  10000     1  0.0000000  0.6508444  3
   9930   9929   9931   9935     1  0.0000000  0.6508444  3
   9930   9929   9931   9933     1  0.0000000  0.6508444  3
   9930   9929   9931   9934     1  0.0000000  0.6508444  3
   9931   9935   9936   9945     1  0.0000000  0.6508444  3
   9931   9935   9936   9946     1  0.0000000  0.6508444  3
   9931   9935   9937   9938     1  0.0000000  0.6508444  3
   9931   9935   9937   9940     1  0.0000000  0.6508444  3
   9932   9929   9931   9935     1  0.0000000  0.6508444  3
   9932   9929   9931   9933     1  0.0000000  0.6508444  3
   9932   9929   9931   9934     1  0.0000000  0.6508444  3
   9933   9931   9935   9936     1  0.0000000  0.6508444  3
   9933   9931   9935   9937     1  0.0000000  0.6508444  3
   9933   9931   9935  10000     1  0.0000000  0.6508444  3
   9934   9931   9935   9936     1  0.0000000  0.6508444  3
   9934   9931   9935   9937     1  0.0000000  0.6508444  3
   9934   9931   9935  10000     1  0.0000000  0.6508444  3
   9935   9936   9947   9948     1  0.0000000  0.6508444  3
   9935   9936   9947   9949     1  0.0000000  0.6508444  3
   9935   9937   9939   9941     1  0.0000000  0.6508444  3
   9935   9937   9939   9942     1  0.0000000  0.6508444  3
   9936   9935   9937   9938     1  0.0000000  0.6508444  3
   9936   9935   9937   9940     1  0.0000000  0.6508444  3
   9937   9935   9936   9945     1  0.0000000  0.6508444  3
   9937   9935   9936   9946     1  0.0000000  0.6508444  3
   9938   9937   9935  10000     1  0.0000000  0.6508444  3
   9938   9937   9939   9943     1  0.0000000  0.6508444  3
   9938   9937   9939   9941     1  0.0000000  0.6508444  3
   9938   9937   9939   9942     1  0.0000000  0.6508444  3
   9939   9937   9935  10000     1  0.0000000  0.6508444  3
   9939   9943   9975   9965     1  180.0000771  6.0668000  2
   9939   9943   9975   9965     1  180.0000771  1.4644000  4
   9940   9937   9935  10000     1  0.0000000  0.6508444  3
   9940   9937   9939   9943     1  0.0000000  0.6508444  3
   9940   9937   9939   9941     1  0.0000000  0.6508444  3
   9940   9937   9939   9942     1  0.0000000  0.6508444  3
   9941   9939   9943   9944     1  0.0000000  3.3472000  1
   9941   9939   9943   9944     1  0.0000000  0.0000000  2
   9941   9939   9943   9944     1  180.0000771  0.3347200  3
   9941   9939   9943   9975     1  180.0000771  0.0000000  2
   9942   9939   9943   9944     1  0.0000000  3.3472000  1
   9942   9939   9943   9944     1  0.0000000  0.0000000  2
   9942   9939   9943   9944     1  180.0000771  0.3347200  3
   9942   9939   9943   9975     1  180.0000771  0.0000000  2
   9943   9975   9956   9958     1  0.0000000  1.2552000  3
   9944   9943   9975   9965     1  180.0000771  6.0668000  2
   9944   9943   9975   9965     1  180.0000771  1.4644000  4
   9945   9936   9935  10000     1  0.0000000  0.6508444  3
   9945   9936   9947   9950     1  0.0000000  0.6508444  3
   9945   9936   9947   9948     1  0.0000000  0.6508444  3
   9945   9936   9947   9949     1  0.0000000  0.6508444  3
   9946   9936   9935  10000     1  0.0000000  0.6508444  3
   9946   9936   9947   9950     1  0.0000000  0.6508444  3
   9946   9936   9947   9948     1  0.0000000  0.6508444  3
   9946   9936   9947   9949     1  0.0000000  0.6508444  3
   9947   9936   9935  10000     1  0.0000000  0.6508444  3
   9947   9950   9999   9989     1  180.0000771  6.0668000  2
   9947   9950   9999   9989     1  180.0000771  1.4644000  4
   9948   9947   9950   9951     1  0.0000000  3.3472000  1
   9948   9947   9950   9951     1  0.0000000  0.0000000  2
   9948   9947   9950   9951     1  180.0000771  0.3347200  3
   9948   9947   9950   9999     1  180.0000771  0.0000000  2
   9949   9947   9950   9951     1  0.0000000  3.3472000  1
   9949   9947   9950   9951     1  0.0000000  0.0000000  2
   9949   9947   9950   9951     1  180.0000771  0.3347200  3
   9949   9947   9950   9999     1  180.0000771  0.0000000  2
   9950   9999   9980   9982     1  0.0000000  1.2552000  3
   9951   9950   9999   9989     1  180.0000771  6.0668000  2
   9951   9950   9999   9989     1  180.0000771  1.4644000  4
   9952   9953   9955   9959     1  0.0000000  0.6508444  3
   9952   9953   9973   9974     1  0.0000000  1.0460000  1
   9952   9953   9973   9974     1  0.0000000  0.6694400  3
   9952   9963   9968   9969     1  0.0000000  1.0460000  1
   9952   9963   9968   9969     1  0.0000000  0.6694400  3
   9952   9970   9957   9960     1  0.0000000  1.6038667  3
   9953   9952   9963   9966     1  0.0000000  0.6508444  3
   9953   9952   9963   9967     1  0.0000000  0.6508444  3
   9953   9955   9956   9958     1  0.0000000  0.6508444  3
   9953   9955   9962   9964     1  0.0000000  1.0460000  1
   9953   9955   9962   9964     1  0.0000000  0.6694400  3
   9954   9952   9953   9955     1  0.0000000  0.6508444  3
   9954   9952   9953   9973     1  0.0000000  1.0460000  1
   9954   9952   9953   9973     1  0.0000000  0.0000000  3
   9954   9952   9953   9972     1  0.0000000  0.6508444  3
   9954   9952   9963   9968     1  0.0000000  1.0460000  1
   9954   9952   9963   9968     1  0.0000000  0.0000000  3
   9954   9952   9963   9966     1  0.0000000  0.6508444  3
   9954   9952   9963   9967     1  0.0000000  0.6508444  3
   9954   9952   9970   9957     1  0.0000000  1.6038667  3
   9955   9953   9973   9974     1  0.0000000  1.0460000  1
   9955   9953   9973   9974     1  0.0000000  0.6694400  3
   9955   9956   9957   9960     1  0.0000000  0.6508444  3
   9955   9956   9975   9965     1  0.0000000  1.2552000  3
   9956   9955   9953   9972     1  0.0000000  0.6508444  3
   9956   9955   9962   9964     1  0.0000000  1.0460000  1
   9956   9955   9962   9964     1  0.0000000  0.6694400  3
   9956   9957   9961   9971     1  0.0000000  1.0460000  1
   9956   9957   9961   9971     1  0.0000000  0.6694400  3
   9957   9956   9955   9959     1  0.0000000  0.6508444  3
   9957   9956   9975   9965     1  0.0000000  1.2552000  3
   9958   9956   9955   9962     1  0.0000000  1.0460000  1
   9958   9956   9955   9962     1  0.0000000  0.0000000  3
   9958   9956   9955   9959     1  0.0000000  0.6508444  3
   9958   9956   9957   9961     1  0.0000000  1.0460000  1
   9958   9956   9957   9961     1  0.0000000  0.0000000  3
   9958   9956   9957   9970     1  0.0000000  1.0460000  1
   9958   9956   9957   9970     1  0.0000000  0.0000000  3
   9958   9956   9957   9960     1  0.0000000  0.6508444  3
   9958   9956   9975   9965     1  0.0000000  1.2552000  3
   9959   9955   9953   9973     1  0.0000000  1.0460000  1
   9959   9955   9953   9973     1  0.0000000  0.0000000  3
   9959   9955   9953   9972     1  0.0000000  0.6508444  3
   9959   9955   9956   9975     1  0.0000000  0.6508444  3
   9959   9955   9962   9964     1  0.0000000  0.6973333  3
   9960   9957   9956   9975     1  0.0000000  0.6508444  3
   9960   9957   9961   9971     1  0.0000000  0.6973333  3
   9962   9955   9953   9972     1  0.0000000  1.0460000  1
   9962   9955   9953   9972     1  0.0000000  0.0000000  3
   9963   9952   9953   9972     1  0.0000000  0.6508444  3
   9966   9963   9952   9970     1  0.0000000  1.0460000  1
   9966   9963   9952   9970     1  0.0000000  0.0000000  3
   9966   9963   9968   9969     1  0.0000000  0.6973333  3
   9967   9963   9952   9970     1  0.0000000  1.0460000  1
   9967   9963   9952   9970     1  0.0000000  0.0000000  3
   9967   9963   9968   9969     1  0.0000000  0.6973333  3
   9970   9952   9953   9972     1  0.0000000  1.0460000  1
   9970   9952   9953   9972     1  0.0000000  0.0000000  3
   9970   9957   9961   9971     1  0.0000000  0.6973333  3
   9972   9953   9973   9974     1  0.0000000  0.6973333  3
   9976   9977   9979   9983     1  0.0000000  0.6508444  3
   9976   9977   9997   9998     1  0.0000000  1.0460000  1
   9976   9977   9997   9998     1  0.0000000  0.6694400  3
   9976   9987   9992   9993     1  0.0000000  1.0460000  1
   9976   9987   9992   9993     1  0.0000000  0.6694400  3
   9976   9994   9981   9984     1  0.0000000  1.6038667  3
   9977   9976   9987   9990     1  0.0000000  0.6508444  3
   9977   9976   9987   9991     1  0.0000000  0.6508444  3
   9977   9979   9980   9982     1  0.0000000  0.6508444  3
   9977   9979   9986   9988     1  0.0000000  1.0460000  1
   9977   9979   9986   9988     1  0.0000000  0.6694400  3
   9978   9976   9977   9979     1  0.0000000  0.6508444  3
   9978   9976   9977   9997     1  0.0000000  1.0460000  1
   9978   9976   9977   9997     1  0.0000000  0.0000000  3
   9978   9976   9977   9996     1  0.0000000  0.6508444  3
   9978   9976   9987   9992     1  0.0000000  1.0460000  1
   9978   9976   9987   9992     1  0.0000000  0.0000000  3
   9978   9976   9987   9990     1  0.0000000  0.6508444  3
   9978   9976   9987   9991     1  0.0000000  0.6508444  3
   9978   9976   9994   9981     1  0.0000000  1.6038667  3
   9979   9977   9997   9998     1  0.0000000  1.0460000  1
   9979   9977   9997   9998     1  0.0000000  0.6694400  3
   9979   9980   9981   9984     1  0.0000000  0.6508444  3
   9979   9980   9999   9989     1  0.0000000  1.2552000  3
   9980   9979   9977   9996     1  0.0000000  0.6508444  3
   9980   9979   9986   9988     1  0.0000000  1.0460000  1
   9980   9979   9986   9988     1  0.0000000  0.6694400  3
   9980   9981   9985   9995     1  0.0000000  1.0460000  1
   9980   9981   9985   9995     1  0.0000000  0.6694400  3
   9981   9980   9979   9983     1  0.0000000  0.6508444  3
   9981   9980   9999   9989     1  0.0000000  1.2552000  3
   9982   9980   9979   9986     1  0.0000000  1.0460000  1
   9982   9980   9979   9986     1  0.0000000  0.0000000  3
   9982   9980   9979   9983     1  0.0000000  0.6508444  3
   9982   9980   9981   9985     1  0.0000000  1.0460000  1
   9982   9980   9981   9985     1  0.0000000  0.0000000  3
   9982   9980   9981   9994     1  0.0000000  1.0460000  1
   9982   9980   9981   9994     1  0.0000000  0.0000000  3
   9982   9980   9981   9984     1  0.0000000  0.6508444  3
   9982   9980   9999   9989     1  0.0000000  1.2552000  3
   9983   9979   9977   9997     1  0.0000000  1.0460000  1
   9983   9979   9977   9997     1  0.0000000  0.0000000  3
   9983   9979   9977   9996     1  0.0000000  0.6508444  3
   9983   9979   9980   9999     1  0.0000000  0.6508444  3
   9983   9979   9986   9988     1  0.0000000  0.6973333  3
   9984   9981   9980   9999     1  0.0000000  0.6508444  3
   9984   9981   9985   9995     1  0.0000000  0.6973333  3
   9986   9979   9977   9996     1  0.0000000  1.0460000  1
   9986   9979   9977   9996     1  0.0000000  0.0000000  3
   9987   9976   9977   9996     1  0.0000000  0.6508444  3
   9990   9987   9976   9994     1  0.0000000  1.0460000  1
   9990   9987   9976   9994     1  0.0000000  0.0000000  3
   9990   9987   9992   9993     1  0.0000000  0.6973333  3
   9991   9987   9976   9994     1  0.0000000  1.0460000  1
   9991   9987   9976   9994     1  0.0000000  0.0000000  3
   9991   9987   9992   9993     1  0.0000000  0.6973333  3
   9994   9976   9977   9996     1  0.0000000  1.0460000  1
   9994   9976   9977   9996     1  0.0000000  0.0000000  3
   9994   9981   9985   9995     1  0.0000000  0.6973333  3
   9996   9977   9997   9998     1  0.0000000  0.6973333  3
  10001  10003  10005  10007     1  0.0000000  0.6508444  3
  10001  10003  10005  10008     1  0.0000000  0.6508444  3
  10002  10001  10003  10005     1  0.0000000  0.0000000  2
  10002  10001  10003  10004     1  0.0000000  0.0000000  2
  10002  10001  10003  10006     1  0.0000000  0.0000000  2
  10003  10005  10009  10074     1  0.0000000  0.6508444  3
  10004  10003  10005  10009     1  0.0000000  0.6508444  3
  10004  10003  10005  10007     1  0.0000000  0.6508444  3
  10004  10003  10005  10008     1  0.0000000  0.6508444  3
  10005  10009  10010  10019     1  0.0000000  0.6508444  3
  10005  10009  10010  10020     1  0.0000000  0.6508444  3
  10005  10009  10011  10012     1  0.0000000  0.6508444  3
  10005  10009  10011  10014     1  0.0000000  0.6508444  3
  10006  10003  10005  10009     1  0.0000000  0.6508444  3
  10006  10003  10005  10007     1  0.0000000  0.6508444  3
  10006  10003  10005  10008     1  0.0000000  0.6508444  3
  10007  10005  10009  10010     1  0.0000000  0.6508444  3
  10007  10005  10009  10011     1  0.0000000  0.6508444  3
  10007  10005  10009  10074     1  0.0000000  0.6508444  3
  10008  10005  10009  10010     1  0.0000000  0.6508444  3
  10008  10005  10009  10011     1  0.0000000  0.6508444  3
  10008  10005  10009  10074     1  0.0000000  0.6508444  3
  10009  10010  10021  10022     1  0.0000000  0.6508444  3
  10009  10010  10021  10023     1  0.0000000  0.6508444  3
  10009  10011  10013  10015     1  0.0000000  0.6508444  3
  10009  10011  10013  10016     1  0.0000000  0.6508444  3
  10010  10009  10011  10012     1  0.0000000  0.6508444  3
  10010  10009  10011  10014     1  0.0000000  0.6508444  3
  10011  10009  10010  10019     1  0.0000000  0.6508444  3
  10011  10009  10010  10020     1  0.0000000  0.6508444  3
  10012  10011  10013  10017     1  0.0000000  0.6508444  3
  10012  10011  10013  10015     1  0.0000000  0.6508444  3
  10012  10011  10013  10016     1  0.0000000  0.6508444  3
  10012  10011  10009  10074     1  0.0000000  0.6508444  3
  10013  10017  10049  10039     1  180.0000771  6.0668000  2
  10013  10017  10049  10039     1  180.0000771  1.4644000  4
  10013  10011  10009  10074     1  0.0000000  0.6508444  3
  10014  10011  10013  10017     1  0.0000000  0.6508444  3
  10014  10011  10013  10015     1  0.0000000  0.6508444  3
  10014  10011  10013  10016     1  0.0000000  0.6508444  3
  10014  10011  10009  10074     1  0.0000000  0.6508444  3
  10015  10013  10017  10018     1  0.0000000  3.3472000  1
  10015  10013  10017  10018     1  0.0000000  0.0000000  2
  10015  10013  10017  10018     1  180.0000771  0.3347200  3
  10015  10013  10017  10049     1  180.0000771  0.0000000  2
  10016  10013  10017  10018     1  0.0000000  3.3472000  1
  10016  10013  10017  10018     1  0.0000000  0.0000000  2
  10016  10013  10017  10018     1  180.0000771  0.3347200  3
  10016  10013  10017  10049     1  180.0000771  0.0000000  2
  10017  10049  10030  10032     1  0.0000000  1.2552000  3
  10018  10017  10049  10039     1  180.0000771  6.0668000  2
  10018  10017  10049  10039     1  180.0000771  1.4644000  4
  10019  10010  10021  10024     1  0.0000000  0.6508444  3
  10019  10010  10021  10022     1  0.0000000  0.6508444  3
  10019  10010  10021  10023     1  0.0000000  0.6508444  3
  10019  10010  10009  10074     1  0.0000000  0.6508444  3
  10020  10010  10021  10024     1  0.0000000  0.6508444  3
  10020  10010  10021  10022     1  0.0000000  0.6508444  3
  10020  10010  10021  10023     1  0.0000000  0.6508444  3
  10020  10010  10009  10074     1  0.0000000  0.6508444  3
  10021  10024  10073  10063     1  180.0000771  6.0668000  2
  10021  10024  10073  10063     1  180.0000771  1.4644000  4
  10021  10010  10009  10074     1  0.0000000  0.6508444  3
  10022  10021  10024  10025     1  0.0000000  3.3472000  1
  10022  10021  10024  10025     1  0.0000000  0.0000000  2
  10022  10021  10024  10025     1  180.0000771  0.3347200  3
  10022  10021  10024  10073     1  180.0000771  0.0000000  2
  10023  10021  10024  10025     1  0.0000000  3.3472000  1
  10023  10021  10024  10025     1  0.0000000  0.0000000  2
  10023  10021  10024  10025     1  180.0000771  0.3347200  3
  10023  10021  10024  10073     1  180.0000771  0.0000000  2
  10024  10073  10054  10056     1  0.0000000  1.2552000  3
  10025  10024  10073  10063     1  180.0000771  6.0668000  2
  10025  10024  10073  10063     1  180.0000771  1.4644000  4
  10026  10027  10029  10033     1  0.0000000  0.6508444  3
  10026  10027  10047  10048     1  0.0000000  1.0460000  1
  10026  10027  10047  10048     1  0.0000000  0.6694400  3
  10026  10037  10042  10043     1  0.0000000  1.0460000  1
  10026  10037  10042  10043     1  0.0000000  0.6694400  3
  10026  10044  10031  10034     1  0.0000000  1.6038667  3
  10027  10029  10030  10032     1  0.0000000  0.6508444  3
  10027  10029  10036  10038     1  0.0000000  1.0460000  1
  10027  10029  10036  10038     1  0.0000000  0.6694400  3
  10027  10026  10037  10040     1  0.0000000  0.6508444  3
  10027  10026  10037  10041     1  0.0000000  0.6508444  3
  10028  10026  10027  10029     1  0.0000000  0.6508444  3
  10028  10026  10027  10047     1  0.0000000  1.0460000  1
  10028  10026  10027  10047     1  0.0000000  0.0000000  3
  10028  10026  10027  10046     1  0.0000000  0.6508444  3
  10028  10026  10037  10042     1  0.0000000  1.0460000  1
  10028  10026  10037  10042     1  0.0000000  0.0000000  3
  10028  10026  10037  10040     1  0.0000000  0.6508444  3
  10028  10026  10037  10041     1  0.0000000  0.6508444  3
  10028  10026  10044  10031     1  0.0000000  1.6038667  3
  10029  10030  10031  10034     1  0.0000000  0.6508444  3
  10029  10030  10049  10039     1  0.0000000  1.2552000  3
  10029  10027  10047  10048     1  0.0000000  1.0460000  1
  10029  10027  10047  10048     1  0.0000000  0.6694400  3
  10030  10031  10035  10045     1  0.0000000  1.0460000  1
  10030  10031  10035  10045     1  0.0000000  0.6694400  3
  10030  10029  10036  10038     1  0.0000000  1.0460000  1
  10030  10029  10036  10038     1  0.0000000  0.6694400  3
  10030  10029  10027  10046     1  0.0000000  0.6508444  3
  10031  10030  10049  10039     1  0.0000000  1.2552000  3
  10031  10030  10029  10033     1  0.0000000  0.6508444  3
  10032  10030  10031  10035     1  0.0000000  1.0460000  1
  10032  10030  10031  10035     1  0.0000000  0.0000000  3
  10032  10030  10031  10044     1  0.0000000  1.0460000  1
  10032  10030  10031  10044     1  0.0000000  0.0000000  3
  10032  10030  10031  10034     1  0.0000000  0.6508444  3
  10032  10030  10049  10039     1  0.0000000  1.2552000  3
  10032  10030  10029  10036     1  0.0000000  1.0460000  1
  10032  10030  10029  10036     1  0.0000000  0.0000000  3
  10032  10030  10029  10033     1  0.0000000  0.6508444  3
  10033  10029  10030  10049     1  0.0000000  0.6508444  3
  10033  10029  10036  10038     1  0.0000000  0.6973333  3
  10033  10029  10027  10047     1  0.0000000  1.0460000  1
  10033  10029  10027  10047     1  0.0000000  0.0000000  3
  10033  10029  10027  10046     1  0.0000000  0.6508444  3
  10034  10031  10035  10045     1  0.0000000  0.6973333  3
  10034  10031  10030  10049     1  0.0000000  0.6508444  3
  10036  10029  10027  10046     1  0.0000000  1.0460000  1
  10036  10029  10027  10046     1  0.0000000  0.0000000  3
  10037  10026  10027  10046     1  0.0000000  0.6508444  3
  10040  10037  10042  10043     1  0.0000000  0.6973333  3
  10040  10037  10026  10044     1  0.0000000  1.0460000  1
  10040  10037  10026  10044     1  0.0000000  0.0000000  3
  10041  10037  10042  10043     1  0.0000000  0.6973333  3
  10041  10037  10026  10044     1  0.0000000  1.0460000  1
  10041  10037  10026  10044     1  0.0000000  0.0000000  3
  10044  10031  10035  10045     1  0.0000000  0.6973333  3
  10044  10026  10027  10046     1  0.0000000  1.0460000  1
  10044  10026  10027  10046     1  0.0000000  0.0000000  3
  10046  10027  10047  10048     1  0.0000000  0.6973333  3
  10050  10051  10053  10057     1  0.0000000  0.6508444  3
  10050  10051  10071  10072     1  0.0000000  1.0460000  1
  10050  10051  10071  10072     1  0.0000000  0.6694400  3
  10050  10061  10066  10067     1  0.0000000  1.0460000  1
  10050  10061  10066  10067     1  0.0000000  0.6694400  3
  10050  10068  10055  10058     1  0.0000000  1.6038667  3
  10051  10053  10054  10056     1  0.0000000  0.6508444  3
  10051  10053  10060  10062     1  0.0000000  1.0460000  1
  10051  10053  10060  10062     1  0.0000000  0.6694400  3
  10051  10050  10061  10064     1  0.0000000  0.6508444  3
  10051  10050  10061  10065     1  0.0000000  0.6508444  3
  10052  10050  10051  10053     1  0.0000000  0.6508444  3
  10052  10050  10051  10071     1  0.0000000  1.0460000  1
  10052  10050  10051  10071     1  0.0000000  0.0000000  3
  10052  10050  10051  10070     1  0.0000000  0.6508444  3
  10052  10050  10061  10066     1  0.0000000  1.0460000  1
  10052  10050  10061  10066     1  0.0000000  0.0000000  3
  10052  10050  10061  10064     1  0.0000000  0.6508444  3
  10052  10050  10061  10065     1  0.0000000  0.6508444  3
  10052  10050  10068  10055     1  0.0000000  1.6038667  3
  10053  10054  10055  10058     1  0.0000000  0.6508444  3
  10053  10054  10073  10063     1  0.0000000  1.2552000  3
  10053  10051  10071  10072     1  0.0000000  1.0460000  1
  10053  10051  10071  10072     1  0.0000000  0.6694400  3
  10054  10055  10059  10069     1  0.0000000  1.0460000  1
  10054  10055  10059  10069     1  0.0000000  0.6694400  3
  10054  10053  10060  10062     1  0.0000000  1.0460000  1
  10054  10053  10060  10062     1  0.0000000  0.6694400  3
  10054  10053  10051  10070     1  0.0000000  0.6508444  3
  10055  10054  10073  10063     1  0.0000000  1.2552000  3
  10055  10054  10053  10057     1  0.0000000  0.6508444  3
  10056  10054  10055  10059     1  0.0000000  1.0460000  1
  10056  10054  10055  10059     1  0.0000000  0.0000000  3
  10056  10054  10055  10068     1  0.0000000  1.0460000  1
  10056  10054  10055  10068     1  0.0000000  0.0000000  3
  10056  10054  10055  10058     1  0.0000000  0.6508444  3
  10056  10054  10073  10063     1  0.0000000  1.2552000  3
  10056  10054  10053  10060     1  0.0000000  1.0460000  1
  10056  10054  10053  10060     1  0.0000000  0.0000000  3
  10056  10054  10053  10057     1  0.0000000  0.6508444  3
  10057  10053  10054  10073     1  0.0000000  0.6508444  3
  10057  10053  10060  10062     1  0.0000000  0.6973333  3
  10057  10053  10051  10071     1  0.0000000  1.0460000  1
  10057  10053  10051  10071     1  0.0000000  0.0000000  3
  10057  10053  10051  10070     1  0.0000000  0.6508444  3
  10058  10055  10059  10069     1  0.0000000  0.6973333  3
  10058  10055  10054  10073     1  0.0000000  0.6508444  3
  10060  10053  10051  10070     1  0.0000000  1.0460000  1
  10060  10053  10051  10070     1  0.0000000  0.0000000  3
  10061  10050  10051  10070     1  0.0000000  0.6508444  3
  10064  10061  10066  10067     1  0.0000000  0.6973333  3
  10064  10061  10050  10068     1  0.0000000  1.0460000  1
  10064  10061  10050  10068     1  0.0000000  0.0000000  3
  10065  10061  10066  10067     1  0.0000000  0.6973333  3
  10065  10061  10050  10068     1  0.0000000  1.0460000  1
  10065  10061  10050  10068     1  0.0000000  0.0000000  3
  10068  10055  10059  10069     1  0.0000000  0.6973333  3
  10068  10050  10051  10070     1  0.0000000  1.0460000  1
  10068  10050  10051  10070     1  0.0000000  0.0000000  3
  10070  10051  10071  10072     1  0.0000000  0.6973333  3
  10075  10077  10079  10081     1  0.0000000  0.6508444  3
  10075  10077  10079  10082     1  0.0000000  0.6508444  3
  10076  10075  10077  10079     1  0.0000000  0.0000000  2
  10076  10075  10077  10078     1  0.0000000  0.0000000  2
  10076  10075  10077  10080     1  0.0000000  0.0000000  2
  10077  10079  10083  10148     1  0.0000000  0.6508444  3
  10078  10077  10079  10083     1  0.0000000  0.6508444  3
  10078  10077  10079  10081     1  0.0000000  0.6508444  3
  10078  10077  10079  10082     1  0.0000000  0.6508444  3
  10079  10083  10084  10093     1  0.0000000  0.6508444  3
  10079  10083  10084  10094     1  0.0000000  0.6508444  3
  10079  10083  10085  10086     1  0.0000000  0.6508444  3
  10079  10083  10085  10088     1  0.0000000  0.6508444  3
  10080  10077  10079  10083     1  0.0000000  0.6508444  3
  10080  10077  10079  10081     1  0.0000000  0.6508444  3
  10080  10077  10079  10082     1  0.0000000  0.6508444  3
  10081  10079  10083  10084     1  0.0000000  0.6508444  3
  10081  10079  10083  10085     1  0.0000000  0.6508444  3
  10081  10079  10083  10148     1  0.0000000  0.6508444  3
  10082  10079  10083  10084     1  0.0000000  0.6508444  3
  10082  10079  10083  10085     1  0.0000000  0.6508444  3
  10082  10079  10083  10148     1  0.0000000  0.6508444  3
  10083  10084  10095  10096     1  0.0000000  0.6508444  3
  10083  10084  10095  10097     1  0.0000000  0.6508444  3
  10083  10085  10087  10089     1  0.0000000  0.6508444  3
  10083  10085  10087  10090     1  0.0000000  0.6508444  3
  10084  10083  10085  10086     1  0.0000000  0.6508444  3
  10084  10083  10085  10088     1  0.0000000  0.6508444  3
  10085  10083  10084  10093     1  0.0000000  0.6508444  3
  10085  10083  10084  10094     1  0.0000000  0.6508444  3
  10086  10085  10083  10148     1  0.0000000  0.6508444  3
  10086  10085  10087  10091     1  0.0000000  0.6508444  3
  10086  10085  10087  10089     1  0.0000000  0.6508444  3
  10086  10085  10087  10090     1  0.0000000  0.6508444  3
  10087  10085  10083  10148     1  0.0000000  0.6508444  3
  10087  10091  10123  10113     1  180.0000771  6.0668000  2
  10087  10091  10123  10113     1  180.0000771  1.4644000  4
  10088  10085  10083  10148     1  0.0000000  0.6508444  3
  10088  10085  10087  10091     1  0.0000000  0.6508444  3
  10088  10085  10087  10089     1  0.0000000  0.6508444  3
  10088  10085  10087  10090     1  0.0000000  0.6508444  3
  10089  10087  10091  10092     1  0.0000000  3.3472000  1
  10089  10087  10091  10092     1  0.0000000  0.0000000  2
  10089  10087  10091  10092     1  180.0000771  0.3347200  3
  10089  10087  10091  10123     1  180.0000771  0.0000000  2
  10090  10087  10091  10092     1  0.0000000  3.3472000  1
  10090  10087  10091  10092     1  0.0000000  0.0000000  2
  10090  10087  10091  10092     1  180.0000771  0.3347200  3
  10090  10087  10091  10123     1  180.0000771  0.0000000  2
  10091  10123  10104  10106     1  0.0000000  1.2552000  3
  10092  10091  10123  10113     1  180.0000771  6.0668000  2
  10092  10091  10123  10113     1  180.0000771  1.4644000  4
  10093  10084  10083  10148     1  0.0000000  0.6508444  3
  10093  10084  10095  10098     1  0.0000000  0.6508444  3
  10093  10084  10095  10096     1  0.0000000  0.6508444  3
  10093  10084  10095  10097     1  0.0000000  0.6508444  3
  10094  10084  10083  10148     1  0.0000000  0.6508444  3
  10094  10084  10095  10098     1  0.0000000  0.6508444  3
  10094  10084  10095  10096     1  0.0000000  0.6508444  3
  10094  10084  10095  10097     1  0.0000000  0.6508444  3
  10095  10084  10083  10148     1  0.0000000  0.6508444  3
  10095  10098  10147  10137     1  180.0000771  6.0668000  2
  10095  10098  10147  10137     1  180.0000771  1.4644000  4
  10096  10095  10098  10099     1  0.0000000  3.3472000  1
  10096  10095  10098  10099     1  0.0000000  0.0000000  2
  10096  10095  10098  10099     1  180.0000771  0.3347200  3
  10096  10095  10098  10147     1  180.0000771  0.0000000  2
  10097  10095  10098  10099     1  0.0000000  3.3472000  1
  10097  10095  10098  10099     1  0.0000000  0.0000000  2
  10097  10095  10098  10099     1  180.0000771  0.3347200  3
  10097  10095  10098  10147     1  180.0000771  0.0000000  2
  10098  10147  10128  10130     1  0.0000000  1.2552000  3
  10099  10098  10147  10137     1  180.0000771  6.0668000  2
  10099  10098  10147  10137     1  180.0000771  1.4644000  4
  10100  10101  10103  10107     1  0.0000000  0.6508444  3
  10100  10101  10121  10122     1  0.0000000  1.0460000  1
  10100  10101  10121  10122     1  0.0000000  0.6694400  3
  10100  10111  10116  10117     1  0.0000000  1.0460000  1
  10100  10111  10116  10117     1  0.0000000  0.6694400  3
  10100  10118  10105  10108     1  0.0000000  1.6038667  3
  10101  10100  10111  10114     1  0.0000000  0.6508444  3
  10101  10100  10111  10115     1  0.0000000  0.6508444  3
  10101  10103  10104  10106     1  0.0000000  0.6508444  3
  10101  10103  10110  10112     1  0.0000000  1.0460000  1
  10101  10103  10110  10112     1  0.0000000  0.6694400  3
  10102  10100  10101  10103     1  0.0000000  0.6508444  3
  10102  10100  10101  10121     1  0.0000000  1.0460000  1
  10102  10100  10101  10121     1  0.0000000  0.0000000  3
  10102  10100  10101  10120     1  0.0000000  0.6508444  3
  10102  10100  10111  10116     1  0.0000000  1.0460000  1
  10102  10100  10111  10116     1  0.0000000  0.0000000  3
  10102  10100  10111  10114     1  0.0000000  0.6508444  3
  10102  10100  10111  10115     1  0.0000000  0.6508444  3
  10102  10100  10118  10105     1  0.0000000  1.6038667  3
  10103  10101  10121  10122     1  0.0000000  1.0460000  1
  10103  10101  10121  10122     1  0.0000000  0.6694400  3
  10103  10104  10105  10108     1  0.0000000  0.6508444  3
  10103  10104  10123  10113     1  0.0000000  1.2552000  3
  10104  10103  10101  10120     1  0.0000000  0.6508444  3
  10104  10103  10110  10112     1  0.0000000  1.0460000  1
  10104  10103  10110  10112     1  0.0000000  0.6694400  3
  10104  10105  10109  10119     1  0.0000000  1.0460000  1
  10104  10105  10109  10119     1  0.0000000  0.6694400  3
  10105  10104  10103  10107     1  0.0000000  0.6508444  3
  10105  10104  10123  10113     1  0.0000000  1.2552000  3
  10106  10104  10103  10110     1  0.0000000  1.0460000  1
  10106  10104  10103  10110     1  0.0000000  0.0000000  3
  10106  10104  10103  10107     1  0.0000000  0.6508444  3
  10106  10104  10105  10109     1  0.0000000  1.0460000  1
  10106  10104  10105  10109     1  0.0000000  0.0000000  3
  10106  10104  10105  10118     1  0.0000000  1.0460000  1
  10106  10104  10105  10118     1  0.0000000  0.0000000  3
  10106  10104  10105  10108     1  0.0000000  0.6508444  3
  10106  10104  10123  10113     1  0.0000000  1.2552000  3
  10107  10103  10101  10121     1  0.0000000  1.0460000  1
  10107  10103  10101  10121     1  0.0000000  0.0000000  3
  10107  10103  10101  10120     1  0.0000000  0.6508444  3
  10107  10103  10104  10123     1  0.0000000  0.6508444  3
  10107  10103  10110  10112     1  0.0000000  0.6973333  3
  10108  10105  10104  10123     1  0.0000000  0.6508444  3
  10108  10105  10109  10119     1  0.0000000  0.6973333  3
  10110  10103  10101  10120     1  0.0000000  1.0460000  1
  10110  10103  10101  10120     1  0.0000000  0.0000000  3
  10111  10100  10101  10120     1  0.0000000  0.6508444  3
  10114  10111  10100  10118     1  0.0000000  1.0460000  1
  10114  10111  10100  10118     1  0.0000000  0.0000000  3
  10114  10111  10116  10117     1  0.0000000  0.6973333  3
  10115  10111  10100  10118     1  0.0000000  1.0460000  1
  10115  10111  10100  10118     1  0.0000000  0.0000000  3
  10115  10111  10116  10117     1  0.0000000  0.6973333  3
  10118  10100  10101  10120     1  0.0000000  1.0460000  1
  10118  10100  10101  10120     1  0.0000000  0.0000000  3
  10118  10105  10109  10119     1  0.0000000  0.6973333  3
  10120  10101  10121  10122     1  0.0000000  0.6973333  3
  10124  10125  10127  10131     1  0.0000000  0.6508444  3
  10124  10125  10145  10146     1  0.0000000  1.0460000  1
  10124  10125  10145  10146     1  0.0000000  0.6694400  3
  10124  10135  10140  10141     1  0.0000000  1.0460000  1
  10124  10135  10140  10141     1  0.0000000  0.6694400  3
  10124  10142  10129  10132     1  0.0000000  1.6038667  3
  10125  10124  10135  10138     1  0.0000000  0.6508444  3
  10125  10124  10135  10139     1  0.0000000  0.6508444  3
  10125  10127  10128  10130     1  0.0000000  0.6508444  3
  10125  10127  10134  10136     1  0.0000000  1.0460000  1
  10125  10127  10134  10136     1  0.0000000  0.6694400  3
  10126  10124  10125  10127     1  0.0000000  0.6508444  3
  10126  10124  10125  10145     1  0.0000000  1.0460000  1
  10126  10124  10125  10145     1  0.0000000  0.0000000  3
  10126  10124  10125  10144     1  0.0000000  0.6508444  3
  10126  10124  10135  10140     1  0.0000000  1.0460000  1
  10126  10124  10135  10140     1  0.0000000  0.0000000  3
  10126  10124  10135  10138     1  0.0000000  0.6508444  3
  10126  10124  10135  10139     1  0.0000000  0.6508444  3
  10126  10124  10142  10129     1  0.0000000  1.6038667  3
  10127  10125  10145  10146     1  0.0000000  1.0460000  1
  10127  10125  10145  10146     1  0.0000000  0.6694400  3
  10127  10128  10129  10132     1  0.0000000  0.6508444  3
  10127  10128  10147  10137     1  0.0000000  1.2552000  3
  10128  10127  10125  10144     1  0.0000000  0.6508444  3
  10128  10127  10134  10136     1  0.0000000  1.0460000  1
  10128  10127  10134  10136     1  0.0000000  0.6694400  3
  10128  10129  10133  10143     1  0.0000000  1.0460000  1
  10128  10129  10133  10143     1  0.0000000  0.6694400  3
  10129  10128  10127  10131     1  0.0000000  0.6508444  3
  10129  10128  10147  10137     1  0.0000000  1.2552000  3
  10130  10128  10127  10134     1  0.0000000  1.0460000  1
  10130  10128  10127  10134     1  0.0000000  0.0000000  3
  10130  10128  10127  10131     1  0.0000000  0.6508444  3
  10130  10128  10129  10133     1  0.0000000  1.0460000  1
  10130  10128  10129  10133     1  0.0000000  0.0000000  3
  10130  10128  10129  10142     1  0.0000000  1.0460000  1
  10130  10128  10129  10142     1  0.0000000  0.0000000  3
  10130  10128  10129  10132     1  0.0000000  0.6508444  3
  10130  10128  10147  10137     1  0.0000000  1.2552000  3
  10131  10127  10125  10145     1  0.0000000  1.0460000  1
  10131  10127  10125  10145     1  0.0000000  0.0000000  3
  10131  10127  10125  10144     1  0.0000000  0.6508444  3
  10131  10127  10128  10147     1  0.0000000  0.6508444  3
  10131  10127  10134  10136     1  0.0000000  0.6973333  3
  10132  10129  10128  10147     1  0.0000000  0.6508444  3
  10132  10129  10133  10143     1  0.0000000  0.6973333  3
  10134  10127  10125  10144     1  0.0000000  1.0460000  1
  10134  10127  10125  10144     1  0.0000000  0.0000000  3
  10135  10124  10125  10144     1  0.0000000  0.6508444  3
  10138  10135  10124  10142     1  0.0000000  1.0460000  1
  10138  10135  10124  10142     1  0.0000000  0.0000000  3
  10138  10135  10140  10141     1  0.0000000  0.6973333  3
  10139  10135  10124  10142     1  0.0000000  1.0460000  1
  10139  10135  10124  10142     1  0.0000000  0.0000000  3
  10139  10135  10140  10141     1  0.0000000  0.6973333  3
  10142  10124  10125  10144     1  0.0000000  1.0460000  1
  10142  10124  10125  10144     1  0.0000000  0.0000000  3
  10142  10129  10133  10143     1  0.0000000  0.6973333  3
  10144  10125  10145  10146     1  0.0000000  0.6973333  3
  10149  10151  10153  10155     1  0.0000000  0.6508444  3
  10149  10151  10153  10156     1  0.0000000  0.6508444  3
  10150  10149  10151  10153     1  0.0000000  0.0000000  2
  10150  10149  10151  10152     1  0.0000000  0.0000000  2
  10150  10149  10151  10154     1  0.0000000  0.0000000  2
  10151  10153  10157  10222     1  0.0000000  0.6508444  3
  10152  10151  10153  10157     1  0.0000000  0.6508444  3
  10152  10151  10153  10155     1  0.0000000  0.6508444  3
  10152  10151  10153  10156     1  0.0000000  0.6508444  3
  10153  10157  10158  10167     1  0.0000000  0.6508444  3
  10153  10157  10158  10168     1  0.0000000  0.6508444  3
  10153  10157  10159  10160     1  0.0000000  0.6508444  3
  10153  10157  10159  10162     1  0.0000000  0.6508444  3
  10154  10151  10153  10157     1  0.0000000  0.6508444  3
  10154  10151  10153  10155     1  0.0000000  0.6508444  3
  10154  10151  10153  10156     1  0.0000000  0.6508444  3
  10155  10153  10157  10158     1  0.0000000  0.6508444  3
  10155  10153  10157  10159     1  0.0000000  0.6508444  3
  10155  10153  10157  10222     1  0.0000000  0.6508444  3
  10156  10153  10157  10158     1  0.0000000  0.6508444  3
  10156  10153  10157  10159     1  0.0000000  0.6508444  3
  10156  10153  10157  10222     1  0.0000000  0.6508444  3
  10157  10158  10169  10170     1  0.0000000  0.6508444  3
  10157  10158  10169  10171     1  0.0000000  0.6508444  3
  10157  10159  10161  10163     1  0.0000000  0.6508444  3
  10157  10159  10161  10164     1  0.0000000  0.6508444  3
  10158  10157  10159  10160     1  0.0000000  0.6508444  3
  10158  10157  10159  10162     1  0.0000000  0.6508444  3
  10159  10157  10158  10167     1  0.0000000  0.6508444  3
  10159  10157  10158  10168     1  0.0000000  0.6508444  3
  10160  10159  10161  10165     1  0.0000000  0.6508444  3
  10160  10159  10161  10163     1  0.0000000  0.6508444  3
  10160  10159  10161  10164     1  0.0000000  0.6508444  3
  10160  10159  10157  10222     1  0.0000000  0.6508444  3
  10161  10165  10197  10187     1  180.0000771  6.0668000  2
  10161  10165  10197  10187     1  180.0000771  1.4644000  4
  10161  10159  10157  10222     1  0.0000000  0.6508444  3
  10162  10159  10161  10165     1  0.0000000  0.6508444  3
  10162  10159  10161  10163     1  0.0000000  0.6508444  3
  10162  10159  10161  10164     1  0.0000000  0.6508444  3
  10162  10159  10157  10222     1  0.0000000  0.6508444  3
  10163  10161  10165  10166     1  0.0000000  3.3472000  1
  10163  10161  10165  10166     1  0.0000000  0.0000000  2
  10163  10161  10165  10166     1  180.0000771  0.3347200  3
  10163  10161  10165  10197     1  180.0000771  0.0000000  2
  10164  10161  10165  10166     1  0.0000000  3.3472000  1
  10164  10161  10165  10166     1  0.0000000  0.0000000  2
  10164  10161  10165  10166     1  180.0000771  0.3347200  3
  10164  10161  10165  10197     1  180.0000771  0.0000000  2
  10165  10197  10178  10180     1  0.0000000  1.2552000  3
  10166  10165  10197  10187     1  180.0000771  6.0668000  2
  10166  10165  10197  10187     1  180.0000771  1.4644000  4
  10167  10158  10169  10172     1  0.0000000  0.6508444  3
  10167  10158  10169  10170     1  0.0000000  0.6508444  3
  10167  10158  10169  10171     1  0.0000000  0.6508444  3
  10167  10158  10157  10222     1  0.0000000  0.6508444  3
  10168  10158  10169  10172     1  0.0000000  0.6508444  3
  10168  10158  10169  10170     1  0.0000000  0.6508444  3
  10168  10158  10169  10171     1  0.0000000  0.6508444  3
  10168  10158  10157  10222     1  0.0000000  0.6508444  3
  10169  10172  10221  10211     1  180.0000771  6.0668000  2
  10169  10172  10221  10211     1  180.0000771  1.4644000  4
  10169  10158  10157  10222     1  0.0000000  0.6508444  3
  10170  10169  10172  10173     1  0.0000000  3.3472000  1
  10170  10169  10172  10173     1  0.0000000  0.0000000  2
  10170  10169  10172  10173     1  180.0000771  0.3347200  3
  10170  10169  10172  10221     1  180.0000771  0.0000000  2
  10171  10169  10172  10173     1  0.0000000  3.3472000  1
  10171  10169  10172  10173     1  0.0000000  0.0000000  2
  10171  10169  10172  10173     1  180.0000771  0.3347200  3
  10171  10169  10172  10221     1  180.0000771  0.0000000  2
  10172  10221  10202  10204     1  0.0000000  1.2552000  3
  10173  10172  10221  10211     1  180.0000771  6.0668000  2
  10173  10172  10221  10211     1  180.0000771  1.4644000  4
  10174  10175  10177  10181     1  0.0000000  0.6508444  3
  10174  10175  10195  10196     1  0.0000000  1.0460000  1
  10174  10175  10195  10196     1  0.0000000  0.6694400  3
  10174  10185  10190  10191     1  0.0000000  1.0460000  1
  10174  10185  10190  10191     1  0.0000000  0.6694400  3
  10174  10192  10179  10182     1  0.0000000  1.6038667  3
  10175  10177  10178  10180     1  0.0000000  0.6508444  3
  10175  10177  10184  10186     1  0.0000000  1.0460000  1
  10175  10177  10184  10186     1  0.0000000  0.6694400  3
  10175  10174  10185  10188     1  0.0000000  0.6508444  3
  10175  10174  10185  10189     1  0.0000000  0.6508444  3
  10176  10174  10175  10177     1  0.0000000  0.6508444  3
  10176  10174  10175  10195     1  0.0000000  1.0460000  1
  10176  10174  10175  10195     1  0.0000000  0.0000000  3
  10176  10174  10175  10194     1  0.0000000  0.6508444  3
  10176  10174  10185  10190     1  0.0000000  1.0460000  1
  10176  10174  10185  10190     1  0.0000000  0.0000000  3
  10176  10174  10185  10188     1  0.0000000  0.6508444  3
  10176  10174  10185  10189     1  0.0000000  0.6508444  3
  10176  10174  10192  10179     1  0.0000000  1.6038667  3
  10177  10178  10179  10182     1  0.0000000  0.6508444  3
  10177  10178  10197  10187     1  0.0000000  1.2552000  3
  10177  10175  10195  10196     1  0.0000000  1.0460000  1
  10177  10175  10195  10196     1  0.0000000  0.6694400  3
  10178  10179  10183  10193     1  0.0000000  1.0460000  1
  10178  10179  10183  10193     1  0.0000000  0.6694400  3
  10178  10177  10184  10186     1  0.0000000  1.0460000  1
  10178  10177  10184  10186     1  0.0000000  0.6694400  3
  10178  10177  10175  10194     1  0.0000000  0.6508444  3
  10179  10178  10197  10187     1  0.0000000  1.2552000  3
  10179  10178  10177  10181     1  0.0000000  0.6508444  3
  10180  10178  10179  10183     1  0.0000000  1.0460000  1
  10180  10178  10179  10183     1  0.0000000  0.0000000  3
  10180  10178  10179  10192     1  0.0000000  1.0460000  1
  10180  10178  10179  10192     1  0.0000000  0.0000000  3
  10180  10178  10179  10182     1  0.0000000  0.6508444  3
  10180  10178  10197  10187     1  0.0000000  1.2552000  3
  10180  10178  10177  10184     1  0.0000000  1.0460000  1
  10180  10178  10177  10184     1  0.0000000  0.0000000  3
  10180  10178  10177  10181     1  0.0000000  0.6508444  3
  10181  10177  10178  10197     1  0.0000000  0.6508444  3
  10181  10177  10184  10186     1  0.0000000  0.6973333  3
  10181  10177  10175  10195     1  0.0000000  1.0460000  1
  10181  10177  10175  10195     1  0.0000000  0.0000000  3
  10181  10177  10175  10194     1  0.0000000  0.6508444  3
  10182  10179  10183  10193     1  0.0000000  0.6973333  3
  10182  10179  10178  10197     1  0.0000000  0.6508444  3
  10184  10177  10175  10194     1  0.0000000  1.0460000  1
  10184  10177  10175  10194     1  0.0000000  0.0000000  3
  10185  10174  10175  10194     1  0.0000000  0.6508444  3
  10188  10185  10190  10191     1  0.0000000  0.6973333  3
  10188  10185  10174  10192     1  0.0000000  1.0460000  1
  10188  10185  10174  10192     1  0.0000000  0.0000000  3
  10189  10185  10190  10191     1  0.0000000  0.6973333  3
  10189  10185  10174  10192     1  0.0000000  1.0460000  1
  10189  10185  10174  10192     1  0.0000000  0.0000000  3
  10192  10179  10183  10193     1  0.0000000  0.6973333  3
  10192  10174  10175  10194     1  0.0000000  1.0460000  1
  10192  10174  10175  10194     1  0.0000000  0.0000000  3
  10194  10175  10195  10196     1  0.0000000  0.6973333  3
  10198  10199  10201  10205     1  0.0000000  0.6508444  3
  10198  10199  10219  10220     1  0.0000000  1.0460000  1
  10198  10199  10219  10220     1  0.0000000  0.6694400  3
  10198  10209  10214  10215     1  0.0000000  1.0460000  1
  10198  10209  10214  10215     1  0.0000000  0.6694400  3
  10198  10216  10203  10206     1  0.0000000  1.6038667  3
  10199  10201  10202  10204     1  0.0000000  0.6508444  3
  10199  10201  10208  10210     1  0.0000000  1.0460000  1
  10199  10201  10208  10210     1  0.0000000  0.6694400  3
  10199  10198  10209  10212     1  0.0000000  0.6508444  3
  10199  10198  10209  10213     1  0.0000000  0.6508444  3
  10200  10198  10199  10201     1  0.0000000  0.6508444  3
  10200  10198  10199  10219     1  0.0000000  1.0460000  1
  10200  10198  10199  10219     1  0.0000000  0.0000000  3
  10200  10198  10199  10218     1  0.0000000  0.6508444  3
  10200  10198  10209  10214     1  0.0000000  1.0460000  1
  10200  10198  10209  10214     1  0.0000000  0.0000000  3
  10200  10198  10209  10212     1  0.0000000  0.6508444  3
  10200  10198  10209  10213     1  0.0000000  0.6508444  3
  10200  10198  10216  10203     1  0.0000000  1.6038667  3
  10201  10202  10203  10206     1  0.0000000  0.6508444  3
  10201  10202  10221  10211     1  0.0000000  1.2552000  3
  10201  10199  10219  10220     1  0.0000000  1.0460000  1
  10201  10199  10219  10220     1  0.0000000  0.6694400  3
  10202  10203  10207  10217     1  0.0000000  1.0460000  1
  10202  10203  10207  10217     1  0.0000000  0.6694400  3
  10202  10201  10208  10210     1  0.0000000  1.0460000  1
  10202  10201  10208  10210     1  0.0000000  0.6694400  3
  10202  10201  10199  10218     1  0.0000000  0.6508444  3
  10203  10202  10221  10211     1  0.0000000  1.2552000  3
  10203  10202  10201  10205     1  0.0000000  0.6508444  3
  10204  10202  10203  10207     1  0.0000000  1.0460000  1
  10204  10202  10203  10207     1  0.0000000  0.0000000  3
  10204  10202  10203  10216     1  0.0000000  1.0460000  1
  10204  10202  10203  10216     1  0.0000000  0.0000000  3
  10204  10202  10203  10206     1  0.0000000  0.6508444  3
  10204  10202  10221  10211     1  0.0000000  1.2552000  3
  10204  10202  10201  10208     1  0.0000000  1.0460000  1
  10204  10202  10201  10208     1  0.0000000  0.0000000  3
  10204  10202  10201  10205     1  0.0000000  0.6508444  3
  10205  10201  10202  10221     1  0.0000000  0.6508444  3
  10205  10201  10208  10210     1  0.0000000  0.6973333  3
  10205  10201  10199  10219     1  0.0000000  1.0460000  1
  10205  10201  10199  10219     1  0.0000000  0.0000000  3
  10205  10201  10199  10218     1  0.0000000  0.6508444  3
  10206  10203  10207  10217     1  0.0000000  0.6973333  3
  10206  10203  10202  10221     1  0.0000000  0.6508444  3
  10208  10201  10199  10218     1  0.0000000  1.0460000  1
  10208  10201  10199  10218     1  0.0000000  0.0000000  3
  10209  10198  10199  10218     1  0.0000000  0.6508444  3
  10212  10209  10214  10215     1  0.0000000  0.6973333  3
  10212  10209  10198  10216     1  0.0000000  1.0460000  1
  10212  10209  10198  10216     1  0.0000000  0.0000000  3
  10213  10209  10214  10215     1  0.0000000  0.6973333  3
  10213  10209  10198  10216     1  0.0000000  1.0460000  1
  10213  10209  10198  10216     1  0.0000000  0.0000000  3
  10216  10203  10207  10217     1  0.0000000  0.6973333  3
  10216  10198  10199  10218     1  0.0000000  1.0460000  1
  10216  10198  10199  10218     1  0.0000000  0.0000000  3
  10218  10199  10219  10220     1  0.0000000  0.6973333  3
  10223  10225  10227  10229     1  0.0000000  0.6508444  3
  10223  10225  10227  10230     1  0.0000000  0.6508444  3
  10224  10223  10225  10227     1  0.0000000  0.0000000  2
  10224  10223  10225  10226     1  0.0000000  0.0000000  2
  10224  10223  10225  10228     1  0.0000000  0.0000000  2
  10225  10227  10231  10296     1  0.0000000  0.6508444  3
  10226  10225  10227  10231     1  0.0000000  0.6508444  3
  10226  10225  10227  10229     1  0.0000000  0.6508444  3
  10226  10225  10227  10230     1  0.0000000  0.6508444  3
  10227  10231  10232  10241     1  0.0000000  0.6508444  3
  10227  10231  10232  10242     1  0.0000000  0.6508444  3
  10227  10231  10233  10234     1  0.0000000  0.6508444  3
  10227  10231  10233  10236     1  0.0000000  0.6508444  3
  10228  10225  10227  10231     1  0.0000000  0.6508444  3
  10228  10225  10227  10229     1  0.0000000  0.6508444  3
  10228  10225  10227  10230     1  0.0000000  0.6508444  3
  10229  10227  10231  10232     1  0.0000000  0.6508444  3
  10229  10227  10231  10233     1  0.0000000  0.6508444  3
  10229  10227  10231  10296     1  0.0000000  0.6508444  3
  10230  10227  10231  10232     1  0.0000000  0.6508444  3
  10230  10227  10231  10233     1  0.0000000  0.6508444  3
  10230  10227  10231  10296     1  0.0000000  0.6508444  3
  10231  10232  10243  10244     1  0.0000000  0.6508444  3
  10231  10232  10243  10245     1  0.0000000  0.6508444  3
  10231  10233  10235  10237     1  0.0000000  0.6508444  3
  10231  10233  10235  10238     1  0.0000000  0.6508444  3
  10232  10231  10233  10234     1  0.0000000  0.6508444  3
  10232  10231  10233  10236     1  0.0000000  0.6508444  3
  10233  10231  10232  10241     1  0.0000000  0.6508444  3
  10233  10231  10232  10242     1  0.0000000  0.6508444  3
  10234  10233  10231  10296     1  0.0000000  0.6508444  3
  10234  10233  10235  10239     1  0.0000000  0.6508444  3
  10234  10233  10235  10237     1  0.0000000  0.6508444  3
  10234  10233  10235  10238     1  0.0000000  0.6508444  3
  10235  10233  10231  10296     1  0.0000000  0.6508444  3
  10235  10239  10271  10261     1  180.0000771  6.0668000  2
  10235  10239  10271  10261     1  180.0000771  1.4644000  4
  10236  10233  10231  10296     1  0.0000000  0.6508444  3
  10236  10233  10235  10239     1  0.0000000  0.6508444  3
  10236  10233  10235  10237     1  0.0000000  0.6508444  3
  10236  10233  10235  10238     1  0.0000000  0.6508444  3
  10237  10235  10239  10240     1  0.0000000  3.3472000  1
  10237  10235  10239  10240     1  0.0000000  0.0000000  2
  10237  10235  10239  10240     1  180.0000771  0.3347200  3
  10237  10235  10239  10271     1  180.0000771  0.0000000  2
  10238  10235  10239  10240     1  0.0000000  3.3472000  1
  10238  10235  10239  10240     1  0.0000000  0.0000000  2
  10238  10235  10239  10240     1  180.0000771  0.3347200  3
  10238  10235  10239  10271     1  180.0000771  0.0000000  2
  10239  10271  10252  10254     1  0.0000000  1.2552000  3
  10240  10239  10271  10261     1  180.0000771  6.0668000  2
  10240  10239  10271  10261     1  180.0000771  1.4644000  4
  10241  10232  10231  10296     1  0.0000000  0.6508444  3
  10241  10232  10243  10246     1  0.0000000  0.6508444  3
  10241  10232  10243  10244     1  0.0000000  0.6508444  3
  10241  10232  10243  10245     1  0.0000000  0.6508444  3
  10242  10232  10231  10296     1  0.0000000  0.6508444  3
  10242  10232  10243  10246     1  0.0000000  0.6508444  3
  10242  10232  10243  10244     1  0.0000000  0.6508444  3
  10242  10232  10243  10245     1  0.0000000  0.6508444  3
  10243  10232  10231  10296     1  0.0000000  0.6508444  3
  10243  10246  10295  10285     1  180.0000771  6.0668000  2
  10243  10246  10295  10285     1  180.0000771  1.4644000  4
  10244  10243  10246  10247     1  0.0000000  3.3472000  1
  10244  10243  10246  10247     1  0.0000000  0.0000000  2
  10244  10243  10246  10247     1  180.0000771  0.3347200  3
  10244  10243  10246  10295     1  180.0000771  0.0000000  2
  10245  10243  10246  10247     1  0.0000000  3.3472000  1
  10245  10243  10246  10247     1  0.0000000  0.0000000  2
  10245  10243  10246  10247     1  180.0000771  0.3347200  3
  10245  10243  10246  10295     1  180.0000771  0.0000000  2
  10246  10295  10276  10278     1  0.0000000  1.2552000  3
  10247  10246  10295  10285     1  180.0000771  6.0668000  2
  10247  10246  10295  10285     1  180.0000771  1.4644000  4
  10248  10249  10251  10255     1  0.0000000  0.6508444  3
  10248  10249  10269  10270     1  0.0000000  1.0460000  1
  10248  10249  10269  10270     1  0.0000000  0.6694400  3
  10248  10259  10264  10265     1  0.0000000  1.0460000  1
  10248  10259  10264  10265     1  0.0000000  0.6694400  3
  10248  10266  10253  10256     1  0.0000000  1.6038667  3
  10249  10248  10259  10262     1  0.0000000  0.6508444  3
  10249  10248  10259  10263     1  0.0000000  0.6508444  3
  10249  10251  10252  10254     1  0.0000000  0.6508444  3
  10249  10251  10258  10260     1  0.0000000  1.0460000  1
  10249  10251  10258  10260     1  0.0000000  0.6694400  3
  10250  10248  10249  10251     1  0.0000000  0.6508444  3
  10250  10248  10249  10269     1  0.0000000  1.0460000  1
  10250  10248  10249  10269     1  0.0000000  0.0000000  3
  10250  10248  10249  10268     1  0.0000000  0.6508444  3
  10250  10248  10259  10264     1  0.0000000  1.0460000  1
  10250  10248  10259  10264     1  0.0000000  0.0000000  3
  10250  10248  10259  10262     1  0.0000000  0.6508444  3
  10250  10248  10259  10263     1  0.0000000  0.6508444  3
  10250  10248  10266  10253     1  0.0000000  1.6038667  3
  10251  10249  10269  10270     1  0.0000000  1.0460000  1
  10251  10249  10269  10270     1  0.0000000  0.6694400  3
  10251  10252  10253  10256     1  0.0000000  0.6508444  3
  10251  10252  10271  10261     1  0.0000000  1.2552000  3
  10252  10251  10249  10268     1  0.0000000  0.6508444  3
  10252  10251  10258  10260     1  0.0000000  1.0460000  1
  10252  10251  10258  10260     1  0.0000000  0.6694400  3
  10252  10253  10257  10267     1  0.0000000  1.0460000  1
  10252  10253  10257  10267     1  0.0000000  0.6694400  3
  10253  10252  10251  10255     1  0.0000000  0.6508444  3
  10253  10252  10271  10261     1  0.0000000  1.2552000  3
  10254  10252  10251  10258     1  0.0000000  1.0460000  1
  10254  10252  10251  10258     1  0.0000000  0.0000000  3
  10254  10252  10251  10255     1  0.0000000  0.6508444  3
  10254  10252  10253  10257     1  0.0000000  1.0460000  1
  10254  10252  10253  10257     1  0.0000000  0.0000000  3
  10254  10252  10253  10266     1  0.0000000  1.0460000  1
  10254  10252  10253  10266     1  0.0000000  0.0000000  3
  10254  10252  10253  10256     1  0.0000000  0.6508444  3
  10254  10252  10271  10261     1  0.0000000  1.2552000  3
  10255  10251  10249  10269     1  0.0000000  1.0460000  1
  10255  10251  10249  10269     1  0.0000000  0.0000000  3
  10255  10251  10249  10268     1  0.0000000  0.6508444  3
  10255  10251  10252  10271     1  0.0000000  0.6508444  3
  10255  10251  10258  10260     1  0.0000000  0.6973333  3
  10256  10253  10252  10271     1  0.0000000  0.6508444  3
  10256  10253  10257  10267     1  0.0000000  0.6973333  3
  10258  10251  10249  10268     1  0.0000000  1.0460000  1
  10258  10251  10249  10268     1  0.0000000  0.0000000  3
  10259  10248  10249  10268     1  0.0000000  0.6508444  3
  10262  10259  10248  10266     1  0.0000000  1.0460000  1
  10262  10259  10248  10266     1  0.0000000  0.0000000  3
  10262  10259  10264  10265     1  0.0000000  0.6973333  3
  10263  10259  10248  10266     1  0.0000000  1.0460000  1
  10263  10259  10248  10266     1  0.0000000  0.0000000  3
  10263  10259  10264  10265     1  0.0000000  0.6973333  3
  10266  10248  10249  10268     1  0.0000000  1.0460000  1
  10266  10248  10249  10268     1  0.0000000  0.0000000  3
  10266  10253  10257  10267     1  0.0000000  0.6973333  3
  10268  10249  10269  10270     1  0.0000000  0.6973333  3
  10272  10273  10275  10279     1  0.0000000  0.6508444  3
  10272  10273  10293  10294     1  0.0000000  1.0460000  1
  10272  10273  10293  10294     1  0.0000000  0.6694400  3
  10272  10283  10288  10289     1  0.0000000  1.0460000  1
  10272  10283  10288  10289     1  0.0000000  0.6694400  3
  10272  10290  10277  10280     1  0.0000000  1.6038667  3
  10273  10272  10283  10286     1  0.0000000  0.6508444  3
  10273  10272  10283  10287     1  0.0000000  0.6508444  3
  10273  10275  10276  10278     1  0.0000000  0.6508444  3
  10273  10275  10282  10284     1  0.0000000  1.0460000  1
  10273  10275  10282  10284     1  0.0000000  0.6694400  3
  10274  10272  10273  10275     1  0.0000000  0.6508444  3
  10274  10272  10273  10293     1  0.0000000  1.0460000  1
  10274  10272  10273  10293     1  0.0000000  0.0000000  3
  10274  10272  10273  10292     1  0.0000000  0.6508444  3
  10274  10272  10283  10288     1  0.0000000  1.0460000  1
  10274  10272  10283  10288     1  0.0000000  0.0000000  3
  10274  10272  10283  10286     1  0.0000000  0.6508444  3
  10274  10272  10283  10287     1  0.0000000  0.6508444  3
  10274  10272  10290  10277     1  0.0000000  1.6038667  3
  10275  10273  10293  10294     1  0.0000000  1.0460000  1
  10275  10273  10293  10294     1  0.0000000  0.6694400  3
  10275  10276  10277  10280     1  0.0000000  0.6508444  3
  10275  10276  10295  10285     1  0.0000000  1.2552000  3
  10276  10275  10273  10292     1  0.0000000  0.6508444  3
  10276  10275  10282  10284     1  0.0000000  1.0460000  1
  10276  10275  10282  10284     1  0.0000000  0.6694400  3
  10276  10277  10281  10291     1  0.0000000  1.0460000  1
  10276  10277  10281  10291     1  0.0000000  0.6694400  3
  10277  10276  10275  10279     1  0.0000000  0.6508444  3
  10277  10276  10295  10285     1  0.0000000  1.2552000  3
  10278  10276  10275  10282     1  0.0000000  1.0460000  1
  10278  10276  10275  10282     1  0.0000000  0.0000000  3
  10278  10276  10275  10279     1  0.0000000  0.6508444  3
  10278  10276  10277  10281     1  0.0000000  1.0460000  1
  10278  10276  10277  10281     1  0.0000000  0.0000000  3
  10278  10276  10277  10290     1  0.0000000  1.0460000  1
  10278  10276  10277  10290     1  0.0000000  0.0000000  3
  10278  10276  10277  10280     1  0.0000000  0.6508444  3
  10278  10276  10295  10285     1  0.0000000  1.2552000  3
  10279  10275  10273  10293     1  0.0000000  1.0460000  1
  10279  10275  10273  10293     1  0.0000000  0.0000000  3
  10279  10275  10273  10292     1  0.0000000  0.6508444  3
  10279  10275  10276  10295     1  0.0000000  0.6508444  3
  10279  10275  10282  10284     1  0.0000000  0.6973333  3
  10280  10277  10276  10295     1  0.0000000  0.6508444  3
  10280  10277  10281  10291     1  0.0000000  0.6973333  3
  10282  10275  10273  10292     1  0.0000000  1.0460000  1
  10282  10275  10273  10292     1  0.0000000  0.0000000  3
  10283  10272  10273  10292     1  0.0000000  0.6508444  3
  10286  10283  10272  10290     1  0.0000000  1.0460000  1
  10286  10283  10272  10290     1  0.0000000  0.0000000  3
  10286  10283  10288  10289     1  0.0000000  0.6973333  3
  10287  10283  10272  10290     1  0.0000000  1.0460000  1
  10287  10283  10272  10290     1  0.0000000  0.0000000  3
  10287  10283  10288  10289     1  0.0000000  0.6973333  3
  10290  10272  10273  10292     1  0.0000000  1.0460000  1
  10290  10272  10273  10292     1  0.0000000  0.0000000  3
  10290  10277  10281  10291     1  0.0000000  0.6973333  3
  10292  10273  10293  10294     1  0.0000000  0.6973333  3
  10297  10299  10301  10303     1  0.0000000  0.6508444  3
  10297  10299  10301  10304     1  0.0000000  0.6508444  3
  10298  10297  10299  10301     1  0.0000000  0.0000000  2
  10298  10297  10299  10300     1  0.0000000  0.0000000  2
  10298  10297  10299  10302     1  0.0000000  0.0000000  2
  10299  10301  10305  10370     1  0.0000000  0.6508444  3
  10300  10299  10301  10305     1  0.0000000  0.6508444  3
  10300  10299  10301  10303     1  0.0000000  0.6508444  3
  10300  10299  10301  10304     1  0.0000000  0.6508444  3
  10301  10305  10306  10315     1  0.0000000  0.6508444  3
  10301  10305  10306  10316     1  0.0000000  0.6508444  3
  10301  10305  10307  10308     1  0.0000000  0.6508444  3
  10301  10305  10307  10310     1  0.0000000  0.6508444  3
  10302  10299  10301  10305     1  0.0000000  0.6508444  3
  10302  10299  10301  10303     1  0.0000000  0.6508444  3
  10302  10299  10301  10304     1  0.0000000  0.6508444  3
  10303  10301  10305  10306     1  0.0000000  0.6508444  3
  10303  10301  10305  10307     1  0.0000000  0.6508444  3
  10303  10301  10305  10370     1  0.0000000  0.6508444  3
  10304  10301  10305  10306     1  0.0000000  0.6508444  3
  10304  10301  10305  10307     1  0.0000000  0.6508444  3
  10304  10301  10305  10370     1  0.0000000  0.6508444  3
  10305  10306  10317  10318     1  0.0000000  0.6508444  3
  10305  10306  10317  10319     1  0.0000000  0.6508444  3
  10305  10307  10309  10311     1  0.0000000  0.6508444  3
  10305  10307  10309  10312     1  0.0000000  0.6508444  3
  10306  10305  10307  10308     1  0.0000000  0.6508444  3
  10306  10305  10307  10310     1  0.0000000  0.6508444  3
  10307  10305  10306  10315     1  0.0000000  0.6508444  3
  10307  10305  10306  10316     1  0.0000000  0.6508444  3
  10308  10307  10309  10313     1  0.0000000  0.6508444  3
  10308  10307  10309  10311     1  0.0000000  0.6508444  3
  10308  10307  10309  10312     1  0.0000000  0.6508444  3
  10308  10307  10305  10370     1  0.0000000  0.6508444  3
  10309  10313  10345  10335     1  180.0000771  6.0668000  2
  10309  10313  10345  10335     1  180.0000771  1.4644000  4
  10309  10307  10305  10370     1  0.0000000  0.6508444  3
  10310  10307  10309  10313     1  0.0000000  0.6508444  3
  10310  10307  10309  10311     1  0.0000000  0.6508444  3
  10310  10307  10309  10312     1  0.0000000  0.6508444  3
  10310  10307  10305  10370     1  0.0000000  0.6508444  3
  10311  10309  10313  10314     1  0.0000000  3.3472000  1
  10311  10309  10313  10314     1  0.0000000  0.0000000  2
  10311  10309  10313  10314     1  180.0000771  0.3347200  3
  10311  10309  10313  10345     1  180.0000771  0.0000000  2
  10312  10309  10313  10314     1  0.0000000  3.3472000  1
  10312  10309  10313  10314     1  0.0000000  0.0000000  2
  10312  10309  10313  10314     1  180.0000771  0.3347200  3
  10312  10309  10313  10345     1  180.0000771  0.0000000  2
  10313  10345  10326  10328     1  0.0000000  1.2552000  3
  10314  10313  10345  10335     1  180.0000771  6.0668000  2
  10314  10313  10345  10335     1  180.0000771  1.4644000  4
  10315  10306  10317  10320     1  0.0000000  0.6508444  3
  10315  10306  10317  10318     1  0.0000000  0.6508444  3
  10315  10306  10317  10319     1  0.0000000  0.6508444  3
  10315  10306  10305  10370     1  0.0000000  0.6508444  3
  10316  10306  10317  10320     1  0.0000000  0.6508444  3
  10316  10306  10317  10318     1  0.0000000  0.6508444  3
  10316  10306  10317  10319     1  0.0000000  0.6508444  3
  10316  10306  10305  10370     1  0.0000000  0.6508444  3
  10317  10320  10369  10359     1  180.0000771  6.0668000  2
  10317  10320  10369  10359     1  180.0000771  1.4644000  4
  10317  10306  10305  10370     1  0.0000000  0.6508444  3
  10318  10317  10320  10321     1  0.0000000  3.3472000  1
  10318  10317  10320  10321     1  0.0000000  0.0000000  2
  10318  10317  10320  10321     1  180.0000771  0.3347200  3
  10318  10317  10320  10369     1  180.0000771  0.0000000  2
  10319  10317  10320  10321     1  0.0000000  3.3472000  1
  10319  10317  10320  10321     1  0.0000000  0.0000000  2
  10319  10317  10320  10321     1  180.0000771  0.3347200  3
  10319  10317  10320  10369     1  180.0000771  0.0000000  2
  10320  10369  10350  10352     1  0.0000000  1.2552000  3
  10321  10320  10369  10359     1  180.0000771  6.0668000  2
  10321  10320  10369  10359     1  180.0000771  1.4644000  4
  10322  10323  10325  10329     1  0.0000000  0.6508444  3
  10322  10323  10343  10344     1  0.0000000  1.0460000  1
  10322  10323  10343  10344     1  0.0000000  0.6694400  3
  10322  10333  10338  10339     1  0.0000000  1.0460000  1
  10322  10333  10338  10339     1  0.0000000  0.6694400  3
  10322  10340  10327  10330     1  0.0000000  1.6038667  3
  10323  10325  10326  10328     1  0.0000000  0.6508444  3
  10323  10325  10332  10334     1  0.0000000  1.0460000  1
  10323  10325  10332  10334     1  0.0000000  0.6694400  3
  10323  10322  10333  10336     1  0.0000000  0.6508444  3
  10323  10322  10333  10337     1  0.0000000  0.6508444  3
  10324  10322  10323  10325     1  0.0000000  0.6508444  3
  10324  10322  10323  10343     1  0.0000000  1.0460000  1
  10324  10322  10323  10343     1  0.0000000  0.0000000  3
  10324  10322  10323  10342     1  0.0000000  0.6508444  3
  10324  10322  10333  10338     1  0.0000000  1.0460000  1
  10324  10322  10333  10338     1  0.0000000  0.0000000  3
  10324  10322  10333  10336     1  0.0000000  0.6508444  3
  10324  10322  10333  10337     1  0.0000000  0.6508444  3
  10324  10322  10340  10327     1  0.0000000  1.6038667  3
  10325  10326  10327  10330     1  0.0000000  0.6508444  3
  10325  10326  10345  10335     1  0.0000000  1.2552000  3
  10325  10323  10343  10344     1  0.0000000  1.0460000  1
  10325  10323  10343  10344     1  0.0000000  0.6694400  3
  10326  10327  10331  10341     1  0.0000000  1.0460000  1
  10326  10327  10331  10341     1  0.0000000  0.6694400  3
  10326  10325  10332  10334     1  0.0000000  1.0460000  1
  10326  10325  10332  10334     1  0.0000000  0.6694400  3
  10326  10325  10323  10342     1  0.0000000  0.6508444  3
  10327  10326  10345  10335     1  0.0000000  1.2552000  3
  10327  10326  10325  10329     1  0.0000000  0.6508444  3
  10328  10326  10327  10331     1  0.0000000  1.0460000  1
  10328  10326  10327  10331     1  0.0000000  0.0000000  3
  10328  10326  10327  10340     1  0.0000000  1.0460000  1
  10328  10326  10327  10340     1  0.0000000  0.0000000  3
  10328  10326  10327  10330     1  0.0000000  0.6508444  3
  10328  10326  10345  10335     1  0.0000000  1.2552000  3
  10328  10326  10325  10332     1  0.0000000  1.0460000  1
  10328  10326  10325  10332     1  0.0000000  0.0000000  3
  10328  10326  10325  10329     1  0.0000000  0.6508444  3
  10329  10325  10326  10345     1  0.0000000  0.6508444  3
  10329  10325  10332  10334     1  0.0000000  0.6973333  3
  10329  10325  10323  10343     1  0.0000000  1.0460000  1
  10329  10325  10323  10343     1  0.0000000  0.0000000  3
  10329  10325  10323  10342     1  0.0000000  0.6508444  3
  10330  10327  10331  10341     1  0.0000000  0.6973333  3
  10330  10327  10326  10345     1  0.0000000  0.6508444  3
  10332  10325  10323  10342     1  0.0000000  1.0460000  1
  10332  10325  10323  10342     1  0.0000000  0.0000000  3
  10333  10322  10323  10342     1  0.0000000  0.6508444  3
  10336  10333  10338  10339     1  0.0000000  0.6973333  3
  10336  10333  10322  10340     1  0.0000000  1.0460000  1
  10336  10333  10322  10340     1  0.0000000  0.0000000  3
  10337  10333  10338  10339     1  0.0000000  0.6973333  3
  10337  10333  10322  10340     1  0.0000000  1.0460000  1
  10337  10333  10322  10340     1  0.0000000  0.0000000  3
  10340  10327  10331  10341     1  0.0000000  0.6973333  3
  10340  10322  10323  10342     1  0.0000000  1.0460000  1
  10340  10322  10323  10342     1  0.0000000  0.0000000  3
  10342  10323  10343  10344     1  0.0000000  0.6973333  3
  10346  10347  10349  10353     1  0.0000000  0.6508444  3
  10346  10347  10367  10368     1  0.0000000  1.0460000  1
  10346  10347  10367  10368     1  0.0000000  0.6694400  3
  10346  10357  10362  10363     1  0.0000000  1.0460000  1
  10346  10357  10362  10363     1  0.0000000  0.6694400  3
  10346  10364  10351  10354     1  0.0000000  1.6038667  3
  10347  10349  10350  10352     1  0.0000000  0.6508444  3
  10347  10349  10356  10358     1  0.0000000  1.0460000  1
  10347  10349  10356  10358     1  0.0000000  0.6694400  3
  10347  10346  10357  10360     1  0.0000000  0.6508444  3
  10347  10346  10357  10361     1  0.0000000  0.6508444  3
  10348  10346  10347  10349     1  0.0000000  0.6508444  3
  10348  10346  10347  10367     1  0.0000000  1.0460000  1
  10348  10346  10347  10367     1  0.0000000  0.0000000  3
  10348  10346  10347  10366     1  0.0000000  0.6508444  3
  10348  10346  10357  10362     1  0.0000000  1.0460000  1
  10348  10346  10357  10362     1  0.0000000  0.0000000  3
  10348  10346  10357  10360     1  0.0000000  0.6508444  3
  10348  10346  10357  10361     1  0.0000000  0.6508444  3
  10348  10346  10364  10351     1  0.0000000  1.6038667  3
  10349  10350  10351  10354     1  0.0000000  0.6508444  3
  10349  10350  10369  10359     1  0.0000000  1.2552000  3
  10349  10347  10367  10368     1  0.0000000  1.0460000  1
  10349  10347  10367  10368     1  0.0000000  0.6694400  3
  10350  10351  10355  10365     1  0.0000000  1.0460000  1
  10350  10351  10355  10365     1  0.0000000  0.6694400  3
  10350  10349  10356  10358     1  0.0000000  1.0460000  1
  10350  10349  10356  10358     1  0.0000000  0.6694400  3
  10350  10349  10347  10366     1  0.0000000  0.6508444  3
  10351  10350  10369  10359     1  0.0000000  1.2552000  3
  10351  10350  10349  10353     1  0.0000000  0.6508444  3
  10352  10350  10351  10355     1  0.0000000  1.0460000  1
  10352  10350  10351  10355     1  0.0000000  0.0000000  3
  10352  10350  10351  10364     1  0.0000000  1.0460000  1
  10352  10350  10351  10364     1  0.0000000  0.0000000  3
  10352  10350  10351  10354     1  0.0000000  0.6508444  3
  10352  10350  10369  10359     1  0.0000000  1.2552000  3
  10352  10350  10349  10356     1  0.0000000  1.0460000  1
  10352  10350  10349  10356     1  0.0000000  0.0000000  3
  10352  10350  10349  10353     1  0.0000000  0.6508444  3
  10353  10349  10350  10369     1  0.0000000  0.6508444  3
  10353  10349  10356  10358     1  0.0000000  0.6973333  3
  10353  10349  10347  10367     1  0.0000000  1.0460000  1
  10353  10349  10347  10367     1  0.0000000  0.0000000  3
  10353  10349  10347  10366     1  0.0000000  0.6508444  3
  10354  10351  10355  10365     1  0.0000000  0.6973333  3
  10354  10351  10350  10369     1  0.0000000  0.6508444  3
  10356  10349  10347  10366     1  0.0000000  1.0460000  1
  10356  10349  10347  10366     1  0.0000000  0.0000000  3
  10357  10346  10347  10366     1  0.0000000  0.6508444  3
  10360  10357  10362  10363     1  0.0000000  0.6973333  3
  10360  10357  10346  10364     1  0.0000000  1.0460000  1
  10360  10357  10346  10364     1  0.0000000  0.0000000  3
  10361  10357  10362  10363     1  0.0000000  0.6973333  3
  10361  10357  10346  10364     1  0.0000000  1.0460000  1
  10361  10357  10346  10364     1  0.0000000  0.0000000  3
  10364  10351  10355  10365     1  0.0000000  0.6973333  3
  10364  10346  10347  10366     1  0.0000000  1.0460000  1
  10364  10346  10347  10366     1  0.0000000  0.0000000  3
  10366  10347  10367  10368     1  0.0000000  0.6973333  3
  10371  10373  10375  10377     1  0.0000000  0.6508444  3
  10371  10373  10375  10378     1  0.0000000  0.6508444  3
  10372  10371  10373  10375     1  0.0000000  0.0000000  2
  10372  10371  10373  10374     1  0.0000000  0.0000000  2
  10372  10371  10373  10376     1  0.0000000  0.0000000  2
  10373  10375  10379  10444     1  0.0000000  0.6508444  3
  10374  10373  10375  10379     1  0.0000000  0.6508444  3
  10374  10373  10375  10377     1  0.0000000  0.6508444  3
  10374  10373  10375  10378     1  0.0000000  0.6508444  3
  10375  10379  10380  10389     1  0.0000000  0.6508444  3
  10375  10379  10380  10390     1  0.0000000  0.6508444  3
  10375  10379  10381  10382     1  0.0000000  0.6508444  3
  10375  10379  10381  10384     1  0.0000000  0.6508444  3
  10376  10373  10375  10379     1  0.0000000  0.6508444  3
  10376  10373  10375  10377     1  0.0000000  0.6508444  3
  10376  10373  10375  10378     1  0.0000000  0.6508444  3
  10377  10375  10379  10380     1  0.0000000  0.6508444  3
  10377  10375  10379  10381     1  0.0000000  0.6508444  3
  10377  10375  10379  10444     1  0.0000000  0.6508444  3
  10378  10375  10379  10380     1  0.0000000  0.6508444  3
  10378  10375  10379  10381     1  0.0000000  0.6508444  3
  10378  10375  10379  10444     1  0.0000000  0.6508444  3
  10379  10380  10391  10392     1  0.0000000  0.6508444  3
  10379  10380  10391  10393     1  0.0000000  0.6508444  3
  10379  10381  10383  10385     1  0.0000000  0.6508444  3
  10379  10381  10383  10386     1  0.0000000  0.6508444  3
  10380  10379  10381  10382     1  0.0000000  0.6508444  3
  10380  10379  10381  10384     1  0.0000000  0.6508444  3
  10381  10379  10380  10389     1  0.0000000  0.6508444  3
  10381  10379  10380  10390     1  0.0000000  0.6508444  3
  10382  10381  10379  10444     1  0.0000000  0.6508444  3
  10382  10381  10383  10387     1  0.0000000  0.6508444  3
  10382  10381  10383  10385     1  0.0000000  0.6508444  3
  10382  10381  10383  10386     1  0.0000000  0.6508444  3
  10383  10381  10379  10444     1  0.0000000  0.6508444  3
  10383  10387  10419  10409     1  180.0000771  6.0668000  2
  10383  10387  10419  10409     1  180.0000771  1.4644000  4
  10384  10381  10379  10444     1  0.0000000  0.6508444  3
  10384  10381  10383  10387     1  0.0000000  0.6508444  3
  10384  10381  10383  10385     1  0.0000000  0.6508444  3
  10384  10381  10383  10386     1  0.0000000  0.6508444  3
  10385  10383  10387  10388     1  0.0000000  3.3472000  1
  10385  10383  10387  10388     1  0.0000000  0.0000000  2
  10385  10383  10387  10388     1  180.0000771  0.3347200  3
  10385  10383  10387  10419     1  180.0000771  0.0000000  2
  10386  10383  10387  10388     1  0.0000000  3.3472000  1
  10386  10383  10387  10388     1  0.0000000  0.0000000  2
  10386  10383  10387  10388     1  180.0000771  0.3347200  3
  10386  10383  10387  10419     1  180.0000771  0.0000000  2
  10387  10419  10400  10402     1  0.0000000  1.2552000  3
  10388  10387  10419  10409     1  180.0000771  6.0668000  2
  10388  10387  10419  10409     1  180.0000771  1.4644000  4
  10389  10380  10379  10444     1  0.0000000  0.6508444  3
  10389  10380  10391  10394     1  0.0000000  0.6508444  3
  10389  10380  10391  10392     1  0.0000000  0.6508444  3
  10389  10380  10391  10393     1  0.0000000  0.6508444  3
  10390  10380  10379  10444     1  0.0000000  0.6508444  3
  10390  10380  10391  10394     1  0.0000000  0.6508444  3
  10390  10380  10391  10392     1  0.0000000  0.6508444  3
  10390  10380  10391  10393     1  0.0000000  0.6508444  3
  10391  10380  10379  10444     1  0.0000000  0.6508444  3
  10391  10394  10443  10433     1  180.0000771  6.0668000  2
  10391  10394  10443  10433     1  180.0000771  1.4644000  4
  10392  10391  10394  10395     1  0.0000000  3.3472000  1
  10392  10391  10394  10395     1  0.0000000  0.0000000  2
  10392  10391  10394  10395     1  180.0000771  0.3347200  3
  10392  10391  10394  10443     1  180.0000771  0.0000000  2
  10393  10391  10394  10395     1  0.0000000  3.3472000  1
  10393  10391  10394  10395     1  0.0000000  0.0000000  2
  10393  10391  10394  10395     1  180.0000771  0.3347200  3
  10393  10391  10394  10443     1  180.0000771  0.0000000  2
  10394  10443  10424  10426     1  0.0000000  1.2552000  3
  10395  10394  10443  10433     1  180.0000771  6.0668000  2
  10395  10394  10443  10433     1  180.0000771  1.4644000  4
  10396  10397  10399  10403     1  0.0000000  0.6508444  3
  10396  10397  10417  10418     1  0.0000000  1.0460000  1
  10396  10397  10417  10418     1  0.0000000  0.6694400  3
  10396  10407  10412  10413     1  0.0000000  1.0460000  1
  10396  10407  10412  10413     1  0.0000000  0.6694400  3
  10396  10414  10401  10404     1  0.0000000  1.6038667  3
  10397  10396  10407  10410     1  0.0000000  0.6508444  3
  10397  10396  10407  10411     1  0.0000000  0.6508444  3
  10397  10399  10400  10402     1  0.0000000  0.6508444  3
  10397  10399  10406  10408     1  0.0000000  1.0460000  1
  10397  10399  10406  10408     1  0.0000000  0.6694400  3
  10398  10396  10397  10399     1  0.0000000  0.6508444  3
  10398  10396  10397  10417     1  0.0000000  1.0460000  1
  10398  10396  10397  10417     1  0.0000000  0.0000000  3
  10398  10396  10397  10416     1  0.0000000  0.6508444  3
  10398  10396  10407  10412     1  0.0000000  1.0460000  1
  10398  10396  10407  10412     1  0.0000000  0.0000000  3
  10398  10396  10407  10410     1  0.0000000  0.6508444  3
  10398  10396  10407  10411     1  0.0000000  0.6508444  3
  10398  10396  10414  10401     1  0.0000000  1.6038667  3
  10399  10397  10417  10418     1  0.0000000  1.0460000  1
  10399  10397  10417  10418     1  0.0000000  0.6694400  3
  10399  10400  10401  10404     1  0.0000000  0.6508444  3
  10399  10400  10419  10409     1  0.0000000  1.2552000  3
  10400  10399  10397  10416     1  0.0000000  0.6508444  3
  10400  10399  10406  10408     1  0.0000000  1.0460000  1
  10400  10399  10406  10408     1  0.0000000  0.6694400  3
  10400  10401  10405  10415     1  0.0000000  1.0460000  1
  10400  10401  10405  10415     1  0.0000000  0.6694400  3
  10401  10400  10399  10403     1  0.0000000  0.6508444  3
  10401  10400  10419  10409     1  0.0000000  1.2552000  3
  10402  10400  10399  10406     1  0.0000000  1.0460000  1
  10402  10400  10399  10406     1  0.0000000  0.0000000  3
  10402  10400  10399  10403     1  0.0000000  0.6508444  3
  10402  10400  10401  10405     1  0.0000000  1.0460000  1
  10402  10400  10401  10405     1  0.0000000  0.0000000  3
  10402  10400  10401  10414     1  0.0000000  1.0460000  1
  10402  10400  10401  10414     1  0.0000000  0.0000000  3
  10402  10400  10401  10404     1  0.0000000  0.6508444  3
  10402  10400  10419  10409     1  0.0000000  1.2552000  3
  10403  10399  10397  10417     1  0.0000000  1.0460000  1
  10403  10399  10397  10417     1  0.0000000  0.0000000  3
  10403  10399  10397  10416     1  0.0000000  0.6508444  3
  10403  10399  10400  10419     1  0.0000000  0.6508444  3
  10403  10399  10406  10408     1  0.0000000  0.6973333  3
  10404  10401  10400  10419     1  0.0000000  0.6508444  3
  10404  10401  10405  10415     1  0.0000000  0.6973333  3
  10406  10399  10397  10416     1  0.0000000  1.0460000  1
  10406  10399  10397  10416     1  0.0000000  0.0000000  3
  10407  10396  10397  10416     1  0.0000000  0.6508444  3
  10410  10407  10396  10414     1  0.0000000  1.0460000  1
  10410  10407  10396  10414     1  0.0000000  0.0000000  3
  10410  10407  10412  10413     1  0.0000000  0.6973333  3
  10411  10407  10396  10414     1  0.0000000  1.0460000  1
  10411  10407  10396  10414     1  0.0000000  0.0000000  3
  10411  10407  10412  10413     1  0.0000000  0.6973333  3
  10414  10396  10397  10416     1  0.0000000  1.0460000  1
  10414  10396  10397  10416     1  0.0000000  0.0000000  3
  10414  10401  10405  10415     1  0.0000000  0.6973333  3
  10416  10397  10417  10418     1  0.0000000  0.6973333  3
  10420  10421  10423  10427     1  0.0000000  0.6508444  3
  10420  10421  10441  10442     1  0.0000000  1.0460000  1
  10420  10421  10441  10442     1  0.0000000  0.6694400  3
  10420  10431  10436  10437     1  0.0000000  1.0460000  1
  10420  10431  10436  10437     1  0.0000000  0.6694400  3
  10420  10438  10425  10428     1  0.0000000  1.6038667  3
  10421  10420  10431  10434     1  0.0000000  0.6508444  3
  10421  10420  10431  10435     1  0.0000000  0.6508444  3
  10421  10423  10424  10426     1  0.0000000  0.6508444  3
  10421  10423  10430  10432     1  0.0000000  1.0460000  1
  10421  10423  10430  10432     1  0.0000000  0.6694400  3
  10422  10420  10421  10423     1  0.0000000  0.6508444  3
  10422  10420  10421  10441     1  0.0000000  1.0460000  1
  10422  10420  10421  10441     1  0.0000000  0.0000000  3
  10422  10420  10421  10440     1  0.0000000  0.6508444  3
  10422  10420  10431  10436     1  0.0000000  1.0460000  1
  10422  10420  10431  10436     1  0.0000000  0.0000000  3
  10422  10420  10431  10434     1  0.0000000  0.6508444  3
  10422  10420  10431  10435     1  0.0000000  0.6508444  3
  10422  10420  10438  10425     1  0.0000000  1.6038667  3
  10423  10421  10441  10442     1  0.0000000  1.0460000  1
  10423  10421  10441  10442     1  0.0000000  0.6694400  3
  10423  10424  10425  10428     1  0.0000000  0.6508444  3
  10423  10424  10443  10433     1  0.0000000  1.2552000  3
  10424  10423  10421  10440     1  0.0000000  0.6508444  3
  10424  10423  10430  10432     1  0.0000000  1.0460000  1
  10424  10423  10430  10432     1  0.0000000  0.6694400  3
  10424  10425  10429  10439     1  0.0000000  1.0460000  1
  10424  10425  10429  10439     1  0.0000000  0.6694400  3
  10425  10424  10423  10427     1  0.0000000  0.6508444  3
  10425  10424  10443  10433     1  0.0000000  1.2552000  3
  10426  10424  10423  10430     1  0.0000000  1.0460000  1
  10426  10424  10423  10430     1  0.0000000  0.0000000  3
  10426  10424  10423  10427     1  0.0000000  0.6508444  3
  10426  10424  10425  10429     1  0.0000000  1.0460000  1
  10426  10424  10425  10429     1  0.0000000  0.0000000  3
  10426  10424  10425  10438     1  0.0000000  1.0460000  1
  10426  10424  10425  10438     1  0.0000000  0.0000000  3
  10426  10424  10425  10428     1  0.0000000  0.6508444  3
  10426  10424  10443  10433     1  0.0000000  1.2552000  3
  10427  10423  10421  10441     1  0.0000000  1.0460000  1
  10427  10423  10421  10441     1  0.0000000  0.0000000  3
  10427  10423  10421  10440     1  0.0000000  0.6508444  3
  10427  10423  10424  10443     1  0.0000000  0.6508444  3
  10427  10423  10430  10432     1  0.0000000  0.6973333  3
  10428  10425  10424  10443     1  0.0000000  0.6508444  3
  10428  10425  10429  10439     1  0.0000000  0.6973333  3
  10430  10423  10421  10440     1  0.0000000  1.0460000  1
  10430  10423  10421  10440     1  0.0000000  0.0000000  3
  10431  10420  10421  10440     1  0.0000000  0.6508444  3
  10434  10431  10420  10438     1  0.0000000  1.0460000  1
  10434  10431  10420  10438     1  0.0000000  0.0000000  3
  10434  10431  10436  10437     1  0.0000000  0.6973333  3
  10435  10431  10420  10438     1  0.0000000  1.0460000  1
  10435  10431  10420  10438     1  0.0000000  0.0000000  3
  10435  10431  10436  10437     1  0.0000000  0.6973333  3
  10438  10420  10421  10440     1  0.0000000  1.0460000  1
  10438  10420  10421  10440     1  0.0000000  0.0000000  3
  10438  10425  10429  10439     1  0.0000000  0.6973333  3
  10440  10421  10441  10442     1  0.0000000  0.6973333  3
  10445  10447  10449  10451     1  0.0000000  0.6508444  3
  10445  10447  10449  10452     1  0.0000000  0.6508444  3
  10446  10445  10447  10449     1  0.0000000  0.0000000  2
  10446  10445  10447  10448     1  0.0000000  0.0000000  2
  10446  10445  10447  10450     1  0.0000000  0.0000000  2
  10447  10449  10453  10518     1  0.0000000  0.6508444  3
  10448  10447  10449  10453     1  0.0000000  0.6508444  3
  10448  10447  10449  10451     1  0.0000000  0.6508444  3
  10448  10447  10449  10452     1  0.0000000  0.6508444  3
  10449  10453  10454  10463     1  0.0000000  0.6508444  3
  10449  10453  10454  10464     1  0.0000000  0.6508444  3
  10449  10453  10455  10456     1  0.0000000  0.6508444  3
  10449  10453  10455  10458     1  0.0000000  0.6508444  3
  10450  10447  10449  10453     1  0.0000000  0.6508444  3
  10450  10447  10449  10451     1  0.0000000  0.6508444  3
  10450  10447  10449  10452     1  0.0000000  0.6508444  3
  10451  10449  10453  10454     1  0.0000000  0.6508444  3
  10451  10449  10453  10455     1  0.0000000  0.6508444  3
  10451  10449  10453  10518     1  0.0000000  0.6508444  3
  10452  10449  10453  10454     1  0.0000000  0.6508444  3
  10452  10449  10453  10455     1  0.0000000  0.6508444  3
  10452  10449  10453  10518     1  0.0000000  0.6508444  3
  10453  10454  10465  10466     1  0.0000000  0.6508444  3
  10453  10454  10465  10467     1  0.0000000  0.6508444  3
  10453  10455  10457  10459     1  0.0000000  0.6508444  3
  10453  10455  10457  10460     1  0.0000000  0.6508444  3
  10454  10453  10455  10456     1  0.0000000  0.6508444  3
  10454  10453  10455  10458     1  0.0000000  0.6508444  3
  10455  10453  10454  10463     1  0.0000000  0.6508444  3
  10455  10453  10454  10464     1  0.0000000  0.6508444  3
  10456  10455  10457  10461     1  0.0000000  0.6508444  3
  10456  10455  10457  10459     1  0.0000000  0.6508444  3
  10456  10455  10457  10460     1  0.0000000  0.6508444  3
  10456  10455  10453  10518     1  0.0000000  0.6508444  3
  10457  10461  10493  10483     1  180.0000771  6.0668000  2
  10457  10461  10493  10483     1  180.0000771  1.4644000  4
  10457  10455  10453  10518     1  0.0000000  0.6508444  3
  10458  10455  10457  10461     1  0.0000000  0.6508444  3
  10458  10455  10457  10459     1  0.0000000  0.6508444  3
  10458  10455  10457  10460     1  0.0000000  0.6508444  3
  10458  10455  10453  10518     1  0.0000000  0.6508444  3
  10459  10457  10461  10462     1  0.0000000  3.3472000  1
  10459  10457  10461  10462     1  0.0000000  0.0000000  2
  10459  10457  10461  10462     1  180.0000771  0.3347200  3
  10459  10457  10461  10493     1  180.0000771  0.0000000  2
  10460  10457  10461  10462     1  0.0000000  3.3472000  1
  10460  10457  10461  10462     1  0.0000000  0.0000000  2
  10460  10457  10461  10462     1  180.0000771  0.3347200  3
  10460  10457  10461  10493     1  180.0000771  0.0000000  2
  10461  10493  10474  10476     1  0.0000000  1.2552000  3
  10462  10461  10493  10483     1  180.0000771  6.0668000  2
  10462  10461  10493  10483     1  180.0000771  1.4644000  4
  10463  10454  10465  10468     1  0.0000000  0.6508444  3
  10463  10454  10465  10466     1  0.0000000  0.6508444  3
  10463  10454  10465  10467     1  0.0000000  0.6508444  3
  10463  10454  10453  10518     1  0.0000000  0.6508444  3
  10464  10454  10465  10468     1  0.0000000  0.6508444  3
  10464  10454  10465  10466     1  0.0000000  0.6508444  3
  10464  10454  10465  10467     1  0.0000000  0.6508444  3
  10464  10454  10453  10518     1  0.0000000  0.6508444  3
  10465  10468  10517  10507     1  180.0000771  6.0668000  2
  10465  10468  10517  10507     1  180.0000771  1.4644000  4
  10465  10454  10453  10518     1  0.0000000  0.6508444  3
  10466  10465  10468  10469     1  0.0000000  3.3472000  1
  10466  10465  10468  10469     1  0.0000000  0.0000000  2
  10466  10465  10468  10469     1  180.0000771  0.3347200  3
  10466  10465  10468  10517     1  180.0000771  0.0000000  2
  10467  10465  10468  10469     1  0.0000000  3.3472000  1
  10467  10465  10468  10469     1  0.0000000  0.0000000  2
  10467  10465  10468  10469     1  180.0000771  0.3347200  3
  10467  10465  10468  10517     1  180.0000771  0.0000000  2
  10468  10517  10498  10500     1  0.0000000  1.2552000  3
  10469  10468  10517  10507     1  180.0000771  6.0668000  2
  10469  10468  10517  10507     1  180.0000771  1.4644000  4
  10470  10471  10473  10477     1  0.0000000  0.6508444  3
  10470  10471  10491  10492     1  0.0000000  1.0460000  1
  10470  10471  10491  10492     1  0.0000000  0.6694400  3
  10470  10481  10486  10487     1  0.0000000  1.0460000  1
  10470  10481  10486  10487     1  0.0000000  0.6694400  3
  10470  10488  10475  10478     1  0.0000000  1.6038667  3
  10471  10473  10474  10476     1  0.0000000  0.6508444  3
  10471  10473  10480  10482     1  0.0000000  1.0460000  1
  10471  10473  10480  10482     1  0.0000000  0.6694400  3
  10471  10470  10481  10484     1  0.0000000  0.6508444  3
  10471  10470  10481  10485     1  0.0000000  0.6508444  3
  10472  10470  10471  10473     1  0.0000000  0.6508444  3
  10472  10470  10471  10491     1  0.0000000  1.0460000  1
  10472  10470  10471  10491     1  0.0000000  0.0000000  3
  10472  10470  10471  10490     1  0.0000000  0.6508444  3
  10472  10470  10481  10486     1  0.0000000  1.0460000  1
  10472  10470  10481  10486     1  0.0000000  0.0000000  3
  10472  10470  10481  10484     1  0.0000000  0.6508444  3
  10472  10470  10481  10485     1  0.0000000  0.6508444  3
  10472  10470  10488  10475     1  0.0000000  1.6038667  3
  10473  10474  10475  10478     1  0.0000000  0.6508444  3
  10473  10474  10493  10483     1  0.0000000  1.2552000  3
  10473  10471  10491  10492     1  0.0000000  1.0460000  1
  10473  10471  10491  10492     1  0.0000000  0.6694400  3
  10474  10475  10479  10489     1  0.0000000  1.0460000  1
  10474  10475  10479  10489     1  0.0000000  0.6694400  3
  10474  10473  10480  10482     1  0.0000000  1.0460000  1
  10474  10473  10480  10482     1  0.0000000  0.6694400  3
  10474  10473  10471  10490     1  0.0000000  0.6508444  3
  10475  10474  10493  10483     1  0.0000000  1.2552000  3
  10475  10474  10473  10477     1  0.0000000  0.6508444  3
  10476  10474  10475  10479     1  0.0000000  1.0460000  1
  10476  10474  10475  10479     1  0.0000000  0.0000000  3
  10476  10474  10475  10488     1  0.0000000  1.0460000  1
  10476  10474  10475  10488     1  0.0000000  0.0000000  3
  10476  10474  10475  10478     1  0.0000000  0.6508444  3
  10476  10474  10493  10483     1  0.0000000  1.2552000  3
  10476  10474  10473  10480     1  0.0000000  1.0460000  1
  10476  10474  10473  10480     1  0.0000000  0.0000000  3
  10476  10474  10473  10477     1  0.0000000  0.6508444  3
  10477  10473  10474  10493     1  0.0000000  0.6508444  3
  10477  10473  10480  10482     1  0.0000000  0.6973333  3
  10477  10473  10471  10491     1  0.0000000  1.0460000  1
  10477  10473  10471  10491     1  0.0000000  0.0000000  3
  10477  10473  10471  10490     1  0.0000000  0.6508444  3
  10478  10475  10479  10489     1  0.0000000  0.6973333  3
  10478  10475  10474  10493     1  0.0000000  0.6508444  3
  10480  10473  10471  10490     1  0.0000000  1.0460000  1
  10480  10473  10471  10490     1  0.0000000  0.0000000  3
  10481  10470  10471  10490     1  0.0000000  0.6508444  3
  10484  10481  10486  10487     1  0.0000000  0.6973333  3
  10484  10481  10470  10488     1  0.0000000  1.0460000  1
  10484  10481  10470  10488     1  0.0000000  0.0000000  3
  10485  10481  10486  10487     1  0.0000000  0.6973333  3
  10485  10481  10470  10488     1  0.0000000  1.0460000  1
  10485  10481  10470  10488     1  0.0000000  0.0000000  3
  10488  10475  10479  10489     1  0.0000000  0.6973333  3
  10488  10470  10471  10490     1  0.0000000  1.0460000  1
  10488  10470  10471  10490     1  0.0000000  0.0000000  3
  10490  10471  10491  10492     1  0.0000000  0.6973333  3
  10494  10495  10497  10501     1  0.0000000  0.6508444  3
  10494  10495  10515  10516     1  0.0000000  1.0460000  1
  10494  10495  10515  10516     1  0.0000000  0.6694400  3
  10494  10505  10510  10511     1  0.0000000  1.0460000  1
  10494  10505  10510  10511     1  0.0000000  0.6694400  3
  10494  10512  10499  10502     1  0.0000000  1.6038667  3
  10495  10497  10498  10500     1  0.0000000  0.6508444  3
  10495  10497  10504  10506     1  0.0000000  1.0460000  1
  10495  10497  10504  10506     1  0.0000000  0.6694400  3
  10495  10494  10505  10508     1  0.0000000  0.6508444  3
  10495  10494  10505  10509     1  0.0000000  0.6508444  3
  10496  10494  10495  10497     1  0.0000000  0.6508444  3
  10496  10494  10495  10515     1  0.0000000  1.0460000  1
  10496  10494  10495  10515     1  0.0000000  0.0000000  3
  10496  10494  10495  10514     1  0.0000000  0.6508444  3
  10496  10494  10505  10510     1  0.0000000  1.0460000  1
  10496  10494  10505  10510     1  0.0000000  0.0000000  3
  10496  10494  10505  10508     1  0.0000000  0.6508444  3
  10496  10494  10505  10509     1  0.0000000  0.6508444  3
  10496  10494  10512  10499     1  0.0000000  1.6038667  3
  10497  10498  10499  10502     1  0.0000000  0.6508444  3
  10497  10498  10517  10507     1  0.0000000  1.2552000  3
  10497  10495  10515  10516     1  0.0000000  1.0460000  1
  10497  10495  10515  10516     1  0.0000000  0.6694400  3
  10498  10499  10503  10513     1  0.0000000  1.0460000  1
  10498  10499  10503  10513     1  0.0000000  0.6694400  3
  10498  10497  10504  10506     1  0.0000000  1.0460000  1
  10498  10497  10504  10506     1  0.0000000  0.6694400  3
  10498  10497  10495  10514     1  0.0000000  0.6508444  3
  10499  10498  10517  10507     1  0.0000000  1.2552000  3
  10499  10498  10497  10501     1  0.0000000  0.6508444  3
  10500  10498  10499  10503     1  0.0000000  1.0460000  1
  10500  10498  10499  10503     1  0.0000000  0.0000000  3
  10500  10498  10499  10512     1  0.0000000  1.0460000  1
  10500  10498  10499  10512     1  0.0000000  0.0000000  3
  10500  10498  10499  10502     1  0.0000000  0.6508444  3
  10500  10498  10517  10507     1  0.0000000  1.2552000  3
  10500  10498  10497  10504     1  0.0000000  1.0460000  1
  10500  10498  10497  10504     1  0.0000000  0.0000000  3
  10500  10498  10497  10501     1  0.0000000  0.6508444  3
  10501  10497  10498  10517     1  0.0000000  0.6508444  3
  10501  10497  10504  10506     1  0.0000000  0.6973333  3
  10501  10497  10495  10515     1  0.0000000  1.0460000  1
  10501  10497  10495  10515     1  0.0000000  0.0000000  3
  10501  10497  10495  10514     1  0.0000000  0.6508444  3
  10502  10499  10503  10513     1  0.0000000  0.6973333  3
  10502  10499  10498  10517     1  0.0000000  0.6508444  3
  10504  10497  10495  10514     1  0.0000000  1.0460000  1
  10504  10497  10495  10514     1  0.0000000  0.0000000  3
  10505  10494  10495  10514     1  0.0000000  0.6508444  3
  10508  10505  10510  10511     1  0.0000000  0.6973333  3
  10508  10505  10494  10512     1  0.0000000  1.0460000  1
  10508  10505  10494  10512     1  0.0000000  0.0000000  3
  10509  10505  10510  10511     1  0.0000000  0.6973333  3
  10509  10505  10494  10512     1  0.0000000  1.0460000  1
  10509  10505  10494  10512     1  0.0000000  0.0000000  3
  10512  10499  10503  10513     1  0.0000000  0.6973333  3
  10512  10494  10495  10514     1  0.0000000  1.0460000  1
  10512  10494  10495  10514     1  0.0000000  0.0000000  3
  10514  10495  10515  10516     1  0.0000000  0.6973333  3
  10519  10521  10523  10525     1  0.0000000  0.6508444  3
  10519  10521  10523  10526     1  0.0000000  0.6508444  3
  10520  10519  10521  10523     1  0.0000000  0.0000000  2
  10520  10519  10521  10522     1  0.0000000  0.0000000  2
  10520  10519  10521  10524     1  0.0000000  0.0000000  2
  10521  10523  10527  10592     1  0.0000000  0.6508444  3
  10522  10521  10523  10527     1  0.0000000  0.6508444  3
  10522  10521  10523  10525     1  0.0000000  0.6508444  3
  10522  10521  10523  10526     1  0.0000000  0.6508444  3
  10523  10527  10528  10537     1  0.0000000  0.6508444  3
  10523  10527  10528  10538     1  0.0000000  0.6508444  3
  10523  10527  10529  10530     1  0.0000000  0.6508444  3
  10523  10527  10529  10532     1  0.0000000  0.6508444  3
  10524  10521  10523  10527     1  0.0000000  0.6508444  3
  10524  10521  10523  10525     1  0.0000000  0.6508444  3
  10524  10521  10523  10526     1  0.0000000  0.6508444  3
  10525  10523  10527  10528     1  0.0000000  0.6508444  3
  10525  10523  10527  10529     1  0.0000000  0.6508444  3
  10525  10523  10527  10592     1  0.0000000  0.6508444  3
  10526  10523  10527  10528     1  0.0000000  0.6508444  3
  10526  10523  10527  10529     1  0.0000000  0.6508444  3
  10526  10523  10527  10592     1  0.0000000  0.6508444  3
  10527  10528  10539  10540     1  0.0000000  0.6508444  3
  10527  10528  10539  10541     1  0.0000000  0.6508444  3
  10527  10529  10531  10533     1  0.0000000  0.6508444  3
  10527  10529  10531  10534     1  0.0000000  0.6508444  3
  10528  10527  10529  10530     1  0.0000000  0.6508444  3
  10528  10527  10529  10532     1  0.0000000  0.6508444  3
  10529  10527  10528  10537     1  0.0000000  0.6508444  3
  10529  10527  10528  10538     1  0.0000000  0.6508444  3
  10530  10529  10527  10592     1  0.0000000  0.6508444  3
  10530  10529  10531  10535     1  0.0000000  0.6508444  3
  10530  10529  10531  10533     1  0.0000000  0.6508444  3
  10530  10529  10531  10534     1  0.0000000  0.6508444  3
  10531  10529  10527  10592     1  0.0000000  0.6508444  3
  10531  10535  10567  10557     1  180.0000771  6.0668000  2
  10531  10535  10567  10557     1  180.0000771  1.4644000  4
  10532  10529  10527  10592     1  0.0000000  0.6508444  3
  10532  10529  10531  10535     1  0.0000000  0.6508444  3
  10532  10529  10531  10533     1  0.0000000  0.6508444  3
  10532  10529  10531  10534     1  0.0000000  0.6508444  3
  10533  10531  10535  10536     1  0.0000000  3.3472000  1
  10533  10531  10535  10536     1  0.0000000  0.0000000  2
  10533  10531  10535  10536     1  180.0000771  0.3347200  3
  10533  10531  10535  10567     1  180.0000771  0.0000000  2
  10534  10531  10535  10536     1  0.0000000  3.3472000  1
  10534  10531  10535  10536     1  0.0000000  0.0000000  2
  10534  10531  10535  10536     1  180.0000771  0.3347200  3
  10534  10531  10535  10567     1  180.0000771  0.0000000  2
  10535  10567  10548  10550     1  0.0000000  1.2552000  3
  10536  10535  10567  10557     1  180.0000771  6.0668000  2
  10536  10535  10567  10557     1  180.0000771  1.4644000  4
  10537  10528  10527  10592     1  0.0000000  0.6508444  3
  10537  10528  10539  10542     1  0.0000000  0.6508444  3
  10537  10528  10539  10540     1  0.0000000  0.6508444  3
  10537  10528  10539  10541     1  0.0000000  0.6508444  3
  10538  10528  10527  10592     1  0.0000000  0.6508444  3
  10538  10528  10539  10542     1  0.0000000  0.6508444  3
  10538  10528  10539  10540     1  0.0000000  0.6508444  3
  10538  10528  10539  10541     1  0.0000000  0.6508444  3
  10539  10528  10527  10592     1  0.0000000  0.6508444  3
  10539  10542  10591  10581     1  180.0000771  6.0668000  2
  10539  10542  10591  10581     1  180.0000771  1.4644000  4
  10540  10539  10542  10543     1  0.0000000  3.3472000  1
  10540  10539  10542  10543     1  0.0000000  0.0000000  2
  10540  10539  10542  10543     1  180.0000771  0.3347200  3
  10540  10539  10542  10591     1  180.0000771  0.0000000  2
  10541  10539  10542  10543     1  0.0000000  3.3472000  1
  10541  10539  10542  10543     1  0.0000000  0.0000000  2
  10541  10539  10542  10543     1  180.0000771  0.3347200  3
  10541  10539  10542  10591     1  180.0000771  0.0000000  2
  10542  10591  10572  10574     1  0.0000000  1.2552000  3
  10543  10542  10591  10581     1  180.0000771  6.0668000  2
  10543  10542  10591  10581     1  180.0000771  1.4644000  4
  10544  10545  10547  10551     1  0.0000000  0.6508444  3
  10544  10545  10565  10566     1  0.0000000  1.0460000  1
  10544  10545  10565  10566     1  0.0000000  0.6694400  3
  10544  10555  10560  10561     1  0.0000000  1.0460000  1
  10544  10555  10560  10561     1  0.0000000  0.6694400  3
  10544  10562  10549  10552     1  0.0000000  1.6038667  3
  10545  10544  10555  10558     1  0.0000000  0.6508444  3
  10545  10544  10555  10559     1  0.0000000  0.6508444  3
  10545  10547  10548  10550     1  0.0000000  0.6508444  3
  10545  10547  10554  10556     1  0.0000000  1.0460000  1
  10545  10547  10554  10556     1  0.0000000  0.6694400  3
  10546  10544  10545  10547     1  0.0000000  0.6508444  3
  10546  10544  10545  10565     1  0.0000000  1.0460000  1
  10546  10544  10545  10565     1  0.0000000  0.0000000  3
  10546  10544  10545  10564     1  0.0000000  0.6508444  3
  10546  10544  10555  10560     1  0.0000000  1.0460000  1
  10546  10544  10555  10560     1  0.0000000  0.0000000  3
  10546  10544  10555  10558     1  0.0000000  0.6508444  3
  10546  10544  10555  10559     1  0.0000000  0.6508444  3
  10546  10544  10562  10549     1  0.0000000  1.6038667  3
  10547  10545  10565  10566     1  0.0000000  1.0460000  1
  10547  10545  10565  10566     1  0.0000000  0.6694400  3
  10547  10548  10549  10552     1  0.0000000  0.6508444  3
  10547  10548  10567  10557     1  0.0000000  1.2552000  3
  10548  10547  10545  10564     1  0.0000000  0.6508444  3
  10548  10547  10554  10556     1  0.0000000  1.0460000  1
  10548  10547  10554  10556     1  0.0000000  0.6694400  3
  10548  10549  10553  10563     1  0.0000000  1.0460000  1
  10548  10549  10553  10563     1  0.0000000  0.6694400  3
  10549  10548  10547  10551     1  0.0000000  0.6508444  3
  10549  10548  10567  10557     1  0.0000000  1.2552000  3
  10550  10548  10547  10554     1  0.0000000  1.0460000  1
  10550  10548  10547  10554     1  0.0000000  0.0000000  3
  10550  10548  10547  10551     1  0.0000000  0.6508444  3
  10550  10548  10549  10553     1  0.0000000  1.0460000  1
  10550  10548  10549  10553     1  0.0000000  0.0000000  3
  10550  10548  10549  10562     1  0.0000000  1.0460000  1
  10550  10548  10549  10562     1  0.0000000  0.0000000  3
  10550  10548  10549  10552     1  0.0000000  0.6508444  3
  10550  10548  10567  10557     1  0.0000000  1.2552000  3
  10551  10547  10545  10565     1  0.0000000  1.0460000  1
  10551  10547  10545  10565     1  0.0000000  0.0000000  3
  10551  10547  10545  10564     1  0.0000000  0.6508444  3
  10551  10547  10548  10567     1  0.0000000  0.6508444  3
  10551  10547  10554  10556     1  0.0000000  0.6973333  3
  10552  10549  10548  10567     1  0.0000000  0.6508444  3
  10552  10549  10553  10563     1  0.0000000  0.6973333  3
  10554  10547  10545  10564     1  0.0000000  1.0460000  1
  10554  10547  10545  10564     1  0.0000000  0.0000000  3
  10555  10544  10545  10564     1  0.0000000  0.6508444  3
  10558  10555  10544  10562     1  0.0000000  1.0460000  1
  10558  10555  10544  10562     1  0.0000000  0.0000000  3
  10558  10555  10560  10561     1  0.0000000  0.6973333  3
  10559  10555  10544  10562     1  0.0000000  1.0460000  1
  10559  10555  10544  10562     1  0.0000000  0.0000000  3
  10559  10555  10560  10561     1  0.0000000  0.6973333  3
  10562  10544  10545  10564     1  0.0000000  1.0460000  1
  10562  10544  10545  10564     1  0.0000000  0.0000000  3
  10562  10549  10553  10563     1  0.0000000  0.6973333  3
  10564  10545  10565  10566     1  0.0000000  0.6973333  3
  10568  10569  10571  10575     1  0.0000000  0.6508444  3
  10568  10569  10589  10590     1  0.0000000  1.0460000  1
  10568  10569  10589  10590     1  0.0000000  0.6694400  3
  10568  10579  10584  10585     1  0.0000000  1.0460000  1
  10568  10579  10584  10585     1  0.0000000  0.6694400  3
  10568  10586  10573  10576     1  0.0000000  1.6038667  3
  10569  10568  10579  10582     1  0.0000000  0.6508444  3
  10569  10568  10579  10583     1  0.0000000  0.6508444  3
  10569  10571  10572  10574     1  0.0000000  0.6508444  3
  10569  10571  10578  10580     1  0.0000000  1.0460000  1
  10569  10571  10578  10580     1  0.0000000  0.6694400  3
  10570  10568  10569  10571     1  0.0000000  0.6508444  3
  10570  10568  10569  10589     1  0.0000000  1.0460000  1
  10570  10568  10569  10589     1  0.0000000  0.0000000  3
  10570  10568  10569  10588     1  0.0000000  0.6508444  3
  10570  10568  10579  10584     1  0.0000000  1.0460000  1
  10570  10568  10579  10584     1  0.0000000  0.0000000  3
  10570  10568  10579  10582     1  0.0000000  0.6508444  3
  10570  10568  10579  10583     1  0.0000000  0.6508444  3
  10570  10568  10586  10573     1  0.0000000  1.6038667  3
  10571  10569  10589  10590     1  0.0000000  1.0460000  1
  10571  10569  10589  10590     1  0.0000000  0.6694400  3
  10571  10572  10573  10576     1  0.0000000  0.6508444  3
  10571  10572  10591  10581     1  0.0000000  1.2552000  3
  10572  10571  10569  10588     1  0.0000000  0.6508444  3
  10572  10571  10578  10580     1  0.0000000  1.0460000  1
  10572  10571  10578  10580     1  0.0000000  0.6694400  3
  10572  10573  10577  10587     1  0.0000000  1.0460000  1
  10572  10573  10577  10587     1  0.0000000  0.6694400  3
  10573  10572  10571  10575     1  0.0000000  0.6508444  3
  10573  10572  10591  10581     1  0.0000000  1.2552000  3
  10574  10572  10571  10578     1  0.0000000  1.0460000  1
  10574  10572  10571  10578     1  0.0000000  0.0000000  3
  10574  10572  10571  10575     1  0.0000000  0.6508444  3
  10574  10572  10573  10577     1  0.0000000  1.0460000  1
  10574  10572  10573  10577     1  0.0000000  0.0000000  3
  10574  10572  10573  10586     1  0.0000000  1.0460000  1
  10574  10572  10573  10586     1  0.0000000  0.0000000  3
  10574  10572  10573  10576     1  0.0000000  0.6508444  3
  10574  10572  10591  10581     1  0.0000000  1.2552000  3
  10575  10571  10569  10589     1  0.0000000  1.0460000  1
  10575  10571  10569  10589     1  0.0000000  0.0000000  3
  10575  10571  10569  10588     1  0.0000000  0.6508444  3
  10575  10571  10572  10591     1  0.0000000  0.6508444  3
  10575  10571  10578  10580     1  0.0000000  0.6973333  3
  10576  10573  10572  10591     1  0.0000000  0.6508444  3
  10576  10573  10577  10587     1  0.0000000  0.6973333  3
  10578  10571  10569  10588     1  0.0000000  1.0460000  1
  10578  10571  10569  10588     1  0.0000000  0.0000000  3
  10579  10568  10569  10588     1  0.0000000  0.6508444  3
  10582  10579  10568  10586     1  0.0000000  1.0460000  1
  10582  10579  10568  10586     1  0.0000000  0.0000000  3
  10582  10579  10584  10585     1  0.0000000  0.6973333  3
  10583  10579  10568  10586     1  0.0000000  1.0460000  1
  10583  10579  10568  10586     1  0.0000000  0.0000000  3
  10583  10579  10584  10585     1  0.0000000  0.6973333  3
  10586  10568  10569  10588     1  0.0000000  1.0460000  1
  10586  10568  10569  10588     1  0.0000000  0.0000000  3
  10586  10573  10577  10587     1  0.0000000  0.6973333  3
  10588  10569  10589  10590     1  0.0000000  0.6973333  3
  10593  10595  10597  10599     1  0.0000000  0.6508444  3
  10593  10595  10597  10600     1  0.0000000  0.6508444  3
  10594  10593  10595  10597     1  0.0000000  0.0000000  2
  10594  10593  10595  10596     1  0.0000000  0.0000000  2
  10594  10593  10595  10598     1  0.0000000  0.0000000  2
  10595  10597  10601  10666     1  0.0000000  0.6508444  3
  10596  10595  10597  10601     1  0.0000000  0.6508444  3
  10596  10595  10597  10599     1  0.0000000  0.6508444  3
  10596  10595  10597  10600     1  0.0000000  0.6508444  3
  10597  10601  10602  10611     1  0.0000000  0.6508444  3
  10597  10601  10602  10612     1  0.0000000  0.6508444  3
  10597  10601  10603  10604     1  0.0000000  0.6508444  3
  10597  10601  10603  10606     1  0.0000000  0.6508444  3
  10598  10595  10597  10601     1  0.0000000  0.6508444  3
  10598  10595  10597  10599     1  0.0000000  0.6508444  3
  10598  10595  10597  10600     1  0.0000000  0.6508444  3
  10599  10597  10601  10602     1  0.0000000  0.6508444  3
  10599  10597  10601  10603     1  0.0000000  0.6508444  3
  10599  10597  10601  10666     1  0.0000000  0.6508444  3
  10600  10597  10601  10602     1  0.0000000  0.6508444  3
  10600  10597  10601  10603     1  0.0000000  0.6508444  3
  10600  10597  10601  10666     1  0.0000000  0.6508444  3
  10601  10602  10613  10614     1  0.0000000  0.6508444  3
  10601  10602  10613  10615     1  0.0000000  0.6508444  3
  10601  10603  10605  10607     1  0.0000000  0.6508444  3
  10601  10603  10605  10608     1  0.0000000  0.6508444  3
  10602  10601  10603  10604     1  0.0000000  0.6508444  3
  10602  10601  10603  10606     1  0.0000000  0.6508444  3
  10603  10601  10602  10611     1  0.0000000  0.6508444  3
  10603  10601  10602  10612     1  0.0000000  0.6508444  3
  10604  10603  10605  10609     1  0.0000000  0.6508444  3
  10604  10603  10605  10607     1  0.0000000  0.6508444  3
  10604  10603  10605  10608     1  0.0000000  0.6508444  3
  10604  10603  10601  10666     1  0.0000000  0.6508444  3
  10605  10609  10641  10631     1  180.0000771  6.0668000  2
  10605  10609  10641  10631     1  180.0000771  1.4644000  4
  10605  10603  10601  10666     1  0.0000000  0.6508444  3
  10606  10603  10605  10609     1  0.0000000  0.6508444  3
  10606  10603  10605  10607     1  0.0000000  0.6508444  3
  10606  10603  10605  10608     1  0.0000000  0.6508444  3
  10606  10603  10601  10666     1  0.0000000  0.6508444  3
  10607  10605  10609  10610     1  0.0000000  3.3472000  1
  10607  10605  10609  10610     1  0.0000000  0.0000000  2
  10607  10605  10609  10610     1  180.0000771  0.3347200  3
  10607  10605  10609  10641     1  180.0000771  0.0000000  2
  10608  10605  10609  10610     1  0.0000000  3.3472000  1
  10608  10605  10609  10610     1  0.0000000  0.0000000  2
  10608  10605  10609  10610     1  180.0000771  0.3347200  3
  10608  10605  10609  10641     1  180.0000771  0.0000000  2
  10609  10641  10622  10624     1  0.0000000  1.2552000  3
  10610  10609  10641  10631     1  180.0000771  6.0668000  2
  10610  10609  10641  10631     1  180.0000771  1.4644000  4
  10611  10602  10613  10616     1  0.0000000  0.6508444  3
  10611  10602  10613  10614     1  0.0000000  0.6508444  3
  10611  10602  10613  10615     1  0.0000000  0.6508444  3
  10611  10602  10601  10666     1  0.0000000  0.6508444  3
  10612  10602  10613  10616     1  0.0000000  0.6508444  3
  10612  10602  10613  10614     1  0.0000000  0.6508444  3
  10612  10602  10613  10615     1  0.0000000  0.6508444  3
  10612  10602  10601  10666     1  0.0000000  0.6508444  3
  10613  10616  10665  10655     1  180.0000771  6.0668000  2
  10613  10616  10665  10655     1  180.0000771  1.4644000  4
  10613  10602  10601  10666     1  0.0000000  0.6508444  3
  10614  10613  10616  10617     1  0.0000000  3.3472000  1
  10614  10613  10616  10617     1  0.0000000  0.0000000  2
  10614  10613  10616  10617     1  180.0000771  0.3347200  3
  10614  10613  10616  10665     1  180.0000771  0.0000000  2
  10615  10613  10616  10617     1  0.0000000  3.3472000  1
  10615  10613  10616  10617     1  0.0000000  0.0000000  2
  10615  10613  10616  10617     1  180.0000771  0.3347200  3
  10615  10613  10616  10665     1  180.0000771  0.0000000  2
  10616  10665  10646  10648     1  0.0000000  1.2552000  3
  10617  10616  10665  10655     1  180.0000771  6.0668000  2
  10617  10616  10665  10655     1  180.0000771  1.4644000  4
  10618  10619  10621  10625     1  0.0000000  0.6508444  3
  10618  10619  10639  10640     1  0.0000000  1.0460000  1
  10618  10619  10639  10640     1  0.0000000  0.6694400  3
  10618  10629  10634  10635     1  0.0000000  1.0460000  1
  10618  10629  10634  10635     1  0.0000000  0.6694400  3
  10618  10636  10623  10626     1  0.0000000  1.6038667  3
  10619  10621  10622  10624     1  0.0000000  0.6508444  3
  10619  10621  10628  10630     1  0.0000000  1.0460000  1
  10619  10621  10628  10630     1  0.0000000  0.6694400  3
  10619  10618  10629  10632     1  0.0000000  0.6508444  3
  10619  10618  10629  10633     1  0.0000000  0.6508444  3
  10620  10618  10619  10621     1  0.0000000  0.6508444  3
  10620  10618  10619  10639     1  0.0000000  1.0460000  1
  10620  10618  10619  10639     1  0.0000000  0.0000000  3
  10620  10618  10619  10638     1  0.0000000  0.6508444  3
  10620  10618  10629  10634     1  0.0000000  1.0460000  1
  10620  10618  10629  10634     1  0.0000000  0.0000000  3
  10620  10618  10629  10632     1  0.0000000  0.6508444  3
  10620  10618  10629  10633     1  0.0000000  0.6508444  3
  10620  10618  10636  10623     1  0.0000000  1.6038667  3
  10621  10622  10623  10626     1  0.0000000  0.6508444  3
  10621  10622  10641  10631     1  0.0000000  1.2552000  3
  10621  10619  10639  10640     1  0.0000000  1.0460000  1
  10621  10619  10639  10640     1  0.0000000  0.6694400  3
  10622  10623  10627  10637     1  0.0000000  1.0460000  1
  10622  10623  10627  10637     1  0.0000000  0.6694400  3
  10622  10621  10628  10630     1  0.0000000  1.0460000  1
  10622  10621  10628  10630     1  0.0000000  0.6694400  3
  10622  10621  10619  10638     1  0.0000000  0.6508444  3
  10623  10622  10641  10631     1  0.0000000  1.2552000  3
  10623  10622  10621  10625     1  0.0000000  0.6508444  3
  10624  10622  10623  10627     1  0.0000000  1.0460000  1
  10624  10622  10623  10627     1  0.0000000  0.0000000  3
  10624  10622  10623  10636     1  0.0000000  1.0460000  1
  10624  10622  10623  10636     1  0.0000000  0.0000000  3
  10624  10622  10623  10626     1  0.0000000  0.6508444  3
  10624  10622  10641  10631     1  0.0000000  1.2552000  3
  10624  10622  10621  10628     1  0.0000000  1.0460000  1
  10624  10622  10621  10628     1  0.0000000  0.0000000  3
  10624  10622  10621  10625     1  0.0000000  0.6508444  3
  10625  10621  10622  10641     1  0.0000000  0.6508444  3
  10625  10621  10628  10630     1  0.0000000  0.6973333  3
  10625  10621  10619  10639     1  0.0000000  1.0460000  1
  10625  10621  10619  10639     1  0.0000000  0.0000000  3
  10625  10621  10619  10638     1  0.0000000  0.6508444  3
  10626  10623  10627  10637     1  0.0000000  0.6973333  3
  10626  10623  10622  10641     1  0.0000000  0.6508444  3
  10628  10621  10619  10638     1  0.0000000  1.0460000  1
  10628  10621  10619  10638     1  0.0000000  0.0000000  3
  10629  10618  10619  10638     1  0.0000000  0.6508444  3
  10632  10629  10634  10635     1  0.0000000  0.6973333  3
  10632  10629  10618  10636     1  0.0000000  1.0460000  1
  10632  10629  10618  10636     1  0.0000000  0.0000000  3
  10633  10629  10634  10635     1  0.0000000  0.6973333  3
  10633  10629  10618  10636     1  0.0000000  1.0460000  1
  10633  10629  10618  10636     1  0.0000000  0.0000000  3
  10636  10623  10627  10637     1  0.0000000  0.6973333  3
  10636  10618  10619  10638     1  0.0000000  1.0460000  1
  10636  10618  10619  10638     1  0.0000000  0.0000000  3
  10638  10619  10639  10640     1  0.0000000  0.6973333  3
  10642  10643  10645  10649     1  0.0000000  0.6508444  3
  10642  10643  10663  10664     1  0.0000000  1.0460000  1
  10642  10643  10663  10664     1  0.0000000  0.6694400  3
  10642  10653  10658  10659     1  0.0000000  1.0460000  1
  10642  10653  10658  10659     1  0.0000000  0.6694400  3
  10642  10660  10647  10650     1  0.0000000  1.6038667  3
  10643  10645  10646  10648     1  0.0000000  0.6508444  3
  10643  10645  10652  10654     1  0.0000000  1.0460000  1
  10643  10645  10652  10654     1  0.0000000  0.6694400  3
  10643  10642  10653  10656     1  0.0000000  0.6508444  3
  10643  10642  10653  10657     1  0.0000000  0.6508444  3
  10644  10642  10643  10645     1  0.0000000  0.6508444  3
  10644  10642  10643  10663     1  0.0000000  1.0460000  1
  10644  10642  10643  10663     1  0.0000000  0.0000000  3
  10644  10642  10643  10662     1  0.0000000  0.6508444  3
  10644  10642  10653  10658     1  0.0000000  1.0460000  1
  10644  10642  10653  10658     1  0.0000000  0.0000000  3
  10644  10642  10653  10656     1  0.0000000  0.6508444  3
  10644  10642  10653  10657     1  0.0000000  0.6508444  3
  10644  10642  10660  10647     1  0.0000000  1.6038667  3
  10645  10646  10647  10650     1  0.0000000  0.6508444  3
  10645  10646  10665  10655     1  0.0000000  1.2552000  3
  10645  10643  10663  10664     1  0.0000000  1.0460000  1
  10645  10643  10663  10664     1  0.0000000  0.6694400  3
  10646  10647  10651  10661     1  0.0000000  1.0460000  1
  10646  10647  10651  10661     1  0.0000000  0.6694400  3
  10646  10645  10652  10654     1  0.0000000  1.0460000  1
  10646  10645  10652  10654     1  0.0000000  0.6694400  3
  10646  10645  10643  10662     1  0.0000000  0.6508444  3
  10647  10646  10665  10655     1  0.0000000  1.2552000  3
  10647  10646  10645  10649     1  0.0000000  0.6508444  3
  10648  10646  10647  10651     1  0.0000000  1.0460000  1
  10648  10646  10647  10651     1  0.0000000  0.0000000  3
  10648  10646  10647  10660     1  0.0000000  1.0460000  1
  10648  10646  10647  10660     1  0.0000000  0.0000000  3
  10648  10646  10647  10650     1  0.0000000  0.6508444  3
  10648  10646  10665  10655     1  0.0000000  1.2552000  3
  10648  10646  10645  10652     1  0.0000000  1.0460000  1
  10648  10646  10645  10652     1  0.0000000  0.0000000  3
  10648  10646  10645  10649     1  0.0000000  0.6508444  3
  10649  10645  10646  10665     1  0.0000000  0.6508444  3
  10649  10645  10652  10654     1  0.0000000  0.6973333  3
  10649  10645  10643  10663     1  0.0000000  1.0460000  1
  10649  10645  10643  10663     1  0.0000000  0.0000000  3
  10649  10645  10643  10662     1  0.0000000  0.6508444  3
  10650  10647  10651  10661     1  0.0000000  0.6973333  3
  10650  10647  10646  10665     1  0.0000000  0.6508444  3
  10652  10645  10643  10662     1  0.0000000  1.0460000  1
  10652  10645  10643  10662     1  0.0000000  0.0000000  3
  10653  10642  10643  10662     1  0.0000000  0.6508444  3
  10656  10653  10658  10659     1  0.0000000  0.6973333  3
  10656  10653  10642  10660     1  0.0000000  1.0460000  1
  10656  10653  10642  10660     1  0.0000000  0.0000000  3
  10657  10653  10658  10659     1  0.0000000  0.6973333  3
  10657  10653  10642  10660     1  0.0000000  1.0460000  1
  10657  10653  10642  10660     1  0.0000000  0.0000000  3
  10660  10647  10651  10661     1  0.0000000  0.6973333  3
  10660  10642  10643  10662     1  0.0000000  1.0460000  1
  10660  10642  10643  10662     1  0.0000000  0.0000000  3
  10662  10643  10663  10664     1  0.0000000  0.6973333  3
  10667  10669  10671  10673     1  0.0000000  0.6508444  3
  10667  10669  10671  10674     1  0.0000000  0.6508444  3
  10668  10667  10669  10671     1  0.0000000  0.0000000  2
  10668  10667  10669  10670     1  0.0000000  0.0000000  2
  10668  10667  10669  10672     1  0.0000000  0.0000000  2
  10669  10671  10675  10740     1  0.0000000  0.6508444  3
  10670  10669  10671  10675     1  0.0000000  0.6508444  3
  10670  10669  10671  10673     1  0.0000000  0.6508444  3
  10670  10669  10671  10674     1  0.0000000  0.6508444  3
  10671  10675  10676  10685     1  0.0000000  0.6508444  3
  10671  10675  10676  10686     1  0.0000000  0.6508444  3
  10671  10675  10677  10678     1  0.0000000  0.6508444  3
  10671  10675  10677  10680     1  0.0000000  0.6508444  3
  10672  10669  10671  10675     1  0.0000000  0.6508444  3
  10672  10669  10671  10673     1  0.0000000  0.6508444  3
  10672  10669  10671  10674     1  0.0000000  0.6508444  3
  10673  10671  10675  10676     1  0.0000000  0.6508444  3
  10673  10671  10675  10677     1  0.0000000  0.6508444  3
  10673  10671  10675  10740     1  0.0000000  0.6508444  3
  10674  10671  10675  10676     1  0.0000000  0.6508444  3
  10674  10671  10675  10677     1  0.0000000  0.6508444  3
  10674  10671  10675  10740     1  0.0000000  0.6508444  3
  10675  10676  10687  10688     1  0.0000000  0.6508444  3
  10675  10676  10687  10689     1  0.0000000  0.6508444  3
  10675  10677  10679  10681     1  0.0000000  0.6508444  3
  10675  10677  10679  10682     1  0.0000000  0.6508444  3
  10676  10675  10677  10678     1  0.0000000  0.6508444  3
  10676  10675  10677  10680     1  0.0000000  0.6508444  3
  10677  10675  10676  10685     1  0.0000000  0.6508444  3
  10677  10675  10676  10686     1  0.0000000  0.6508444  3
  10678  10677  10675  10740     1  0.0000000  0.6508444  3
  10678  10677  10679  10683     1  0.0000000  0.6508444  3
  10678  10677  10679  10681     1  0.0000000  0.6508444  3
  10678  10677  10679  10682     1  0.0000000  0.6508444  3
  10679  10677  10675  10740     1  0.0000000  0.6508444  3
  10679  10683  10715  10705     1  180.0000771  6.0668000  2
  10679  10683  10715  10705     1  180.0000771  1.4644000  4
  10680  10677  10675  10740     1  0.0000000  0.6508444  3
  10680  10677  10679  10683     1  0.0000000  0.6508444  3
  10680  10677  10679  10681     1  0.0000000  0.6508444  3
  10680  10677  10679  10682     1  0.0000000  0.6508444  3
  10681  10679  10683  10684     1  0.0000000  3.3472000  1
  10681  10679  10683  10684     1  0.0000000  0.0000000  2
  10681  10679  10683  10684     1  180.0000771  0.3347200  3
  10681  10679  10683  10715     1  180.0000771  0.0000000  2
  10682  10679  10683  10684     1  0.0000000  3.3472000  1
  10682  10679  10683  10684     1  0.0000000  0.0000000  2
  10682  10679  10683  10684     1  180.0000771  0.3347200  3
  10682  10679  10683  10715     1  180.0000771  0.0000000  2
  10683  10715  10696  10698     1  0.0000000  1.2552000  3
  10684  10683  10715  10705     1  180.0000771  6.0668000  2
  10684  10683  10715  10705     1  180.0000771  1.4644000  4
  10685  10676  10675  10740     1  0.0000000  0.6508444  3
  10685  10676  10687  10690     1  0.0000000  0.6508444  3
  10685  10676  10687  10688     1  0.0000000  0.6508444  3
  10685  10676  10687  10689     1  0.0000000  0.6508444  3
  10686  10676  10675  10740     1  0.0000000  0.6508444  3
  10686  10676  10687  10690     1  0.0000000  0.6508444  3
  10686  10676  10687  10688     1  0.0000000  0.6508444  3
  10686  10676  10687  10689     1  0.0000000  0.6508444  3
  10687  10676  10675  10740     1  0.0000000  0.6508444  3
  10687  10690  10739  10729     1  180.0000771  6.0668000  2
  10687  10690  10739  10729     1  180.0000771  1.4644000  4
  10688  10687  10690  10691     1  0.0000000  3.3472000  1
  10688  10687  10690  10691     1  0.0000000  0.0000000  2
  10688  10687  10690  10691     1  180.0000771  0.3347200  3
  10688  10687  10690  10739     1  180.0000771  0.0000000  2
  10689  10687  10690  10691     1  0.0000000  3.3472000  1
  10689  10687  10690  10691     1  0.0000000  0.0000000  2
  10689  10687  10690  10691     1  180.0000771  0.3347200  3
  10689  10687  10690  10739     1  180.0000771  0.0000000  2
  10690  10739  10720  10722     1  0.0000000  1.2552000  3
  10691  10690  10739  10729     1  180.0000771  6.0668000  2
  10691  10690  10739  10729     1  180.0000771  1.4644000  4
  10692  10693  10695  10699     1  0.0000000  0.6508444  3
  10692  10693  10713  10714     1  0.0000000  1.0460000  1
  10692  10693  10713  10714     1  0.0000000  0.6694400  3
  10692  10703  10708  10709     1  0.0000000  1.0460000  1
  10692  10703  10708  10709     1  0.0000000  0.6694400  3
  10692  10710  10697  10700     1  0.0000000  1.6038667  3
  10693  10692  10703  10706     1  0.0000000  0.6508444  3
  10693  10692  10703  10707     1  0.0000000  0.6508444  3
  10693  10695  10696  10698     1  0.0000000  0.6508444  3
  10693  10695  10702  10704     1  0.0000000  1.0460000  1
  10693  10695  10702  10704     1  0.0000000  0.6694400  3
  10694  10692  10693  10695     1  0.0000000  0.6508444  3
  10694  10692  10693  10713     1  0.0000000  1.0460000  1
  10694  10692  10693  10713     1  0.0000000  0.0000000  3
  10694  10692  10693  10712     1  0.0000000  0.6508444  3
  10694  10692  10703  10708     1  0.0000000  1.0460000  1
  10694  10692  10703  10708     1  0.0000000  0.0000000  3
  10694  10692  10703  10706     1  0.0000000  0.6508444  3
  10694  10692  10703  10707     1  0.0000000  0.6508444  3
  10694  10692  10710  10697     1  0.0000000  1.6038667  3
  10695  10693  10713  10714     1  0.0000000  1.0460000  1
  10695  10693  10713  10714     1  0.0000000  0.6694400  3
  10695  10696  10697  10700     1  0.0000000  0.6508444  3
  10695  10696  10715  10705     1  0.0000000  1.2552000  3
  10696  10695  10693  10712     1  0.0000000  0.6508444  3
  10696  10695  10702  10704     1  0.0000000  1.0460000  1
  10696  10695  10702  10704     1  0.0000000  0.6694400  3
  10696  10697  10701  10711     1  0.0000000  1.0460000  1
  10696  10697  10701  10711     1  0.0000000  0.6694400  3
  10697  10696  10695  10699     1  0.0000000  0.6508444  3
  10697  10696  10715  10705     1  0.0000000  1.2552000  3
  10698  10696  10695  10702     1  0.0000000  1.0460000  1
  10698  10696  10695  10702     1  0.0000000  0.0000000  3
  10698  10696  10695  10699     1  0.0000000  0.6508444  3
  10698  10696  10697  10701     1  0.0000000  1.0460000  1
  10698  10696  10697  10701     1  0.0000000  0.0000000  3
  10698  10696  10697  10710     1  0.0000000  1.0460000  1
  10698  10696  10697  10710     1  0.0000000  0.0000000  3
  10698  10696  10697  10700     1  0.0000000  0.6508444  3
  10698  10696  10715  10705     1  0.0000000  1.2552000  3
  10699  10695  10693  10713     1  0.0000000  1.0460000  1
  10699  10695  10693  10713     1  0.0000000  0.0000000  3
  10699  10695  10693  10712     1  0.0000000  0.6508444  3
  10699  10695  10696  10715     1  0.0000000  0.6508444  3
  10699  10695  10702  10704     1  0.0000000  0.6973333  3
  10700  10697  10696  10715     1  0.0000000  0.6508444  3
  10700  10697  10701  10711     1  0.0000000  0.6973333  3
  10702  10695  10693  10712     1  0.0000000  1.0460000  1
  10702  10695  10693  10712     1  0.0000000  0.0000000  3
  10703  10692  10693  10712     1  0.0000000  0.6508444  3
  10706  10703  10692  10710     1  0.0000000  1.0460000  1
  10706  10703  10692  10710     1  0.0000000  0.0000000  3
  10706  10703  10708  10709     1  0.0000000  0.6973333  3
  10707  10703  10692  10710     1  0.0000000  1.0460000  1
  10707  10703  10692  10710     1  0.0000000  0.0000000  3
  10707  10703  10708  10709     1  0.0000000  0.6973333  3
  10710  10692  10693  10712     1  0.0000000  1.0460000  1
  10710  10692  10693  10712     1  0.0000000  0.0000000  3
  10710  10697  10701  10711     1  0.0000000  0.6973333  3
  10712  10693  10713  10714     1  0.0000000  0.6973333  3
  10716  10717  10719  10723     1  0.0000000  0.6508444  3
  10716  10717  10737  10738     1  0.0000000  1.0460000  1
  10716  10717  10737  10738     1  0.0000000  0.6694400  3
  10716  10727  10732  10733     1  0.0000000  1.0460000  1
  10716  10727  10732  10733     1  0.0000000  0.6694400  3
  10716  10734  10721  10724     1  0.0000000  1.6038667  3
  10717  10716  10727  10730     1  0.0000000  0.6508444  3
  10717  10716  10727  10731     1  0.0000000  0.6508444  3
  10717  10719  10720  10722     1  0.0000000  0.6508444  3
  10717  10719  10726  10728     1  0.0000000  1.0460000  1
  10717  10719  10726  10728     1  0.0000000  0.6694400  3
  10718  10716  10717  10719     1  0.0000000  0.6508444  3
  10718  10716  10717  10737     1  0.0000000  1.0460000  1
  10718  10716  10717  10737     1  0.0000000  0.0000000  3
  10718  10716  10717  10736     1  0.0000000  0.6508444  3
  10718  10716  10727  10732     1  0.0000000  1.0460000  1
  10718  10716  10727  10732     1  0.0000000  0.0000000  3
  10718  10716  10727  10730     1  0.0000000  0.6508444  3
  10718  10716  10727  10731     1  0.0000000  0.6508444  3
  10718  10716  10734  10721     1  0.0000000  1.6038667  3
  10719  10717  10737  10738     1  0.0000000  1.0460000  1
  10719  10717  10737  10738     1  0.0000000  0.6694400  3
  10719  10720  10721  10724     1  0.0000000  0.6508444  3
  10719  10720  10739  10729     1  0.0000000  1.2552000  3
  10720  10719  10717  10736     1  0.0000000  0.6508444  3
  10720  10719  10726  10728     1  0.0000000  1.0460000  1
  10720  10719  10726  10728     1  0.0000000  0.6694400  3
  10720  10721  10725  10735     1  0.0000000  1.0460000  1
  10720  10721  10725  10735     1  0.0000000  0.6694400  3
  10721  10720  10719  10723     1  0.0000000  0.6508444  3
  10721  10720  10739  10729     1  0.0000000  1.2552000  3
  10722  10720  10719  10726     1  0.0000000  1.0460000  1
  10722  10720  10719  10726     1  0.0000000  0.0000000  3
  10722  10720  10719  10723     1  0.0000000  0.6508444  3
  10722  10720  10721  10725     1  0.0000000  1.0460000  1
  10722  10720  10721  10725     1  0.0000000  0.0000000  3
  10722  10720  10721  10734     1  0.0000000  1.0460000  1
  10722  10720  10721  10734     1  0.0000000  0.0000000  3
  10722  10720  10721  10724     1  0.0000000  0.6508444  3
  10722  10720  10739  10729     1  0.0000000  1.2552000  3
  10723  10719  10717  10737     1  0.0000000  1.0460000  1
  10723  10719  10717  10737     1  0.0000000  0.0000000  3
  10723  10719  10717  10736     1  0.0000000  0.6508444  3
  10723  10719  10720  10739     1  0.0000000  0.6508444  3
  10723  10719  10726  10728     1  0.0000000  0.6973333  3
  10724  10721  10720  10739     1  0.0000000  0.6508444  3
  10724  10721  10725  10735     1  0.0000000  0.6973333  3
  10726  10719  10717  10736     1  0.0000000  1.0460000  1
  10726  10719  10717  10736     1  0.0000000  0.0000000  3
  10727  10716  10717  10736     1  0.0000000  0.6508444  3
  10730  10727  10716  10734     1  0.0000000  1.0460000  1
  10730  10727  10716  10734     1  0.0000000  0.0000000  3
  10730  10727  10732  10733     1  0.0000000  0.6973333  3
  10731  10727  10716  10734     1  0.0000000  1.0460000  1
  10731  10727  10716  10734     1  0.0000000  0.0000000  3
  10731  10727  10732  10733     1  0.0000000  0.6973333  3
  10734  10716  10717  10736     1  0.0000000  1.0460000  1
  10734  10716  10717  10736     1  0.0000000  0.0000000  3
  10734  10721  10725  10735     1  0.0000000  0.6973333  3
  10736  10717  10737  10738     1  0.0000000  0.6973333  3
  10741  10743  10745  10747     1  0.0000000  0.6508444  3
  10741  10743  10745  10748     1  0.0000000  0.6508444  3
  10742  10741  10743  10745     1  0.0000000  0.0000000  2
  10742  10741  10743  10744     1  0.0000000  0.0000000  2
  10742  10741  10743  10746     1  0.0000000  0.0000000  2
  10743  10745  10749  10814     1  0.0000000  0.6508444  3
  10744  10743  10745  10749     1  0.0000000  0.6508444  3
  10744  10743  10745  10747     1  0.0000000  0.6508444  3
  10744  10743  10745  10748     1  0.0000000  0.6508444  3
  10745  10749  10750  10759     1  0.0000000  0.6508444  3
  10745  10749  10750  10760     1  0.0000000  0.6508444  3
  10745  10749  10751  10752     1  0.0000000  0.6508444  3
  10745  10749  10751  10754     1  0.0000000  0.6508444  3
  10746  10743  10745  10749     1  0.0000000  0.6508444  3
  10746  10743  10745  10747     1  0.0000000  0.6508444  3
  10746  10743  10745  10748     1  0.0000000  0.6508444  3
  10747  10745  10749  10750     1  0.0000000  0.6508444  3
  10747  10745  10749  10751     1  0.0000000  0.6508444  3
  10747  10745  10749  10814     1  0.0000000  0.6508444  3
  10748  10745  10749  10750     1  0.0000000  0.6508444  3
  10748  10745  10749  10751     1  0.0000000  0.6508444  3
  10748  10745  10749  10814     1  0.0000000  0.6508444  3
  10749  10750  10761  10762     1  0.0000000  0.6508444  3
  10749  10750  10761  10763     1  0.0000000  0.6508444  3
  10749  10751  10753  10755     1  0.0000000  0.6508444  3
  10749  10751  10753  10756     1  0.0000000  0.6508444  3
  10750  10749  10751  10752     1  0.0000000  0.6508444  3
  10750  10749  10751  10754     1  0.0000000  0.6508444  3
  10751  10749  10750  10759     1  0.0000000  0.6508444  3
  10751  10749  10750  10760     1  0.0000000  0.6508444  3
  10752  10751  10753  10757     1  0.0000000  0.6508444  3
  10752  10751  10753  10755     1  0.0000000  0.6508444  3
  10752  10751  10753  10756     1  0.0000000  0.6508444  3
  10752  10751  10749  10814     1  0.0000000  0.6508444  3
  10753  10757  10789  10779     1  180.0000771  6.0668000  2
  10753  10757  10789  10779     1  180.0000771  1.4644000  4
  10753  10751  10749  10814     1  0.0000000  0.6508444  3
  10754  10751  10753  10757     1  0.0000000  0.6508444  3
  10754  10751  10753  10755     1  0.0000000  0.6508444  3
  10754  10751  10753  10756     1  0.0000000  0.6508444  3
  10754  10751  10749  10814     1  0.0000000  0.6508444  3
  10755  10753  10757  10758     1  0.0000000  3.3472000  1
  10755  10753  10757  10758     1  0.0000000  0.0000000  2
  10755  10753  10757  10758     1  180.0000771  0.3347200  3
  10755  10753  10757  10789     1  180.0000771  0.0000000  2
  10756  10753  10757  10758     1  0.0000000  3.3472000  1
  10756  10753  10757  10758     1  0.0000000  0.0000000  2
  10756  10753  10757  10758     1  180.0000771  0.3347200  3
  10756  10753  10757  10789     1  180.0000771  0.0000000  2
  10757  10789  10770  10772     1  0.0000000  1.2552000  3
  10758  10757  10789  10779     1  180.0000771  6.0668000  2
  10758  10757  10789  10779     1  180.0000771  1.4644000  4
  10759  10750  10761  10764     1  0.0000000  0.6508444  3
  10759  10750  10761  10762     1  0.0000000  0.6508444  3
  10759  10750  10761  10763     1  0.0000000  0.6508444  3
  10759  10750  10749  10814     1  0.0000000  0.6508444  3
  10760  10750  10761  10764     1  0.0000000  0.6508444  3
  10760  10750  10761  10762     1  0.0000000  0.6508444  3
  10760  10750  10761  10763     1  0.0000000  0.6508444  3
  10760  10750  10749  10814     1  0.0000000  0.6508444  3
  10761  10764  10813  10803     1  180.0000771  6.0668000  2
  10761  10764  10813  10803     1  180.0000771  1.4644000  4
  10761  10750  10749  10814     1  0.0000000  0.6508444  3
  10762  10761  10764  10765     1  0.0000000  3.3472000  1
  10762  10761  10764  10765     1  0.0000000  0.0000000  2
  10762  10761  10764  10765     1  180.0000771  0.3347200  3
  10762  10761  10764  10813     1  180.0000771  0.0000000  2
  10763  10761  10764  10765     1  0.0000000  3.3472000  1
  10763  10761  10764  10765     1  0.0000000  0.0000000  2
  10763  10761  10764  10765     1  180.0000771  0.3347200  3
  10763  10761  10764  10813     1  180.0000771  0.0000000  2
  10764  10813  10794  10796     1  0.0000000  1.2552000  3
  10765  10764  10813  10803     1  180.0000771  6.0668000  2
  10765  10764  10813  10803     1  180.0000771  1.4644000  4
  10766  10767  10769  10773     1  0.0000000  0.6508444  3
  10766  10767  10787  10788     1  0.0000000  1.0460000  1
  10766  10767  10787  10788     1  0.0000000  0.6694400  3
  10766  10777  10782  10783     1  0.0000000  1.0460000  1
  10766  10777  10782  10783     1  0.0000000  0.6694400  3
  10766  10784  10771  10774     1  0.0000000  1.6038667  3
  10767  10769  10770  10772     1  0.0000000  0.6508444  3
  10767  10769  10776  10778     1  0.0000000  1.0460000  1
  10767  10769  10776  10778     1  0.0000000  0.6694400  3
  10767  10766  10777  10780     1  0.0000000  0.6508444  3
  10767  10766  10777  10781     1  0.0000000  0.6508444  3
  10768  10766  10767  10769     1  0.0000000  0.6508444  3
  10768  10766  10767  10787     1  0.0000000  1.0460000  1
  10768  10766  10767  10787     1  0.0000000  0.0000000  3
  10768  10766  10767  10786     1  0.0000000  0.6508444  3
  10768  10766  10777  10782     1  0.0000000  1.0460000  1
  10768  10766  10777  10782     1  0.0000000  0.0000000  3
  10768  10766  10777  10780     1  0.0000000  0.6508444  3
  10768  10766  10777  10781     1  0.0000000  0.6508444  3
  10768  10766  10784  10771     1  0.0000000  1.6038667  3
  10769  10770  10771  10774     1  0.0000000  0.6508444  3
  10769  10770  10789  10779     1  0.0000000  1.2552000  3
  10769  10767  10787  10788     1  0.0000000  1.0460000  1
  10769  10767  10787  10788     1  0.0000000  0.6694400  3
  10770  10771  10775  10785     1  0.0000000  1.0460000  1
  10770  10771  10775  10785     1  0.0000000  0.6694400  3
  10770  10769  10776  10778     1  0.0000000  1.0460000  1
  10770  10769  10776  10778     1  0.0000000  0.6694400  3
  10770  10769  10767  10786     1  0.0000000  0.6508444  3
  10771  10770  10789  10779     1  0.0000000  1.2552000  3
  10771  10770  10769  10773     1  0.0000000  0.6508444  3
  10772  10770  10771  10775     1  0.0000000  1.0460000  1
  10772  10770  10771  10775     1  0.0000000  0.0000000  3
  10772  10770  10771  10784     1  0.0000000  1.0460000  1
  10772  10770  10771  10784     1  0.0000000  0.0000000  3
  10772  10770  10771  10774     1  0.0000000  0.6508444  3
  10772  10770  10789  10779     1  0.0000000  1.2552000  3
  10772  10770  10769  10776     1  0.0000000  1.0460000  1
  10772  10770  10769  10776     1  0.0000000  0.0000000  3
  10772  10770  10769  10773     1  0.0000000  0.6508444  3
  10773  10769  10770  10789     1  0.0000000  0.6508444  3
  10773  10769  10776  10778     1  0.0000000  0.6973333  3
  10773  10769  10767  10787     1  0.0000000  1.0460000  1
  10773  10769  10767  10787     1  0.0000000  0.0000000  3
  10773  10769  10767  10786     1  0.0000000  0.6508444  3
  10774  10771  10775  10785     1  0.0000000  0.6973333  3
  10774  10771  10770  10789     1  0.0000000  0.6508444  3
  10776  10769  10767  10786     1  0.0000000  1.0460000  1
  10776  10769  10767  10786     1  0.0000000  0.0000000  3
  10777  10766  10767  10786     1  0.0000000  0.6508444  3
  10780  10777  10782  10783     1  0.0000000  0.6973333  3
  10780  10777  10766  10784     1  0.0000000  1.0460000  1
  10780  10777  10766  10784     1  0.0000000  0.0000000  3
  10781  10777  10782  10783     1  0.0000000  0.6973333  3
  10781  10777  10766  10784     1  0.0000000  1.0460000  1
  10781  10777  10766  10784     1  0.0000000  0.0000000  3
  10784  10771  10775  10785     1  0.0000000  0.6973333  3
  10784  10766  10767  10786     1  0.0000000  1.0460000  1
  10784  10766  10767  10786     1  0.0000000  0.0000000  3
  10786  10767  10787  10788     1  0.0000000  0.6973333  3
  10790  10791  10793  10797     1  0.0000000  0.6508444  3
  10790  10791  10811  10812     1  0.0000000  1.0460000  1
  10790  10791  10811  10812     1  0.0000000  0.6694400  3
  10790  10801  10806  10807     1  0.0000000  1.0460000  1
  10790  10801  10806  10807     1  0.0000000  0.6694400  3
  10790  10808  10795  10798     1  0.0000000  1.6038667  3
  10791  10793  10794  10796     1  0.0000000  0.6508444  3
  10791  10793  10800  10802     1  0.0000000  1.0460000  1
  10791  10793  10800  10802     1  0.0000000  0.6694400  3
  10791  10790  10801  10804     1  0.0000000  0.6508444  3
  10791  10790  10801  10805     1  0.0000000  0.6508444  3
  10792  10790  10791  10793     1  0.0000000  0.6508444  3
  10792  10790  10791  10811     1  0.0000000  1.0460000  1
  10792  10790  10791  10811     1  0.0000000  0.0000000  3
  10792  10790  10791  10810     1  0.0000000  0.6508444  3
  10792  10790  10801  10806     1  0.0000000  1.0460000  1
  10792  10790  10801  10806     1  0.0000000  0.0000000  3
  10792  10790  10801  10804     1  0.0000000  0.6508444  3
  10792  10790  10801  10805     1  0.0000000  0.6508444  3
  10792  10790  10808  10795     1  0.0000000  1.6038667  3
  10793  10794  10795  10798     1  0.0000000  0.6508444  3
  10793  10794  10813  10803     1  0.0000000  1.2552000  3
  10793  10791  10811  10812     1  0.0000000  1.0460000  1
  10793  10791  10811  10812     1  0.0000000  0.6694400  3
  10794  10795  10799  10809     1  0.0000000  1.0460000  1
  10794  10795  10799  10809     1  0.0000000  0.6694400  3
  10794  10793  10800  10802     1  0.0000000  1.0460000  1
  10794  10793  10800  10802     1  0.0000000  0.6694400  3
  10794  10793  10791  10810     1  0.0000000  0.6508444  3
  10795  10794  10813  10803     1  0.0000000  1.2552000  3
  10795  10794  10793  10797     1  0.0000000  0.6508444  3
  10796  10794  10795  10799     1  0.0000000  1.0460000  1
  10796  10794  10795  10799     1  0.0000000  0.0000000  3
  10796  10794  10795  10808     1  0.0000000  1.0460000  1
  10796  10794  10795  10808     1  0.0000000  0.0000000  3
  10796  10794  10795  10798     1  0.0000000  0.6508444  3
  10796  10794  10813  10803     1  0.0000000  1.2552000  3
  10796  10794  10793  10800     1  0.0000000  1.0460000  1
  10796  10794  10793  10800     1  0.0000000  0.0000000  3
  10796  10794  10793  10797     1  0.0000000  0.6508444  3
  10797  10793  10794  10813     1  0.0000000  0.6508444  3
  10797  10793  10800  10802     1  0.0000000  0.6973333  3
  10797  10793  10791  10811     1  0.0000000  1.0460000  1
  10797  10793  10791  10811     1  0.0000000  0.0000000  3
  10797  10793  10791  10810     1  0.0000000  0.6508444  3
  10798  10795  10799  10809     1  0.0000000  0.6973333  3
  10798  10795  10794  10813     1  0.0000000  0.6508444  3
  10800  10793  10791  10810     1  0.0000000  1.0460000  1
  10800  10793  10791  10810     1  0.0000000  0.0000000  3
  10801  10790  10791  10810     1  0.0000000  0.6508444  3
  10804  10801  10806  10807     1  0.0000000  0.6973333  3
  10804  10801  10790  10808     1  0.0000000  1.0460000  1
  10804  10801  10790  10808     1  0.0000000  0.0000000  3
  10805  10801  10806  10807     1  0.0000000  0.6973333  3
  10805  10801  10790  10808     1  0.0000000  1.0460000  1
  10805  10801  10790  10808     1  0.0000000  0.0000000  3
  10808  10795  10799  10809     1  0.0000000  0.6973333  3
  10808  10790  10791  10810     1  0.0000000  1.0460000  1
  10808  10790  10791  10810     1  0.0000000  0.0000000  3
  10810  10791  10811  10812     1  0.0000000  0.6973333  3
  10815  10817  10819  10821     1  0.0000000  0.6508444  3
  10815  10817  10819  10822     1  0.0000000  0.6508444  3
  10816  10815  10817  10819     1  0.0000000  0.0000000  2
  10816  10815  10817  10818     1  0.0000000  0.0000000  2
  10816  10815  10817  10820     1  0.0000000  0.0000000  2
  10817  10819  10823  10888     1  0.0000000  0.6508444  3
  10818  10817  10819  10823     1  0.0000000  0.6508444  3
  10818  10817  10819  10821     1  0.0000000  0.6508444  3
  10818  10817  10819  10822     1  0.0000000  0.6508444  3
  10819  10823  10824  10833     1  0.0000000  0.6508444  3
  10819  10823  10824  10834     1  0.0000000  0.6508444  3
  10819  10823  10825  10826     1  0.0000000  0.6508444  3
  10819  10823  10825  10828     1  0.0000000  0.6508444  3
  10820  10817  10819  10823     1  0.0000000  0.6508444  3
  10820  10817  10819  10821     1  0.0000000  0.6508444  3
  10820  10817  10819  10822     1  0.0000000  0.6508444  3
  10821  10819  10823  10824     1  0.0000000  0.6508444  3
  10821  10819  10823  10825     1  0.0000000  0.6508444  3
  10821  10819  10823  10888     1  0.0000000  0.6508444  3
  10822  10819  10823  10824     1  0.0000000  0.6508444  3
  10822  10819  10823  10825     1  0.0000000  0.6508444  3
  10822  10819  10823  10888     1  0.0000000  0.6508444  3
  10823  10824  10835  10836     1  0.0000000  0.6508444  3
  10823  10824  10835  10837     1  0.0000000  0.6508444  3
  10823  10825  10827  10829     1  0.0000000  0.6508444  3
  10823  10825  10827  10830     1  0.0000000  0.6508444  3
  10824  10823  10825  10826     1  0.0000000  0.6508444  3
  10824  10823  10825  10828     1  0.0000000  0.6508444  3
  10825  10823  10824  10833     1  0.0000000  0.6508444  3
  10825  10823  10824  10834     1  0.0000000  0.6508444  3
  10826  10825  10823  10888     1  0.0000000  0.6508444  3
  10826  10825  10827  10831     1  0.0000000  0.6508444  3
  10826  10825  10827  10829     1  0.0000000  0.6508444  3
  10826  10825  10827  10830     1  0.0000000  0.6508444  3
  10827  10825  10823  10888     1  0.0000000  0.6508444  3
  10827  10831  10863  10853     1  180.0000771  6.0668000  2
  10827  10831  10863  10853     1  180.0000771  1.4644000  4
  10828  10825  10823  10888     1  0.0000000  0.6508444  3
  10828  10825  10827  10831     1  0.0000000  0.6508444  3
  10828  10825  10827  10829     1  0.0000000  0.6508444  3
  10828  10825  10827  10830     1  0.0000000  0.6508444  3
  10829  10827  10831  10832     1  0.0000000  3.3472000  1
  10829  10827  10831  10832     1  0.0000000  0.0000000  2
  10829  10827  10831  10832     1  180.0000771  0.3347200  3
  10829  10827  10831  10863     1  180.0000771  0.0000000  2
  10830  10827  10831  10832     1  0.0000000  3.3472000  1
  10830  10827  10831  10832     1  0.0000000  0.0000000  2
  10830  10827  10831  10832     1  180.0000771  0.3347200  3
  10830  10827  10831  10863     1  180.0000771  0.0000000  2
  10831  10863  10844  10846     1  0.0000000  1.2552000  3
  10832  10831  10863  10853     1  180.0000771  6.0668000  2
  10832  10831  10863  10853     1  180.0000771  1.4644000  4
  10833  10824  10823  10888     1  0.0000000  0.6508444  3
  10833  10824  10835  10838     1  0.0000000  0.6508444  3
  10833  10824  10835  10836     1  0.0000000  0.6508444  3
  10833  10824  10835  10837     1  0.0000000  0.6508444  3
  10834  10824  10823  10888     1  0.0000000  0.6508444  3
  10834  10824  10835  10838     1  0.0000000  0.6508444  3
  10834  10824  10835  10836     1  0.0000000  0.6508444  3
  10834  10824  10835  10837     1  0.0000000  0.6508444  3
  10835  10824  10823  10888     1  0.0000000  0.6508444  3
  10835  10838  10887  10877     1  180.0000771  6.0668000  2
  10835  10838  10887  10877     1  180.0000771  1.4644000  4
  10836  10835  10838  10839     1  0.0000000  3.3472000  1
  10836  10835  10838  10839     1  0.0000000  0.0000000  2
  10836  10835  10838  10839     1  180.0000771  0.3347200  3
  10836  10835  10838  10887     1  180.0000771  0.0000000  2
  10837  10835  10838  10839     1  0.0000000  3.3472000  1
  10837  10835  10838  10839     1  0.0000000  0.0000000  2
  10837  10835  10838  10839     1  180.0000771  0.3347200  3
  10837  10835  10838  10887     1  180.0000771  0.0000000  2
  10838  10887  10868  10870     1  0.0000000  1.2552000  3
  10839  10838  10887  10877     1  180.0000771  6.0668000  2
  10839  10838  10887  10877     1  180.0000771  1.4644000  4
  10840  10841  10843  10847     1  0.0000000  0.6508444  3
  10840  10841  10861  10862     1  0.0000000  1.0460000  1
  10840  10841  10861  10862     1  0.0000000  0.6694400  3
  10840  10851  10856  10857     1  0.0000000  1.0460000  1
  10840  10851  10856  10857     1  0.0000000  0.6694400  3
  10840  10858  10845  10848     1  0.0000000  1.6038667  3
  10841  10840  10851  10854     1  0.0000000  0.6508444  3
  10841  10840  10851  10855     1  0.0000000  0.6508444  3
  10841  10843  10844  10846     1  0.0000000  0.6508444  3
  10841  10843  10850  10852     1  0.0000000  1.0460000  1
  10841  10843  10850  10852     1  0.0000000  0.6694400  3
  10842  10840  10841  10843     1  0.0000000  0.6508444  3
  10842  10840  10841  10861     1  0.0000000  1.0460000  1
  10842  10840  10841  10861     1  0.0000000  0.0000000  3
  10842  10840  10841  10860     1  0.0000000  0.6508444  3
  10842  10840  10851  10856     1  0.0000000  1.0460000  1
  10842  10840  10851  10856     1  0.0000000  0.0000000  3
  10842  10840  10851  10854     1  0.0000000  0.6508444  3
  10842  10840  10851  10855     1  0.0000000  0.6508444  3
  10842  10840  10858  10845     1  0.0000000  1.6038667  3
  10843  10841  10861  10862     1  0.0000000  1.0460000  1
  10843  10841  10861  10862     1  0.0000000  0.6694400  3
  10843  10844  10845  10848     1  0.0000000  0.6508444  3
  10843  10844  10863  10853     1  0.0000000  1.2552000  3
  10844  10843  10841  10860     1  0.0000000  0.6508444  3
  10844  10843  10850  10852     1  0.0000000  1.0460000  1
  10844  10843  10850  10852     1  0.0000000  0.6694400  3
  10844  10845  10849  10859     1  0.0000000  1.0460000  1
  10844  10845  10849  10859     1  0.0000000  0.6694400  3
  10845  10844  10843  10847     1  0.0000000  0.6508444  3
  10845  10844  10863  10853     1  0.0000000  1.2552000  3
  10846  10844  10843  10850     1  0.0000000  1.0460000  1
  10846  10844  10843  10850     1  0.0000000  0.0000000  3
  10846  10844  10843  10847     1  0.0000000  0.6508444  3
  10846  10844  10845  10849     1  0.0000000  1.0460000  1
  10846  10844  10845  10849     1  0.0000000  0.0000000  3
  10846  10844  10845  10858     1  0.0000000  1.0460000  1
  10846  10844  10845  10858     1  0.0000000  0.0000000  3
  10846  10844  10845  10848     1  0.0000000  0.6508444  3
  10846  10844  10863  10853     1  0.0000000  1.2552000  3
  10847  10843  10841  10861     1  0.0000000  1.0460000  1
  10847  10843  10841  10861     1  0.0000000  0.0000000  3
  10847  10843  10841  10860     1  0.0000000  0.6508444  3
  10847  10843  10844  10863     1  0.0000000  0.6508444  3
  10847  10843  10850  10852     1  0.0000000  0.6973333  3
  10848  10845  10844  10863     1  0.0000000  0.6508444  3
  10848  10845  10849  10859     1  0.0000000  0.6973333  3
  10850  10843  10841  10860     1  0.0000000  1.0460000  1
  10850  10843  10841  10860     1  0.0000000  0.0000000  3
  10851  10840  10841  10860     1  0.0000000  0.6508444  3
  10854  10851  10840  10858     1  0.0000000  1.0460000  1
  10854  10851  10840  10858     1  0.0000000  0.0000000  3
  10854  10851  10856  10857     1  0.0000000  0.6973333  3
  10855  10851  10840  10858     1  0.0000000  1.0460000  1
  10855  10851  10840  10858     1  0.0000000  0.0000000  3
  10855  10851  10856  10857     1  0.0000000  0.6973333  3
  10858  10840  10841  10860     1  0.0000000  1.0460000  1
  10858  10840  10841  10860     1  0.0000000  0.0000000  3
  10858  10845  10849  10859     1  0.0000000  0.6973333  3
  10860  10841  10861  10862     1  0.0000000  0.6973333  3
  10864  10865  10867  10871     1  0.0000000  0.6508444  3
  10864  10865  10885  10886     1  0.0000000  1.0460000  1
  10864  10865  10885  10886     1  0.0000000  0.6694400  3
  10864  10875  10880  10881     1  0.0000000  1.0460000  1
  10864  10875  10880  10881     1  0.0000000  0.6694400  3
  10864  10882  10869  10872     1  0.0000000  1.6038667  3
  10865  10864  10875  10878     1  0.0000000  0.6508444  3
  10865  10864  10875  10879     1  0.0000000  0.6508444  3
  10865  10867  10868  10870     1  0.0000000  0.6508444  3
  10865  10867  10874  10876     1  0.0000000  1.0460000  1
  10865  10867  10874  10876     1  0.0000000  0.6694400  3
  10866  10864  10865  10867     1  0.0000000  0.6508444  3
  10866  10864  10865  10885     1  0.0000000  1.0460000  1
  10866  10864  10865  10885     1  0.0000000  0.0000000  3
  10866  10864  10865  10884     1  0.0000000  0.6508444  3
  10866  10864  10875  10880     1  0.0000000  1.0460000  1
  10866  10864  10875  10880     1  0.0000000  0.0000000  3
  10866  10864  10875  10878     1  0.0000000  0.6508444  3
  10866  10864  10875  10879     1  0.0000000  0.6508444  3
  10866  10864  10882  10869     1  0.0000000  1.6038667  3
  10867  10865  10885  10886     1  0.0000000  1.0460000  1
  10867  10865  10885  10886     1  0.0000000  0.6694400  3
  10867  10868  10869  10872     1  0.0000000  0.6508444  3
  10867  10868  10887  10877     1  0.0000000  1.2552000  3
  10868  10867  10865  10884     1  0.0000000  0.6508444  3
  10868  10867  10874  10876     1  0.0000000  1.0460000  1
  10868  10867  10874  10876     1  0.0000000  0.6694400  3
  10868  10869  10873  10883     1  0.0000000  1.0460000  1
  10868  10869  10873  10883     1  0.0000000  0.6694400  3
  10869  10868  10867  10871     1  0.0000000  0.6508444  3
  10869  10868  10887  10877     1  0.0000000  1.2552000  3
  10870  10868  10867  10874     1  0.0000000  1.0460000  1
  10870  10868  10867  10874     1  0.0000000  0.0000000  3
  10870  10868  10867  10871     1  0.0000000  0.6508444  3
  10870  10868  10869  10873     1  0.0000000  1.0460000  1
  10870  10868  10869  10873     1  0.0000000  0.0000000  3
  10870  10868  10869  10882     1  0.0000000  1.0460000  1
  10870  10868  10869  10882     1  0.0000000  0.0000000  3
  10870  10868  10869  10872     1  0.0000000  0.6508444  3
  10870  10868  10887  10877     1  0.0000000  1.2552000  3
  10871  10867  10865  10885     1  0.0000000  1.0460000  1
  10871  10867  10865  10885     1  0.0000000  0.0000000  3
  10871  10867  10865  10884     1  0.0000000  0.6508444  3
  10871  10867  10868  10887     1  0.0000000  0.6508444  3
  10871  10867  10874  10876     1  0.0000000  0.6973333  3
  10872  10869  10868  10887     1  0.0000000  0.6508444  3
  10872  10869  10873  10883     1  0.0000000  0.6973333  3
  10874  10867  10865  10884     1  0.0000000  1.0460000  1
  10874  10867  10865  10884     1  0.0000000  0.0000000  3
  10875  10864  10865  10884     1  0.0000000  0.6508444  3
  10878  10875  10864  10882     1  0.0000000  1.0460000  1
  10878  10875  10864  10882     1  0.0000000  0.0000000  3
  10878  10875  10880  10881     1  0.0000000  0.6973333  3
  10879  10875  10864  10882     1  0.0000000  1.0460000  1
  10879  10875  10864  10882     1  0.0000000  0.0000000  3
  10879  10875  10880  10881     1  0.0000000  0.6973333  3
  10882  10864  10865  10884     1  0.0000000  1.0460000  1
  10882  10864  10865  10884     1  0.0000000  0.0000000  3
  10882  10869  10873  10883     1  0.0000000  0.6973333  3
  10884  10865  10885  10886     1  0.0000000  0.6973333  3
  10889  10891  10893  10895     1  0.0000000  0.6508444  3
  10889  10891  10893  10896     1  0.0000000  0.6508444  3
  10890  10889  10891  10893     1  0.0000000  0.0000000  2
  10890  10889  10891  10892     1  0.0000000  0.0000000  2
  10890  10889  10891  10894     1  0.0000000  0.0000000  2
  10891  10893  10897  10962     1  0.0000000  0.6508444  3
  10892  10891  10893  10897     1  0.0000000  0.6508444  3
  10892  10891  10893  10895     1  0.0000000  0.6508444  3
  10892  10891  10893  10896     1  0.0000000  0.6508444  3
  10893  10897  10898  10907     1  0.0000000  0.6508444  3
  10893  10897  10898  10908     1  0.0000000  0.6508444  3
  10893  10897  10899  10900     1  0.0000000  0.6508444  3
  10893  10897  10899  10902     1  0.0000000  0.6508444  3
  10894  10891  10893  10897     1  0.0000000  0.6508444  3
  10894  10891  10893  10895     1  0.0000000  0.6508444  3
  10894  10891  10893  10896     1  0.0000000  0.6508444  3
  10895  10893  10897  10898     1  0.0000000  0.6508444  3
  10895  10893  10897  10899     1  0.0000000  0.6508444  3
  10895  10893  10897  10962     1  0.0000000  0.6508444  3
  10896  10893  10897  10898     1  0.0000000  0.6508444  3
  10896  10893  10897  10899     1  0.0000000  0.6508444  3
  10896  10893  10897  10962     1  0.0000000  0.6508444  3
  10897  10898  10909  10910     1  0.0000000  0.6508444  3
  10897  10898  10909  10911     1  0.0000000  0.6508444  3
  10897  10899  10901  10903     1  0.0000000  0.6508444  3
  10897  10899  10901  10904     1  0.0000000  0.6508444  3
  10898  10897  10899  10900     1  0.0000000  0.6508444  3
  10898  10897  10899  10902     1  0.0000000  0.6508444  3
  10899  10897  10898  10907     1  0.0000000  0.6508444  3
  10899  10897  10898  10908     1  0.0000000  0.6508444  3
  10900  10899  10901  10905     1  0.0000000  0.6508444  3
  10900  10899  10901  10903     1  0.0000000  0.6508444  3
  10900  10899  10901  10904     1  0.0000000  0.6508444  3
  10900  10899  10897  10962     1  0.0000000  0.6508444  3
  10901  10905  10937  10927     1  180.0000771  6.0668000  2
  10901  10905  10937  10927     1  180.0000771  1.4644000  4
  10901  10899  10897  10962     1  0.0000000  0.6508444  3
  10902  10899  10901  10905     1  0.0000000  0.6508444  3
  10902  10899  10901  10903     1  0.0000000  0.6508444  3
  10902  10899  10901  10904     1  0.0000000  0.6508444  3
  10902  10899  10897  10962     1  0.0000000  0.6508444  3
  10903  10901  10905  10906     1  0.0000000  3.3472000  1
  10903  10901  10905  10906     1  0.0000000  0.0000000  2
  10903  10901  10905  10906     1  180.0000771  0.3347200  3
  10903  10901  10905  10937     1  180.0000771  0.0000000  2
  10904  10901  10905  10906     1  0.0000000  3.3472000  1
  10904  10901  10905  10906     1  0.0000000  0.0000000  2
  10904  10901  10905  10906     1  180.0000771  0.3347200  3
  10904  10901  10905  10937     1  180.0000771  0.0000000  2
  10905  10937  10918  10920     1  0.0000000  1.2552000  3
  10906  10905  10937  10927     1  180.0000771  6.0668000  2
  10906  10905  10937  10927     1  180.0000771  1.4644000  4
  10907  10898  10909  10912     1  0.0000000  0.6508444  3
  10907  10898  10909  10910     1  0.0000000  0.6508444  3
  10907  10898  10909  10911     1  0.0000000  0.6508444  3
  10907  10898  10897  10962     1  0.0000000  0.6508444  3
  10908  10898  10909  10912     1  0.0000000  0.6508444  3
  10908  10898  10909  10910     1  0.0000000  0.6508444  3
  10908  10898  10909  10911     1  0.0000000  0.6508444  3
  10908  10898  10897  10962     1  0.0000000  0.6508444  3
  10909  10912  10961  10951     1  180.0000771  6.0668000  2
  10909  10912  10961  10951     1  180.0000771  1.4644000  4
  10909  10898  10897  10962     1  0.0000000  0.6508444  3
  10910  10909  10912  10913     1  0.0000000  3.3472000  1
  10910  10909  10912  10913     1  0.0000000  0.0000000  2
  10910  10909  10912  10913     1  180.0000771  0.3347200  3
  10910  10909  10912  10961     1  180.0000771  0.0000000  2
  10911  10909  10912  10913     1  0.0000000  3.3472000  1
  10911  10909  10912  10913     1  0.0000000  0.0000000  2
  10911  10909  10912  10913     1  180.0000771  0.3347200  3
  10911  10909  10912  10961     1  180.0000771  0.0000000  2
  10912  10961  10942  10944     1  0.0000000  1.2552000  3
  10913  10912  10961  10951     1  180.0000771  6.0668000  2
  10913  10912  10961  10951     1  180.0000771  1.4644000  4
  10914  10915  10917  10921     1  0.0000000  0.6508444  3
  10914  10915  10935  10936     1  0.0000000  1.0460000  1
  10914  10915  10935  10936     1  0.0000000  0.6694400  3
  10914  10925  10930  10931     1  0.0000000  1.0460000  1
  10914  10925  10930  10931     1  0.0000000  0.6694400  3
  10914  10932  10919  10922     1  0.0000000  1.6038667  3
  10915  10917  10918  10920     1  0.0000000  0.6508444  3
  10915  10917  10924  10926     1  0.0000000  1.0460000  1
  10915  10917  10924  10926     1  0.0000000  0.6694400  3
  10915  10914  10925  10928     1  0.0000000  0.6508444  3
  10915  10914  10925  10929     1  0.0000000  0.6508444  3
  10916  10914  10915  10917     1  0.0000000  0.6508444  3
  10916  10914  10915  10935     1  0.0000000  1.0460000  1
  10916  10914  10915  10935     1  0.0000000  0.0000000  3
  10916  10914  10915  10934     1  0.0000000  0.6508444  3
  10916  10914  10925  10930     1  0.0000000  1.0460000  1
  10916  10914  10925  10930     1  0.0000000  0.0000000  3
  10916  10914  10925  10928     1  0.0000000  0.6508444  3
  10916  10914  10925  10929     1  0.0000000  0.6508444  3
  10916  10914  10932  10919     1  0.0000000  1.6038667  3
  10917  10918  10919  10922     1  0.0000000  0.6508444  3
  10917  10918  10937  10927     1  0.0000000  1.2552000  3
  10917  10915  10935  10936     1  0.0000000  1.0460000  1
  10917  10915  10935  10936     1  0.0000000  0.6694400  3
  10918  10919  10923  10933     1  0.0000000  1.0460000  1
  10918  10919  10923  10933     1  0.0000000  0.6694400  3
  10918  10917  10924  10926     1  0.0000000  1.0460000  1
  10918  10917  10924  10926     1  0.0000000  0.6694400  3
  10918  10917  10915  10934     1  0.0000000  0.6508444  3
  10919  10918  10937  10927     1  0.0000000  1.2552000  3
  10919  10918  10917  10921     1  0.0000000  0.6508444  3
  10920  10918  10919  10923     1  0.0000000  1.0460000  1
  10920  10918  10919  10923     1  0.0000000  0.0000000  3
  10920  10918  10919  10932     1  0.0000000  1.0460000  1
  10920  10918  10919  10932     1  0.0000000  0.0000000  3
  10920  10918  10919  10922     1  0.0000000  0.6508444  3
  10920  10918  10937  10927     1  0.0000000  1.2552000  3
  10920  10918  10917  10924     1  0.0000000  1.0460000  1
  10920  10918  10917  10924     1  0.0000000  0.0000000  3
  10920  10918  10917  10921     1  0.0000000  0.6508444  3
  10921  10917  10918  10937     1  0.0000000  0.6508444  3
  10921  10917  10924  10926     1  0.0000000  0.6973333  3
  10921  10917  10915  10935     1  0.0000000  1.0460000  1
  10921  10917  10915  10935     1  0.0000000  0.0000000  3
  10921  10917  10915  10934     1  0.0000000  0.6508444  3
  10922  10919  10923  10933     1  0.0000000  0.6973333  3
  10922  10919  10918  10937     1  0.0000000  0.6508444  3
  10924  10917  10915  10934     1  0.0000000  1.0460000  1
  10924  10917  10915  10934     1  0.0000000  0.0000000  3
  10925  10914  10915  10934     1  0.0000000  0.6508444  3
  10928  10925  10930  10931     1  0.0000000  0.6973333  3
  10928  10925  10914  10932     1  0.0000000  1.0460000  1
  10928  10925  10914  10932     1  0.0000000  0.0000000  3
  10929  10925  10930  10931     1  0.0000000  0.6973333  3
  10929  10925  10914  10932     1  0.0000000  1.0460000  1
  10929  10925  10914  10932     1  0.0000000  0.0000000  3
  10932  10919  10923  10933     1  0.0000000  0.6973333  3
  10932  10914  10915  10934     1  0.0000000  1.0460000  1
  10932  10914  10915  10934     1  0.0000000  0.0000000  3
  10934  10915  10935  10936     1  0.0000000  0.6973333  3
  10938  10939  10941  10945     1  0.0000000  0.6508444  3
  10938  10939  10959  10960     1  0.0000000  1.0460000  1
  10938  10939  10959  10960     1  0.0000000  0.6694400  3
  10938  10949  10954  10955     1  0.0000000  1.0460000  1
  10938  10949  10954  10955     1  0.0000000  0.6694400  3
  10938  10956  10943  10946     1  0.0000000  1.6038667  3
  10939  10941  10942  10944     1  0.0000000  0.6508444  3
  10939  10941  10948  10950     1  0.0000000  1.0460000  1
  10939  10941  10948  10950     1  0.0000000  0.6694400  3
  10939  10938  10949  10952     1  0.0000000  0.6508444  3
  10939  10938  10949  10953     1  0.0000000  0.6508444  3
  10940  10938  10939  10941     1  0.0000000  0.6508444  3
  10940  10938  10939  10959     1  0.0000000  1.0460000  1
  10940  10938  10939  10959     1  0.0000000  0.0000000  3
  10940  10938  10939  10958     1  0.0000000  0.6508444  3
  10940  10938  10949  10954     1  0.0000000  1.0460000  1
  10940  10938  10949  10954     1  0.0000000  0.0000000  3
  10940  10938  10949  10952     1  0.0000000  0.6508444  3
  10940  10938  10949  10953     1  0.0000000  0.6508444  3
  10940  10938  10956  10943     1  0.0000000  1.6038667  3
  10941  10942  10943  10946     1  0.0000000  0.6508444  3
  10941  10942  10961  10951     1  0.0000000  1.2552000  3
  10941  10939  10959  10960     1  0.0000000  1.0460000  1
  10941  10939  10959  10960     1  0.0000000  0.6694400  3
  10942  10943  10947  10957     1  0.0000000  1.0460000  1
  10942  10943  10947  10957     1  0.0000000  0.6694400  3
  10942  10941  10948  10950     1  0.0000000  1.0460000  1
  10942  10941  10948  10950     1  0.0000000  0.6694400  3
  10942  10941  10939  10958     1  0.0000000  0.6508444  3
  10943  10942  10961  10951     1  0.0000000  1.2552000  3
  10943  10942  10941  10945     1  0.0000000  0.6508444  3
  10944  10942  10943  10947     1  0.0000000  1.0460000  1
  10944  10942  10943  10947     1  0.0000000  0.0000000  3
  10944  10942  10943  10956     1  0.0000000  1.0460000  1
  10944  10942  10943  10956     1  0.0000000  0.0000000  3
  10944  10942  10943  10946     1  0.0000000  0.6508444  3
  10944  10942  10961  10951     1  0.0000000  1.2552000  3
  10944  10942  10941  10948     1  0.0000000  1.0460000  1
  10944  10942  10941  10948     1  0.0000000  0.0000000  3
  10944  10942  10941  10945     1  0.0000000  0.6508444  3
  10945  10941  10942  10961     1  0.0000000  0.6508444  3
  10945  10941  10948  10950     1  0.0000000  0.6973333  3
  10945  10941  10939  10959     1  0.0000000  1.0460000  1
  10945  10941  10939  10959     1  0.0000000  0.0000000  3
  10945  10941  10939  10958     1  0.0000000  0.6508444  3
  10946  10943  10947  10957     1  0.0000000  0.6973333  3
  10946  10943  10942  10961     1  0.0000000  0.6508444  3
  10948  10941  10939  10958     1  0.0000000  1.0460000  1
  10948  10941  10939  10958     1  0.0000000  0.0000000  3
  10949  10938  10939  10958     1  0.0000000  0.6508444  3
  10952  10949  10954  10955     1  0.0000000  0.6973333  3
  10952  10949  10938  10956     1  0.0000000  1.0460000  1
  10952  10949  10938  10956     1  0.0000000  0.0000000  3
  10953  10949  10954  10955     1  0.0000000  0.6973333  3
  10953  10949  10938  10956     1  0.0000000  1.0460000  1
  10953  10949  10938  10956     1  0.0000000  0.0000000  3
  10956  10943  10947  10957     1  0.0000000  0.6973333  3
  10956  10938  10939  10958     1  0.0000000  1.0460000  1
  10956  10938  10939  10958     1  0.0000000  0.0000000  3
  10958  10939  10959  10960     1  0.0000000  0.6973333  3
  10963  10965  10967  10969     1  0.0000000  0.6508444  3
  10963  10965  10967  10970     1  0.0000000  0.6508444  3
  10964  10963  10965  10967     1  0.0000000  0.0000000  2
  10964  10963  10965  10966     1  0.0000000  0.0000000  2
  10964  10963  10965  10968     1  0.0000000  0.0000000  2
  10965  10967  10971  11036     1  0.0000000  0.6508444  3
  10966  10965  10967  10971     1  0.0000000  0.6508444  3
  10966  10965  10967  10969     1  0.0000000  0.6508444  3
  10966  10965  10967  10970     1  0.0000000  0.6508444  3
  10967  10971  10972  10981     1  0.0000000  0.6508444  3
  10967  10971  10972  10982     1  0.0000000  0.6508444  3
  10967  10971  10973  10974     1  0.0000000  0.6508444  3
  10967  10971  10973  10976     1  0.0000000  0.6508444  3
  10968  10965  10967  10971     1  0.0000000  0.6508444  3
  10968  10965  10967  10969     1  0.0000000  0.6508444  3
  10968  10965  10967  10970     1  0.0000000  0.6508444  3
  10969  10967  10971  10972     1  0.0000000  0.6508444  3
  10969  10967  10971  10973     1  0.0000000  0.6508444  3
  10969  10967  10971  11036     1  0.0000000  0.6508444  3
  10970  10967  10971  10972     1  0.0000000  0.6508444  3
  10970  10967  10971  10973     1  0.0000000  0.6508444  3
  10970  10967  10971  11036     1  0.0000000  0.6508444  3
  10971  10972  10983  10984     1  0.0000000  0.6508444  3
  10971  10972  10983  10985     1  0.0000000  0.6508444  3
  10971  10973  10975  10977     1  0.0000000  0.6508444  3
  10971  10973  10975  10978     1  0.0000000  0.6508444  3
  10972  10971  10973  10974     1  0.0000000  0.6508444  3
  10972  10971  10973  10976     1  0.0000000  0.6508444  3
  10973  10971  10972  10981     1  0.0000000  0.6508444  3
  10973  10971  10972  10982     1  0.0000000  0.6508444  3
  10974  10973  10971  11036     1  0.0000000  0.6508444  3
  10974  10973  10975  10979     1  0.0000000  0.6508444  3
  10974  10973  10975  10977     1  0.0000000  0.6508444  3
  10974  10973  10975  10978     1  0.0000000  0.6508444  3
  10975  10973  10971  11036     1  0.0000000  0.6508444  3
  10975  10979  11011  11001     1  180.0000771  6.0668000  2
  10975  10979  11011  11001     1  180.0000771  1.4644000  4
  10976  10973  10971  11036     1  0.0000000  0.6508444  3
  10976  10973  10975  10979     1  0.0000000  0.6508444  3
  10976  10973  10975  10977     1  0.0000000  0.6508444  3
  10976  10973  10975  10978     1  0.0000000  0.6508444  3
  10977  10975  10979  10980     1  0.0000000  3.3472000  1
  10977  10975  10979  10980     1  0.0000000  0.0000000  2
  10977  10975  10979  10980     1  180.0000771  0.3347200  3
  10977  10975  10979  11011     1  180.0000771  0.0000000  2
  10978  10975  10979  10980     1  0.0000000  3.3472000  1
  10978  10975  10979  10980     1  0.0000000  0.0000000  2
  10978  10975  10979  10980     1  180.0000771  0.3347200  3
  10978  10975  10979  11011     1  180.0000771  0.0000000  2
  10979  11011  10992  10994     1  0.0000000  1.2552000  3
  10980  10979  11011  11001     1  180.0000771  6.0668000  2
  10980  10979  11011  11001     1  180.0000771  1.4644000  4
  10981  10972  10971  11036     1  0.0000000  0.6508444  3
  10981  10972  10983  10986     1  0.0000000  0.6508444  3
  10981  10972  10983  10984     1  0.0000000  0.6508444  3
  10981  10972  10983  10985     1  0.0000000  0.6508444  3
  10982  10972  10971  11036     1  0.0000000  0.6508444  3
  10982  10972  10983  10986     1  0.0000000  0.6508444  3
  10982  10972  10983  10984     1  0.0000000  0.6508444  3
  10982  10972  10983  10985     1  0.0000000  0.6508444  3
  10983  10972  10971  11036     1  0.0000000  0.6508444  3
  10983  10986  11035  11025     1  180.0000771  6.0668000  2
  10983  10986  11035  11025     1  180.0000771  1.4644000  4
  10984  10983  10986  10987     1  0.0000000  3.3472000  1
  10984  10983  10986  10987     1  0.0000000  0.0000000  2
  10984  10983  10986  10987     1  180.0000771  0.3347200  3
  10984  10983  10986  11035     1  180.0000771  0.0000000  2
  10985  10983  10986  10987     1  0.0000000  3.3472000  1
  10985  10983  10986  10987     1  0.0000000  0.0000000  2
  10985  10983  10986  10987     1  180.0000771  0.3347200  3
  10985  10983  10986  11035     1  180.0000771  0.0000000  2
  10986  11035  11016  11018     1  0.0000000  1.2552000  3
  10987  10986  11035  11025     1  180.0000771  6.0668000  2
  10987  10986  11035  11025     1  180.0000771  1.4644000  4
  10988  10989  10991  10995     1  0.0000000  0.6508444  3
  10988  10989  11009  11010     1  0.0000000  1.0460000  1
  10988  10989  11009  11010     1  0.0000000  0.6694400  3
  10988  10999  11004  11005     1  0.0000000  1.0460000  1
  10988  10999  11004  11005     1  0.0000000  0.6694400  3
  10988  11006  10993  10996     1  0.0000000  1.6038667  3
  10989  10988  10999  11002     1  0.0000000  0.6508444  3
  10989  10988  10999  11003     1  0.0000000  0.6508444  3
  10989  10991  10992  10994     1  0.0000000  0.6508444  3
  10989  10991  10998  11000     1  0.0000000  1.0460000  1
  10989  10991  10998  11000     1  0.0000000  0.6694400  3
  10990  10988  10989  10991     1  0.0000000  0.6508444  3
  10990  10988  10989  11009     1  0.0000000  1.0460000  1
  10990  10988  10989  11009     1  0.0000000  0.0000000  3
  10990  10988  10989  11008     1  0.0000000  0.6508444  3
  10990  10988  10999  11004     1  0.0000000  1.0460000  1
  10990  10988  10999  11004     1  0.0000000  0.0000000  3
  10990  10988  10999  11002     1  0.0000000  0.6508444  3
  10990  10988  10999  11003     1  0.0000000  0.6508444  3
  10990  10988  11006  10993     1  0.0000000  1.6038667  3
  10991  10989  11009  11010     1  0.0000000  1.0460000  1
  10991  10989  11009  11010     1  0.0000000  0.6694400  3
  10991  10992  10993  10996     1  0.0000000  0.6508444  3
  10991  10992  11011  11001     1  0.0000000  1.2552000  3
  10992  10991  10989  11008     1  0.0000000  0.6508444  3
  10992  10991  10998  11000     1  0.0000000  1.0460000  1
  10992  10991  10998  11000     1  0.0000000  0.6694400  3
  10992  10993  10997  11007     1  0.0000000  1.0460000  1
  10992  10993  10997  11007     1  0.0000000  0.6694400  3
  10993  10992  10991  10995     1  0.0000000  0.6508444  3
  10993  10992  11011  11001     1  0.0000000  1.2552000  3
  10994  10992  10991  10998     1  0.0000000  1.0460000  1
  10994  10992  10991  10998     1  0.0000000  0.0000000  3
  10994  10992  10991  10995     1  0.0000000  0.6508444  3
  10994  10992  10993  10997     1  0.0000000  1.0460000  1
  10994  10992  10993  10997     1  0.0000000  0.0000000  3
  10994  10992  10993  11006     1  0.0000000  1.0460000  1
  10994  10992  10993  11006     1  0.0000000  0.0000000  3
  10994  10992  10993  10996     1  0.0000000  0.6508444  3
  10994  10992  11011  11001     1  0.0000000  1.2552000  3
  10995  10991  10989  11009     1  0.0000000  1.0460000  1
  10995  10991  10989  11009     1  0.0000000  0.0000000  3
  10995  10991  10989  11008     1  0.0000000  0.6508444  3
  10995  10991  10992  11011     1  0.0000000  0.6508444  3
  10995  10991  10998  11000     1  0.0000000  0.6973333  3
  10996  10993  10992  11011     1  0.0000000  0.6508444  3
  10996  10993  10997  11007     1  0.0000000  0.6973333  3
  10998  10991  10989  11008     1  0.0000000  1.0460000  1
  10998  10991  10989  11008     1  0.0000000  0.0000000  3
  10999  10988  10989  11008     1  0.0000000  0.6508444  3
  11002  10999  10988  11006     1  0.0000000  1.0460000  1
  11002  10999  10988  11006     1  0.0000000  0.0000000  3
  11002  10999  11004  11005     1  0.0000000  0.6973333  3
  11003  10999  10988  11006     1  0.0000000  1.0460000  1
  11003  10999  10988  11006     1  0.0000000  0.0000000  3
  11003  10999  11004  11005     1  0.0000000  0.6973333  3
  11006  10988  10989  11008     1  0.0000000  1.0460000  1
  11006  10988  10989  11008     1  0.0000000  0.0000000  3
  11006  10993  10997  11007     1  0.0000000  0.6973333  3
  11008  10989  11009  11010     1  0.0000000  0.6973333  3
  11012  11013  11015  11019     1  0.0000000  0.6508444  3
  11012  11013  11033  11034     1  0.0000000  1.0460000  1
  11012  11013  11033  11034     1  0.0000000  0.6694400  3
  11012  11023  11028  11029     1  0.0000000  1.0460000  1
  11012  11023  11028  11029     1  0.0000000  0.6694400  3
  11012  11030  11017  11020     1  0.0000000  1.6038667  3
  11013  11012  11023  11026     1  0.0000000  0.6508444  3
  11013  11012  11023  11027     1  0.0000000  0.6508444  3
  11013  11015  11016  11018     1  0.0000000  0.6508444  3
  11013  11015  11022  11024     1  0.0000000  1.0460000  1
  11013  11015  11022  11024     1  0.0000000  0.6694400  3
  11014  11012  11013  11015     1  0.0000000  0.6508444  3
  11014  11012  11013  11033     1  0.0000000  1.0460000  1
  11014  11012  11013  11033     1  0.0000000  0.0000000  3
  11014  11012  11013  11032     1  0.0000000  0.6508444  3
  11014  11012  11023  11028     1  0.0000000  1.0460000  1
  11014  11012  11023  11028     1  0.0000000  0.0000000  3
  11014  11012  11023  11026     1  0.0000000  0.6508444  3
  11014  11012  11023  11027     1  0.0000000  0.6508444  3
  11014  11012  11030  11017     1  0.0000000  1.6038667  3
  11015  11013  11033  11034     1  0.0000000  1.0460000  1
  11015  11013  11033  11034     1  0.0000000  0.6694400  3
  11015  11016  11017  11020     1  0.0000000  0.6508444  3
  11015  11016  11035  11025     1  0.0000000  1.2552000  3
  11016  11015  11013  11032     1  0.0000000  0.6508444  3
  11016  11015  11022  11024     1  0.0000000  1.0460000  1
  11016  11015  11022  11024     1  0.0000000  0.6694400  3
  11016  11017  11021  11031     1  0.0000000  1.0460000  1
  11016  11017  11021  11031     1  0.0000000  0.6694400  3
  11017  11016  11015  11019     1  0.0000000  0.6508444  3
  11017  11016  11035  11025     1  0.0000000  1.2552000  3
  11018  11016  11015  11022     1  0.0000000  1.0460000  1
  11018  11016  11015  11022     1  0.0000000  0.0000000  3
  11018  11016  11015  11019     1  0.0000000  0.6508444  3
  11018  11016  11017  11021     1  0.0000000  1.0460000  1
  11018  11016  11017  11021     1  0.0000000  0.0000000  3
  11018  11016  11017  11030     1  0.0000000  1.0460000  1
  11018  11016  11017  11030     1  0.0000000  0.0000000  3
  11018  11016  11017  11020     1  0.0000000  0.6508444  3
  11018  11016  11035  11025     1  0.0000000  1.2552000  3
  11019  11015  11013  11033     1  0.0000000  1.0460000  1
  11019  11015  11013  11033     1  0.0000000  0.0000000  3
  11019  11015  11013  11032     1  0.0000000  0.6508444  3
  11019  11015  11016  11035     1  0.0000000  0.6508444  3
  11019  11015  11022  11024     1  0.0000000  0.6973333  3
  11020  11017  11016  11035     1  0.0000000  0.6508444  3
  11020  11017  11021  11031     1  0.0000000  0.6973333  3
  11022  11015  11013  11032     1  0.0000000  1.0460000  1
  11022  11015  11013  11032     1  0.0000000  0.0000000  3
  11023  11012  11013  11032     1  0.0000000  0.6508444  3
  11026  11023  11012  11030     1  0.0000000  1.0460000  1
  11026  11023  11012  11030     1  0.0000000  0.0000000  3
  11026  11023  11028  11029     1  0.0000000  0.6973333  3
  11027  11023  11012  11030     1  0.0000000  1.0460000  1
  11027  11023  11012  11030     1  0.0000000  0.0000000  3
  11027  11023  11028  11029     1  0.0000000  0.6973333  3
  11030  11012  11013  11032     1  0.0000000  1.0460000  1
  11030  11012  11013  11032     1  0.0000000  0.0000000  3
  11030  11017  11021  11031     1  0.0000000  0.6973333  3
  11032  11013  11033  11034     1  0.0000000  0.6973333  3
  11037  11039  11041  11043     1  0.0000000  0.6508444  3
  11037  11039  11041  11044     1  0.0000000  0.6508444  3
  11038  11037  11039  11041     1  0.0000000  0.0000000  2
  11038  11037  11039  11040     1  0.0000000  0.0000000  2
  11038  11037  11039  11042     1  0.0000000  0.0000000  2
  11039  11041  11045  11110     1  0.0000000  0.6508444  3
  11040  11039  11041  11045     1  0.0000000  0.6508444  3
  11040  11039  11041  11043     1  0.0000000  0.6508444  3
  11040  11039  11041  11044     1  0.0000000  0.6508444  3
  11041  11045  11046  11055     1  0.0000000  0.6508444  3
  11041  11045  11046  11056     1  0.0000000  0.6508444  3
  11041  11045  11047  11048     1  0.0000000  0.6508444  3
  11041  11045  11047  11050     1  0.0000000  0.6508444  3
  11042  11039  11041  11045     1  0.0000000  0.6508444  3
  11042  11039  11041  11043     1  0.0000000  0.6508444  3
  11042  11039  11041  11044     1  0.0000000  0.6508444  3
  11043  11041  11045  11046     1  0.0000000  0.6508444  3
  11043  11041  11045  11047     1  0.0000000  0.6508444  3
  11043  11041  11045  11110     1  0.0000000  0.6508444  3
  11044  11041  11045  11046     1  0.0000000  0.6508444  3
  11044  11041  11045  11047     1  0.0000000  0.6508444  3
  11044  11041  11045  11110     1  0.0000000  0.6508444  3
  11045  11046  11057  11058     1  0.0000000  0.6508444  3
  11045  11046  11057  11059     1  0.0000000  0.6508444  3
  11045  11047  11049  11051     1  0.0000000  0.6508444  3
  11045  11047  11049  11052     1  0.0000000  0.6508444  3
  11046  11045  11047  11048     1  0.0000000  0.6508444  3
  11046  11045  11047  11050     1  0.0000000  0.6508444  3
  11047  11045  11046  11055     1  0.0000000  0.6508444  3
  11047  11045  11046  11056     1  0.0000000  0.6508444  3
  11048  11047  11049  11053     1  0.0000000  0.6508444  3
  11048  11047  11049  11051     1  0.0000000  0.6508444  3
  11048  11047  11049  11052     1  0.0000000  0.6508444  3
  11048  11047  11045  11110     1  0.0000000  0.6508444  3
  11049  11053  11085  11075     1  180.0000771  6.0668000  2
  11049  11053  11085  11075     1  180.0000771  1.4644000  4
  11049  11047  11045  11110     1  0.0000000  0.6508444  3
  11050  11047  11049  11053     1  0.0000000  0.6508444  3
  11050  11047  11049  11051     1  0.0000000  0.6508444  3
  11050  11047  11049  11052     1  0.0000000  0.6508444  3
  11050  11047  11045  11110     1  0.0000000  0.6508444  3
  11051  11049  11053  11054     1  0.0000000  3.3472000  1
  11051  11049  11053  11054     1  0.0000000  0.0000000  2
  11051  11049  11053  11054     1  180.0000771  0.3347200  3
  11051  11049  11053  11085     1  180.0000771  0.0000000  2
  11052  11049  11053  11054     1  0.0000000  3.3472000  1
  11052  11049  11053  11054     1  0.0000000  0.0000000  2
  11052  11049  11053  11054     1  180.0000771  0.3347200  3
  11052  11049  11053  11085     1  180.0000771  0.0000000  2
  11053  11085  11066  11068     1  0.0000000  1.2552000  3
  11054  11053  11085  11075     1  180.0000771  6.0668000  2
  11054  11053  11085  11075     1  180.0000771  1.4644000  4
  11055  11046  11057  11060     1  0.0000000  0.6508444  3
  11055  11046  11057  11058     1  0.0000000  0.6508444  3
  11055  11046  11057  11059     1  0.0000000  0.6508444  3
  11055  11046  11045  11110     1  0.0000000  0.6508444  3
  11056  11046  11057  11060     1  0.0000000  0.6508444  3
  11056  11046  11057  11058     1  0.0000000  0.6508444  3
  11056  11046  11057  11059     1  0.0000000  0.6508444  3
  11056  11046  11045  11110     1  0.0000000  0.6508444  3
  11057  11060  11109  11099     1  180.0000771  6.0668000  2
  11057  11060  11109  11099     1  180.0000771  1.4644000  4
  11057  11046  11045  11110     1  0.0000000  0.6508444  3
  11058  11057  11060  11061     1  0.0000000  3.3472000  1
  11058  11057  11060  11061     1  0.0000000  0.0000000  2
  11058  11057  11060  11061     1  180.0000771  0.3347200  3
  11058  11057  11060  11109     1  180.0000771  0.0000000  2
  11059  11057  11060  11061     1  0.0000000  3.3472000  1
  11059  11057  11060  11061     1  0.0000000  0.0000000  2
  11059  11057  11060  11061     1  180.0000771  0.3347200  3
  11059  11057  11060  11109     1  180.0000771  0.0000000  2
  11060  11109  11090  11092     1  0.0000000  1.2552000  3
  11061  11060  11109  11099     1  180.0000771  6.0668000  2
  11061  11060  11109  11099     1  180.0000771  1.4644000  4
  11062  11063  11065  11069     1  0.0000000  0.6508444  3
  11062  11063  11083  11084     1  0.0000000  1.0460000  1
  11062  11063  11083  11084     1  0.0000000  0.6694400  3
  11062  11073  11078  11079     1  0.0000000  1.0460000  1
  11062  11073  11078  11079     1  0.0000000  0.6694400  3
  11062  11080  11067  11070     1  0.0000000  1.6038667  3
  11063  11065  11066  11068     1  0.0000000  0.6508444  3
  11063  11065  11072  11074     1  0.0000000  1.0460000  1
  11063  11065  11072  11074     1  0.0000000  0.6694400  3
  11063  11062  11073  11076     1  0.0000000  0.6508444  3
  11063  11062  11073  11077     1  0.0000000  0.6508444  3
  11064  11062  11063  11065     1  0.0000000  0.6508444  3
  11064  11062  11063  11083     1  0.0000000  1.0460000  1
  11064  11062  11063  11083     1  0.0000000  0.0000000  3
  11064  11062  11063  11082     1  0.0000000  0.6508444  3
  11064  11062  11073  11078     1  0.0000000  1.0460000  1
  11064  11062  11073  11078     1  0.0000000  0.0000000  3
  11064  11062  11073  11076     1  0.0000000  0.6508444  3
  11064  11062  11073  11077     1  0.0000000  0.6508444  3
  11064  11062  11080  11067     1  0.0000000  1.6038667  3
  11065  11066  11067  11070     1  0.0000000  0.6508444  3
  11065  11066  11085  11075     1  0.0000000  1.2552000  3
  11065  11063  11083  11084     1  0.0000000  1.0460000  1
  11065  11063  11083  11084     1  0.0000000  0.6694400  3
  11066  11067  11071  11081     1  0.0000000  1.0460000  1
  11066  11067  11071  11081     1  0.0000000  0.6694400  3
  11066  11065  11072  11074     1  0.0000000  1.0460000  1
  11066  11065  11072  11074     1  0.0000000  0.6694400  3
  11066  11065  11063  11082     1  0.0000000  0.6508444  3
  11067  11066  11085  11075     1  0.0000000  1.2552000  3
  11067  11066  11065  11069     1  0.0000000  0.6508444  3
  11068  11066  11067  11071     1  0.0000000  1.0460000  1
  11068  11066  11067  11071     1  0.0000000  0.0000000  3
  11068  11066  11067  11080     1  0.0000000  1.0460000  1
  11068  11066  11067  11080     1  0.0000000  0.0000000  3
  11068  11066  11067  11070     1  0.0000000  0.6508444  3
  11068  11066  11085  11075     1  0.0000000  1.2552000  3
  11068  11066  11065  11072     1  0.0000000  1.0460000  1
  11068  11066  11065  11072     1  0.0000000  0.0000000  3
  11068  11066  11065  11069     1  0.0000000  0.6508444  3
  11069  11065  11066  11085     1  0.0000000  0.6508444  3
  11069  11065  11072  11074     1  0.0000000  0.6973333  3
  11069  11065  11063  11083     1  0.0000000  1.0460000  1
  11069  11065  11063  11083     1  0.0000000  0.0000000  3
  11069  11065  11063  11082     1  0.0000000  0.6508444  3
  11070  11067  11071  11081     1  0.0000000  0.6973333  3
  11070  11067  11066  11085     1  0.0000000  0.6508444  3
  11072  11065  11063  11082     1  0.0000000  1.0460000  1
  11072  11065  11063  11082     1  0.0000000  0.0000000  3
  11073  11062  11063  11082     1  0.0000000  0.6508444  3
  11076  11073  11078  11079     1  0.0000000  0.6973333  3
  11076  11073  11062  11080     1  0.0000000  1.0460000  1
  11076  11073  11062  11080     1  0.0000000  0.0000000  3
  11077  11073  11078  11079     1  0.0000000  0.6973333  3
  11077  11073  11062  11080     1  0.0000000  1.0460000  1
  11077  11073  11062  11080     1  0.0000000  0.0000000  3
  11080  11067  11071  11081     1  0.0000000  0.6973333  3
  11080  11062  11063  11082     1  0.0000000  1.0460000  1
  11080  11062  11063  11082     1  0.0000000  0.0000000  3
  11082  11063  11083  11084     1  0.0000000  0.6973333  3
  11086  11087  11089  11093     1  0.0000000  0.6508444  3
  11086  11087  11107  11108     1  0.0000000  1.0460000  1
  11086  11087  11107  11108     1  0.0000000  0.6694400  3
  11086  11097  11102  11103     1  0.0000000  1.0460000  1
  11086  11097  11102  11103     1  0.0000000  0.6694400  3
  11086  11104  11091  11094     1  0.0000000  1.6038667  3
  11087  11089  11090  11092     1  0.0000000  0.6508444  3
  11087  11089  11096  11098     1  0.0000000  1.0460000  1
  11087  11089  11096  11098     1  0.0000000  0.6694400  3
  11087  11086  11097  11100     1  0.0000000  0.6508444  3
  11087  11086  11097  11101     1  0.0000000  0.6508444  3
  11088  11086  11087  11089     1  0.0000000  0.6508444  3
  11088  11086  11087  11107     1  0.0000000  1.0460000  1
  11088  11086  11087  11107     1  0.0000000  0.0000000  3
  11088  11086  11087  11106     1  0.0000000  0.6508444  3
  11088  11086  11097  11102     1  0.0000000  1.0460000  1
  11088  11086  11097  11102     1  0.0000000  0.0000000  3
  11088  11086  11097  11100     1  0.0000000  0.6508444  3
  11088  11086  11097  11101     1  0.0000000  0.6508444  3
  11088  11086  11104  11091     1  0.0000000  1.6038667  3
  11089  11090  11091  11094     1  0.0000000  0.6508444  3
  11089  11090  11109  11099     1  0.0000000  1.2552000  3
  11089  11087  11107  11108     1  0.0000000  1.0460000  1
  11089  11087  11107  11108     1  0.0000000  0.6694400  3
  11090  11091  11095  11105     1  0.0000000  1.0460000  1
  11090  11091  11095  11105     1  0.0000000  0.6694400  3
  11090  11089  11096  11098     1  0.0000000  1.0460000  1
  11090  11089  11096  11098     1  0.0000000  0.6694400  3
  11090  11089  11087  11106     1  0.0000000  0.6508444  3
  11091  11090  11109  11099     1  0.0000000  1.2552000  3
  11091  11090  11089  11093     1  0.0000000  0.6508444  3
  11092  11090  11091  11095     1  0.0000000  1.0460000  1
  11092  11090  11091  11095     1  0.0000000  0.0000000  3
  11092  11090  11091  11104     1  0.0000000  1.0460000  1
  11092  11090  11091  11104     1  0.0000000  0.0000000  3
  11092  11090  11091  11094     1  0.0000000  0.6508444  3
  11092  11090  11109  11099     1  0.0000000  1.2552000  3
  11092  11090  11089  11096     1  0.0000000  1.0460000  1
  11092  11090  11089  11096     1  0.0000000  0.0000000  3
  11092  11090  11089  11093     1  0.0000000  0.6508444  3
  11093  11089  11090  11109     1  0.0000000  0.6508444  3
  11093  11089  11096  11098     1  0.0000000  0.6973333  3
  11093  11089  11087  11107     1  0.0000000  1.0460000  1
  11093  11089  11087  11107     1  0.0000000  0.0000000  3
  11093  11089  11087  11106     1  0.0000000  0.6508444  3
  11094  11091  11095  11105     1  0.0000000  0.6973333  3
  11094  11091  11090  11109     1  0.0000000  0.6508444  3
  11096  11089  11087  11106     1  0.0000000  1.0460000  1
  11096  11089  11087  11106     1  0.0000000  0.0000000  3
  11097  11086  11087  11106     1  0.0000000  0.6508444  3
  11100  11097  11102  11103     1  0.0000000  0.6973333  3
  11100  11097  11086  11104     1  0.0000000  1.0460000  1
  11100  11097  11086  11104     1  0.0000000  0.0000000  3
  11101  11097  11102  11103     1  0.0000000  0.6973333  3
  11101  11097  11086  11104     1  0.0000000  1.0460000  1
  11101  11097  11086  11104     1  0.0000000  0.0000000  3
  11104  11091  11095  11105     1  0.0000000  0.6973333  3
  11104  11086  11087  11106     1  0.0000000  1.0460000  1
  11104  11086  11087  11106     1  0.0000000  0.0000000  3
  11106  11087  11107  11108     1  0.0000000  0.6973333  3
  11111  11113  11115  11117     1  0.0000000  0.6508444  3
  11111  11113  11115  11118     1  0.0000000  0.6508444  3
  11112  11111  11113  11115     1  0.0000000  0.0000000  2
  11112  11111  11113  11114     1  0.0000000  0.0000000  2
  11112  11111  11113  11116     1  0.0000000  0.0000000  2
  11113  11115  11119  11184     1  0.0000000  0.6508444  3
  11114  11113  11115  11119     1  0.0000000  0.6508444  3
  11114  11113  11115  11117     1  0.0000000  0.6508444  3
  11114  11113  11115  11118     1  0.0000000  0.6508444  3
  11115  11119  11120  11129     1  0.0000000  0.6508444  3
  11115  11119  11120  11130     1  0.0000000  0.6508444  3
  11115  11119  11121  11122     1  0.0000000  0.6508444  3
  11115  11119  11121  11124     1  0.0000000  0.6508444  3
  11116  11113  11115  11119     1  0.0000000  0.6508444  3
  11116  11113  11115  11117     1  0.0000000  0.6508444  3
  11116  11113  11115  11118     1  0.0000000  0.6508444  3
  11117  11115  11119  11120     1  0.0000000  0.6508444  3
  11117  11115  11119  11121     1  0.0000000  0.6508444  3
  11117  11115  11119  11184     1  0.0000000  0.6508444  3
  11118  11115  11119  11120     1  0.0000000  0.6508444  3
  11118  11115  11119  11121     1  0.0000000  0.6508444  3
  11118  11115  11119  11184     1  0.0000000  0.6508444  3
  11119  11120  11131  11132     1  0.0000000  0.6508444  3
  11119  11120  11131  11133     1  0.0000000  0.6508444  3
  11119  11121  11123  11125     1  0.0000000  0.6508444  3
  11119  11121  11123  11126     1  0.0000000  0.6508444  3
  11120  11119  11121  11122     1  0.0000000  0.6508444  3
  11120  11119  11121  11124     1  0.0000000  0.6508444  3
  11121  11119  11120  11129     1  0.0000000  0.6508444  3
  11121  11119  11120  11130     1  0.0000000  0.6508444  3
  11122  11121  11119  11184     1  0.0000000  0.6508444  3
  11122  11121  11123  11127     1  0.0000000  0.6508444  3
  11122  11121  11123  11125     1  0.0000000  0.6508444  3
  11122  11121  11123  11126     1  0.0000000  0.6508444  3
  11123  11121  11119  11184     1  0.0000000  0.6508444  3
  11123  11127  11159  11149     1  180.0000771  6.0668000  2
  11123  11127  11159  11149     1  180.0000771  1.4644000  4
  11124  11121  11119  11184     1  0.0000000  0.6508444  3
  11124  11121  11123  11127     1  0.0000000  0.6508444  3
  11124  11121  11123  11125     1  0.0000000  0.6508444  3
  11124  11121  11123  11126     1  0.0000000  0.6508444  3
  11125  11123  11127  11128     1  0.0000000  3.3472000  1
  11125  11123  11127  11128     1  0.0000000  0.0000000  2
  11125  11123  11127  11128     1  180.0000771  0.3347200  3
  11125  11123  11127  11159     1  180.0000771  0.0000000  2
  11126  11123  11127  11128     1  0.0000000  3.3472000  1
  11126  11123  11127  11128     1  0.0000000  0.0000000  2
  11126  11123  11127  11128     1  180.0000771  0.3347200  3
  11126  11123  11127  11159     1  180.0000771  0.0000000  2
  11127  11159  11140  11142     1  0.0000000  1.2552000  3
  11128  11127  11159  11149     1  180.0000771  6.0668000  2
  11128  11127  11159  11149     1  180.0000771  1.4644000  4
  11129  11120  11119  11184     1  0.0000000  0.6508444  3
  11129  11120  11131  11134     1  0.0000000  0.6508444  3
  11129  11120  11131  11132     1  0.0000000  0.6508444  3
  11129  11120  11131  11133     1  0.0000000  0.6508444  3
  11130  11120  11119  11184     1  0.0000000  0.6508444  3
  11130  11120  11131  11134     1  0.0000000  0.6508444  3
  11130  11120  11131  11132     1  0.0000000  0.6508444  3
  11130  11120  11131  11133     1  0.0000000  0.6508444  3
  11131  11120  11119  11184     1  0.0000000  0.6508444  3
  11131  11134  11183  11173     1  180.0000771  6.0668000  2
  11131  11134  11183  11173     1  180.0000771  1.4644000  4
  11132  11131  11134  11135     1  0.0000000  3.3472000  1
  11132  11131  11134  11135     1  0.0000000  0.0000000  2
  11132  11131  11134  11135     1  180.0000771  0.3347200  3
  11132  11131  11134  11183     1  180.0000771  0.0000000  2
  11133  11131  11134  11135     1  0.0000000  3.3472000  1
  11133  11131  11134  11135     1  0.0000000  0.0000000  2
  11133  11131  11134  11135     1  180.0000771  0.3347200  3
  11133  11131  11134  11183     1  180.0000771  0.0000000  2
  11134  11183  11164  11166     1  0.0000000  1.2552000  3
  11135  11134  11183  11173     1  180.0000771  6.0668000  2
  11135  11134  11183  11173     1  180.0000771  1.4644000  4
  11136  11137  11139  11143     1  0.0000000  0.6508444  3
  11136  11137  11157  11158     1  0.0000000  1.0460000  1
  11136  11137  11157  11158     1  0.0000000  0.6694400  3
  11136  11147  11152  11153     1  0.0000000  1.0460000  1
  11136  11147  11152  11153     1  0.0000000  0.6694400  3
  11136  11154  11141  11144     1  0.0000000  1.6038667  3
  11137  11136  11147  11150     1  0.0000000  0.6508444  3
  11137  11136  11147  11151     1  0.0000000  0.6508444  3
  11137  11139  11140  11142     1  0.0000000  0.6508444  3
  11137  11139  11146  11148     1  0.0000000  1.0460000  1
  11137  11139  11146  11148     1  0.0000000  0.6694400  3
  11138  11136  11137  11139     1  0.0000000  0.6508444  3
  11138  11136  11137  11157     1  0.0000000  1.0460000  1
  11138  11136  11137  11157     1  0.0000000  0.0000000  3
  11138  11136  11137  11156     1  0.0000000  0.6508444  3
  11138  11136  11147  11152     1  0.0000000  1.0460000  1
  11138  11136  11147  11152     1  0.0000000  0.0000000  3
  11138  11136  11147  11150     1  0.0000000  0.6508444  3
  11138  11136  11147  11151     1  0.0000000  0.6508444  3
  11138  11136  11154  11141     1  0.0000000  1.6038667  3
  11139  11137  11157  11158     1  0.0000000  1.0460000  1
  11139  11137  11157  11158     1  0.0000000  0.6694400  3
  11139  11140  11141  11144     1  0.0000000  0.6508444  3
  11139  11140  11159  11149     1  0.0000000  1.2552000  3
  11140  11139  11137  11156     1  0.0000000  0.6508444  3
  11140  11139  11146  11148     1  0.0000000  1.0460000  1
  11140  11139  11146  11148     1  0.0000000  0.6694400  3
  11140  11141  11145  11155     1  0.0000000  1.0460000  1
  11140  11141  11145  11155     1  0.0000000  0.6694400  3
  11141  11140  11139  11143     1  0.0000000  0.6508444  3
  11141  11140  11159  11149     1  0.0000000  1.2552000  3
  11142  11140  11139  11146     1  0.0000000  1.0460000  1
  11142  11140  11139  11146     1  0.0000000  0.0000000  3
  11142  11140  11139  11143     1  0.0000000  0.6508444  3
  11142  11140  11141  11145     1  0.0000000  1.0460000  1
  11142  11140  11141  11145     1  0.0000000  0.0000000  3
  11142  11140  11141  11154     1  0.0000000  1.0460000  1
  11142  11140  11141  11154     1  0.0000000  0.0000000  3
  11142  11140  11141  11144     1  0.0000000  0.6508444  3
  11142  11140  11159  11149     1  0.0000000  1.2552000  3
  11143  11139  11137  11157     1  0.0000000  1.0460000  1
  11143  11139  11137  11157     1  0.0000000  0.0000000  3
  11143  11139  11137  11156     1  0.0000000  0.6508444  3
  11143  11139  11140  11159     1  0.0000000  0.6508444  3
  11143  11139  11146  11148     1  0.0000000  0.6973333  3
  11144  11141  11140  11159     1  0.0000000  0.6508444  3
  11144  11141  11145  11155     1  0.0000000  0.6973333  3
  11146  11139  11137  11156     1  0.0000000  1.0460000  1
  11146  11139  11137  11156     1  0.0000000  0.0000000  3
  11147  11136  11137  11156     1  0.0000000  0.6508444  3
  11150  11147  11136  11154     1  0.0000000  1.0460000  1
  11150  11147  11136  11154     1  0.0000000  0.0000000  3
  11150  11147  11152  11153     1  0.0000000  0.6973333  3
  11151  11147  11136  11154     1  0.0000000  1.0460000  1
  11151  11147  11136  11154     1  0.0000000  0.0000000  3
  11151  11147  11152  11153     1  0.0000000  0.6973333  3
  11154  11136  11137  11156     1  0.0000000  1.0460000  1
  11154  11136  11137  11156     1  0.0000000  0.0000000  3
  11154  11141  11145  11155     1  0.0000000  0.6973333  3
  11156  11137  11157  11158     1  0.0000000  0.6973333  3
  11160  11161  11163  11167     1  0.0000000  0.6508444  3
  11160  11161  11181  11182     1  0.0000000  1.0460000  1
  11160  11161  11181  11182     1  0.0000000  0.6694400  3
  11160  11171  11176  11177     1  0.0000000  1.0460000  1
  11160  11171  11176  11177     1  0.0000000  0.6694400  3
  11160  11178  11165  11168     1  0.0000000  1.6038667  3
  11161  11160  11171  11174     1  0.0000000  0.6508444  3
  11161  11160  11171  11175     1  0.0000000  0.6508444  3
  11161  11163  11164  11166     1  0.0000000  0.6508444  3
  11161  11163  11170  11172     1  0.0000000  1.0460000  1
  11161  11163  11170  11172     1  0.0000000  0.6694400  3
  11162  11160  11161  11163     1  0.0000000  0.6508444  3
  11162  11160  11161  11181     1  0.0000000  1.0460000  1
  11162  11160  11161  11181     1  0.0000000  0.0000000  3
  11162  11160  11161  11180     1  0.0000000  0.6508444  3
  11162  11160  11171  11176     1  0.0000000  1.0460000  1
  11162  11160  11171  11176     1  0.0000000  0.0000000  3
  11162  11160  11171  11174     1  0.0000000  0.6508444  3
  11162  11160  11171  11175     1  0.0000000  0.6508444  3
  11162  11160  11178  11165     1  0.0000000  1.6038667  3
  11163  11161  11181  11182     1  0.0000000  1.0460000  1
  11163  11161  11181  11182     1  0.0000000  0.6694400  3
  11163  11164  11165  11168     1  0.0000000  0.6508444  3
  11163  11164  11183  11173     1  0.0000000  1.2552000  3
  11164  11163  11161  11180     1  0.0000000  0.6508444  3
  11164  11163  11170  11172     1  0.0000000  1.0460000  1
  11164  11163  11170  11172     1  0.0000000  0.6694400  3
  11164  11165  11169  11179     1  0.0000000  1.0460000  1
  11164  11165  11169  11179     1  0.0000000  0.6694400  3
  11165  11164  11163  11167     1  0.0000000  0.6508444  3
  11165  11164  11183  11173     1  0.0000000  1.2552000  3
  11166  11164  11163  11170     1  0.0000000  1.0460000  1
  11166  11164  11163  11170     1  0.0000000  0.0000000  3
  11166  11164  11163  11167     1  0.0000000  0.6508444  3
  11166  11164  11165  11169     1  0.0000000  1.0460000  1
  11166  11164  11165  11169     1  0.0000000  0.0000000  3
  11166  11164  11165  11178     1  0.0000000  1.0460000  1
  11166  11164  11165  11178     1  0.0000000  0.0000000  3
  11166  11164  11165  11168     1  0.0000000  0.6508444  3
  11166  11164  11183  11173     1  0.0000000  1.2552000  3
  11167  11163  11161  11181     1  0.0000000  1.0460000  1
  11167  11163  11161  11181     1  0.0000000  0.0000000  3
  11167  11163  11161  11180     1  0.0000000  0.6508444  3
  11167  11163  11164  11183     1  0.0000000  0.6508444  3
  11167  11163  11170  11172     1  0.0000000  0.6973333  3
  11168  11165  11164  11183     1  0.0000000  0.6508444  3
  11168  11165  11169  11179     1  0.0000000  0.6973333  3
  11170  11163  11161  11180     1  0.0000000  1.0460000  1
  11170  11163  11161  11180     1  0.0000000  0.0000000  3
  11171  11160  11161  11180     1  0.0000000  0.6508444  3
  11174  11171  11160  11178     1  0.0000000  1.0460000  1
  11174  11171  11160  11178     1  0.0000000  0.0000000  3
  11174  11171  11176  11177     1  0.0000000  0.6973333  3
  11175  11171  11160  11178     1  0.0000000  1.0460000  1
  11175  11171  11160  11178     1  0.0000000  0.0000000  3
  11175  11171  11176  11177     1  0.0000000  0.6973333  3
  11178  11160  11161  11180     1  0.0000000  1.0460000  1
  11178  11160  11161  11180     1  0.0000000  0.0000000  3
  11178  11165  11169  11179     1  0.0000000  0.6973333  3
  11180  11161  11181  11182     1  0.0000000  0.6973333  3
  11185  11187  11189  11191     1  0.0000000  0.6508444  3
  11185  11187  11189  11192     1  0.0000000  0.6508444  3
  11186  11185  11187  11189     1  0.0000000  0.0000000  2
  11186  11185  11187  11188     1  0.0000000  0.0000000  2
  11186  11185  11187  11190     1  0.0000000  0.0000000  2
  11187  11189  11193  11258     1  0.0000000  0.6508444  3
  11188  11187  11189  11193     1  0.0000000  0.6508444  3
  11188  11187  11189  11191     1  0.0000000  0.6508444  3
  11188  11187  11189  11192     1  0.0000000  0.6508444  3
  11189  11193  11194  11203     1  0.0000000  0.6508444  3
  11189  11193  11194  11204     1  0.0000000  0.6508444  3
  11189  11193  11195  11196     1  0.0000000  0.6508444  3
  11189  11193  11195  11198     1  0.0000000  0.6508444  3
  11190  11187  11189  11193     1  0.0000000  0.6508444  3
  11190  11187  11189  11191     1  0.0000000  0.6508444  3
  11190  11187  11189  11192     1  0.0000000  0.6508444  3
  11191  11189  11193  11194     1  0.0000000  0.6508444  3
  11191  11189  11193  11195     1  0.0000000  0.6508444  3
  11191  11189  11193  11258     1  0.0000000  0.6508444  3
  11192  11189  11193  11194     1  0.0000000  0.6508444  3
  11192  11189  11193  11195     1  0.0000000  0.6508444  3
  11192  11189  11193  11258     1  0.0000000  0.6508444  3
  11193  11194  11205  11206     1  0.0000000  0.6508444  3
  11193  11194  11205  11207     1  0.0000000  0.6508444  3
  11193  11195  11197  11199     1  0.0000000  0.6508444  3
  11193  11195  11197  11200     1  0.0000000  0.6508444  3
  11194  11193  11195  11196     1  0.0000000  0.6508444  3
  11194  11193  11195  11198     1  0.0000000  0.6508444  3
  11195  11193  11194  11203     1  0.0000000  0.6508444  3
  11195  11193  11194  11204     1  0.0000000  0.6508444  3
  11196  11195  11197  11201     1  0.0000000  0.6508444  3
  11196  11195  11197  11199     1  0.0000000  0.6508444  3
  11196  11195  11197  11200     1  0.0000000  0.6508444  3
  11196  11195  11193  11258     1  0.0000000  0.6508444  3
  11197  11201  11233  11223     1  180.0000771  6.0668000  2
  11197  11201  11233  11223     1  180.0000771  1.4644000  4
  11197  11195  11193  11258     1  0.0000000  0.6508444  3
  11198  11195  11197  11201     1  0.0000000  0.6508444  3
  11198  11195  11197  11199     1  0.0000000  0.6508444  3
  11198  11195  11197  11200     1  0.0000000  0.6508444  3
  11198  11195  11193  11258     1  0.0000000  0.6508444  3
  11199  11197  11201  11202     1  0.0000000  3.3472000  1
  11199  11197  11201  11202     1  0.0000000  0.0000000  2
  11199  11197  11201  11202     1  180.0000771  0.3347200  3
  11199  11197  11201  11233     1  180.0000771  0.0000000  2
  11200  11197  11201  11202     1  0.0000000  3.3472000  1
  11200  11197  11201  11202     1  0.0000000  0.0000000  2
  11200  11197  11201  11202     1  180.0000771  0.3347200  3
  11200  11197  11201  11233     1  180.0000771  0.0000000  2
  11201  11233  11214  11216     1  0.0000000  1.2552000  3
  11202  11201  11233  11223     1  180.0000771  6.0668000  2
  11202  11201  11233  11223     1  180.0000771  1.4644000  4
  11203  11194  11205  11208     1  0.0000000  0.6508444  3
  11203  11194  11205  11206     1  0.0000000  0.6508444  3
  11203  11194  11205  11207     1  0.0000000  0.6508444  3
  11203  11194  11193  11258     1  0.0000000  0.6508444  3
  11204  11194  11205  11208     1  0.0000000  0.6508444  3
  11204  11194  11205  11206     1  0.0000000  0.6508444  3
  11204  11194  11205  11207     1  0.0000000  0.6508444  3
  11204  11194  11193  11258     1  0.0000000  0.6508444  3
  11205  11208  11257  11247     1  180.0000771  6.0668000  2
  11205  11208  11257  11247     1  180.0000771  1.4644000  4
  11205  11194  11193  11258     1  0.0000000  0.6508444  3
  11206  11205  11208  11209     1  0.0000000  3.3472000  1
  11206  11205  11208  11209     1  0.0000000  0.0000000  2
  11206  11205  11208  11209     1  180.0000771  0.3347200  3
  11206  11205  11208  11257     1  180.0000771  0.0000000  2
  11207  11205  11208  11209     1  0.0000000  3.3472000  1
  11207  11205  11208  11209     1  0.0000000  0.0000000  2
  11207  11205  11208  11209     1  180.0000771  0.3347200  3
  11207  11205  11208  11257     1  180.0000771  0.0000000  2
  11208  11257  11238  11240     1  0.0000000  1.2552000  3
  11209  11208  11257  11247     1  180.0000771  6.0668000  2
  11209  11208  11257  11247     1  180.0000771  1.4644000  4
  11210  11211  11213  11217     1  0.0000000  0.6508444  3
  11210  11211  11231  11232     1  0.0000000  1.0460000  1
  11210  11211  11231  11232     1  0.0000000  0.6694400  3
  11210  11221  11226  11227     1  0.0000000  1.0460000  1
  11210  11221  11226  11227     1  0.0000000  0.6694400  3
  11210  11228  11215  11218     1  0.0000000  1.6038667  3
  11211  11213  11214  11216     1  0.0000000  0.6508444  3
  11211  11213  11220  11222     1  0.0000000  1.0460000  1
  11211  11213  11220  11222     1  0.0000000  0.6694400  3
  11211  11210  11221  11224     1  0.0000000  0.6508444  3
  11211  11210  11221  11225     1  0.0000000  0.6508444  3
  11212  11210  11211  11213     1  0.0000000  0.6508444  3
  11212  11210  11211  11231     1  0.0000000  1.0460000  1
  11212  11210  11211  11231     1  0.0000000  0.0000000  3
  11212  11210  11211  11230     1  0.0000000  0.6508444  3
  11212  11210  11221  11226     1  0.0000000  1.0460000  1
  11212  11210  11221  11226     1  0.0000000  0.0000000  3
  11212  11210  11221  11224     1  0.0000000  0.6508444  3
  11212  11210  11221  11225     1  0.0000000  0.6508444  3
  11212  11210  11228  11215     1  0.0000000  1.6038667  3
  11213  11214  11215  11218     1  0.0000000  0.6508444  3
  11213  11214  11233  11223     1  0.0000000  1.2552000  3
  11213  11211  11231  11232     1  0.0000000  1.0460000  1
  11213  11211  11231  11232     1  0.0000000  0.6694400  3
  11214  11215  11219  11229     1  0.0000000  1.0460000  1
  11214  11215  11219  11229     1  0.0000000  0.6694400  3
  11214  11213  11220  11222     1  0.0000000  1.0460000  1
  11214  11213  11220  11222     1  0.0000000  0.6694400  3
  11214  11213  11211  11230     1  0.0000000  0.6508444  3
  11215  11214  11233  11223     1  0.0000000  1.2552000  3
  11215  11214  11213  11217     1  0.0000000  0.6508444  3
  11216  11214  11215  11219     1  0.0000000  1.0460000  1
  11216  11214  11215  11219     1  0.0000000  0.0000000  3
  11216  11214  11215  11228     1  0.0000000  1.0460000  1
  11216  11214  11215  11228     1  0.0000000  0.0000000  3
  11216  11214  11215  11218     1  0.0000000  0.6508444  3
  11216  11214  11233  11223     1  0.0000000  1.2552000  3
  11216  11214  11213  11220     1  0.0000000  1.0460000  1
  11216  11214  11213  11220     1  0.0000000  0.0000000  3
  11216  11214  11213  11217     1  0.0000000  0.6508444  3
  11217  11213  11214  11233     1  0.0000000  0.6508444  3
  11217  11213  11220  11222     1  0.0000000  0.6973333  3
  11217  11213  11211  11231     1  0.0000000  1.0460000  1
  11217  11213  11211  11231     1  0.0000000  0.0000000  3
  11217  11213  11211  11230     1  0.0000000  0.6508444  3
  11218  11215  11219  11229     1  0.0000000  0.6973333  3
  11218  11215  11214  11233     1  0.0000000  0.6508444  3
  11220  11213  11211  11230     1  0.0000000  1.0460000  1
  11220  11213  11211  11230     1  0.0000000  0.0000000  3
  11221  11210  11211  11230     1  0.0000000  0.6508444  3
  11224  11221  11226  11227     1  0.0000000  0.6973333  3
  11224  11221  11210  11228     1  0.0000000  1.0460000  1
  11224  11221  11210  11228     1  0.0000000  0.0000000  3
  11225  11221  11226  11227     1  0.0000000  0.6973333  3
  11225  11221  11210  11228     1  0.0000000  1.0460000  1
  11225  11221  11210  11228     1  0.0000000  0.0000000  3
  11228  11215  11219  11229     1  0.0000000  0.6973333  3
  11228  11210  11211  11230     1  0.0000000  1.0460000  1
  11228  11210  11211  11230     1  0.0000000  0.0000000  3
  11230  11211  11231  11232     1  0.0000000  0.6973333  3
  11234  11235  11237  11241     1  0.0000000  0.6508444  3
  11234  11235  11255  11256     1  0.0000000  1.0460000  1
  11234  11235  11255  11256     1  0.0000000  0.6694400  3
  11234  11245  11250  11251     1  0.0000000  1.0460000  1
  11234  11245  11250  11251     1  0.0000000  0.6694400  3
  11234  11252  11239  11242     1  0.0000000  1.6038667  3
  11235  11237  11238  11240     1  0.0000000  0.6508444  3
  11235  11237  11244  11246     1  0.0000000  1.0460000  1
  11235  11237  11244  11246     1  0.0000000  0.6694400  3
  11235  11234  11245  11248     1  0.0000000  0.6508444  3
  11235  11234  11245  11249     1  0.0000000  0.6508444  3
  11236  11234  11235  11237     1  0.0000000  0.6508444  3
  11236  11234  11235  11255     1  0.0000000  1.0460000  1
  11236  11234  11235  11255     1  0.0000000  0.0000000  3
  11236  11234  11235  11254     1  0.0000000  0.6508444  3
  11236  11234  11245  11250     1  0.0000000  1.0460000  1
  11236  11234  11245  11250     1  0.0000000  0.0000000  3
  11236  11234  11245  11248     1  0.0000000  0.6508444  3
  11236  11234  11245  11249     1  0.0000000  0.6508444  3
  11236  11234  11252  11239     1  0.0000000  1.6038667  3
  11237  11238  11239  11242     1  0.0000000  0.6508444  3
  11237  11238  11257  11247     1  0.0000000  1.2552000  3
  11237  11235  11255  11256     1  0.0000000  1.0460000  1
  11237  11235  11255  11256     1  0.0000000  0.6694400  3
  11238  11239  11243  11253     1  0.0000000  1.0460000  1
  11238  11239  11243  11253     1  0.0000000  0.6694400  3
  11238  11237  11244  11246     1  0.0000000  1.0460000  1
  11238  11237  11244  11246     1  0.0000000  0.6694400  3
  11238  11237  11235  11254     1  0.0000000  0.6508444  3
  11239  11238  11257  11247     1  0.0000000  1.2552000  3
  11239  11238  11237  11241     1  0.0000000  0.6508444  3
  11240  11238  11239  11243     1  0.0000000  1.0460000  1
  11240  11238  11239  11243     1  0.0000000  0.0000000  3
  11240  11238  11239  11252     1  0.0000000  1.0460000  1
  11240  11238  11239  11252     1  0.0000000  0.0000000  3
  11240  11238  11239  11242     1  0.0000000  0.6508444  3
  11240  11238  11257  11247     1  0.0000000  1.2552000  3
  11240  11238  11237  11244     1  0.0000000  1.0460000  1
  11240  11238  11237  11244     1  0.0000000  0.0000000  3
  11240  11238  11237  11241     1  0.0000000  0.6508444  3
  11241  11237  11238  11257     1  0.0000000  0.6508444  3
  11241  11237  11244  11246     1  0.0000000  0.6973333  3
  11241  11237  11235  11255     1  0.0000000  1.0460000  1
  11241  11237  11235  11255     1  0.0000000  0.0000000  3
  11241  11237  11235  11254     1  0.0000000  0.6508444  3
  11242  11239  11243  11253     1  0.0000000  0.6973333  3
  11242  11239  11238  11257     1  0.0000000  0.6508444  3
  11244  11237  11235  11254     1  0.0000000  1.0460000  1
  11244  11237  11235  11254     1  0.0000000  0.0000000  3
  11245  11234  11235  11254     1  0.0000000  0.6508444  3
  11248  11245  11250  11251     1  0.0000000  0.6973333  3
  11248  11245  11234  11252     1  0.0000000  1.0460000  1
  11248  11245  11234  11252     1  0.0000000  0.0000000  3
  11249  11245  11250  11251     1  0.0000000  0.6973333  3
  11249  11245  11234  11252     1  0.0000000  1.0460000  1
  11249  11245  11234  11252     1  0.0000000  0.0000000  3
  11252  11239  11243  11253     1  0.0000000  0.6973333  3
  11252  11234  11235  11254     1  0.0000000  1.0460000  1
  11252  11234  11235  11254     1  0.0000000  0.0000000  3
  11254  11235  11255  11256     1  0.0000000  0.6973333  3
  11259  11261  11263  11265     1  0.0000000  0.6508444  3
  11259  11261  11263  11266     1  0.0000000  0.6508444  3
  11260  11259  11261  11263     1  0.0000000  0.0000000  2
  11260  11259  11261  11262     1  0.0000000  0.0000000  2
  11260  11259  11261  11264     1  0.0000000  0.0000000  2
  11261  11263  11267  11332     1  0.0000000  0.6508444  3
  11262  11261  11263  11267     1  0.0000000  0.6508444  3
  11262  11261  11263  11265     1  0.0000000  0.6508444  3
  11262  11261  11263  11266     1  0.0000000  0.6508444  3
  11263  11267  11268  11277     1  0.0000000  0.6508444  3
  11263  11267  11268  11278     1  0.0000000  0.6508444  3
  11263  11267  11269  11270     1  0.0000000  0.6508444  3
  11263  11267  11269  11272     1  0.0000000  0.6508444  3
  11264  11261  11263  11267     1  0.0000000  0.6508444  3
  11264  11261  11263  11265     1  0.0000000  0.6508444  3
  11264  11261  11263  11266     1  0.0000000  0.6508444  3
  11265  11263  11267  11268     1  0.0000000  0.6508444  3
  11265  11263  11267  11269     1  0.0000000  0.6508444  3
  11265  11263  11267  11332     1  0.0000000  0.6508444  3
  11266  11263  11267  11268     1  0.0000000  0.6508444  3
  11266  11263  11267  11269     1  0.0000000  0.6508444  3
  11266  11263  11267  11332     1  0.0000000  0.6508444  3
  11267  11268  11279  11280     1  0.0000000  0.6508444  3
  11267  11268  11279  11281     1  0.0000000  0.6508444  3
  11267  11269  11271  11273     1  0.0000000  0.6508444  3
  11267  11269  11271  11274     1  0.0000000  0.6508444  3
  11268  11267  11269  11270     1  0.0000000  0.6508444  3
  11268  11267  11269  11272     1  0.0000000  0.6508444  3
  11269  11267  11268  11277     1  0.0000000  0.6508444  3
  11269  11267  11268  11278     1  0.0000000  0.6508444  3
  11270  11269  11267  11332     1  0.0000000  0.6508444  3
  11270  11269  11271  11275     1  0.0000000  0.6508444  3
  11270  11269  11271  11273     1  0.0000000  0.6508444  3
  11270  11269  11271  11274     1  0.0000000  0.6508444  3
  11271  11269  11267  11332     1  0.0000000  0.6508444  3
  11271  11275  11307  11297     1  180.0000771  6.0668000  2
  11271  11275  11307  11297     1  180.0000771  1.4644000  4
  11272  11269  11267  11332     1  0.0000000  0.6508444  3
  11272  11269  11271  11275     1  0.0000000  0.6508444  3
  11272  11269  11271  11273     1  0.0000000  0.6508444  3
  11272  11269  11271  11274     1  0.0000000  0.6508444  3
  11273  11271  11275  11276     1  0.0000000  3.3472000  1
  11273  11271  11275  11276     1  0.0000000  0.0000000  2
  11273  11271  11275  11276     1  180.0000771  0.3347200  3
  11273  11271  11275  11307     1  180.0000771  0.0000000  2
  11274  11271  11275  11276     1  0.0000000  3.3472000  1
  11274  11271  11275  11276     1  0.0000000  0.0000000  2
  11274  11271  11275  11276     1  180.0000771  0.3347200  3
  11274  11271  11275  11307     1  180.0000771  0.0000000  2
  11275  11307  11288  11290     1  0.0000000  1.2552000  3
  11276  11275  11307  11297     1  180.0000771  6.0668000  2
  11276  11275  11307  11297     1  180.0000771  1.4644000  4
  11277  11268  11267  11332     1  0.0000000  0.6508444  3
  11277  11268  11279  11282     1  0.0000000  0.6508444  3
  11277  11268  11279  11280     1  0.0000000  0.6508444  3
  11277  11268  11279  11281     1  0.0000000  0.6508444  3
  11278  11268  11267  11332     1  0.0000000  0.6508444  3
  11278  11268  11279  11282     1  0.0000000  0.6508444  3
  11278  11268  11279  11280     1  0.0000000  0.6508444  3
  11278  11268  11279  11281     1  0.0000000  0.6508444  3
  11279  11268  11267  11332     1  0.0000000  0.6508444  3
  11279  11282  11331  11321     1  180.0000771  6.0668000  2
  11279  11282  11331  11321     1  180.0000771  1.4644000  4
  11280  11279  11282  11283     1  0.0000000  3.3472000  1
  11280  11279  11282  11283     1  0.0000000  0.0000000  2
  11280  11279  11282  11283     1  180.0000771  0.3347200  3
  11280  11279  11282  11331     1  180.0000771  0.0000000  2
  11281  11279  11282  11283     1  0.0000000  3.3472000  1
  11281  11279  11282  11283     1  0.0000000  0.0000000  2
  11281  11279  11282  11283     1  180.0000771  0.3347200  3
  11281  11279  11282  11331     1  180.0000771  0.0000000  2
  11282  11331  11312  11314     1  0.0000000  1.2552000  3
  11283  11282  11331  11321     1  180.0000771  6.0668000  2
  11283  11282  11331  11321     1  180.0000771  1.4644000  4
  11284  11285  11287  11291     1  0.0000000  0.6508444  3
  11284  11285  11305  11306     1  0.0000000  1.0460000  1
  11284  11285  11305  11306     1  0.0000000  0.6694400  3
  11284  11295  11300  11301     1  0.0000000  1.0460000  1
  11284  11295  11300  11301     1  0.0000000  0.6694400  3
  11284  11302  11289  11292     1  0.0000000  1.6038667  3
  11285  11284  11295  11298     1  0.0000000  0.6508444  3
  11285  11284  11295  11299     1  0.0000000  0.6508444  3
  11285  11287  11288  11290     1  0.0000000  0.6508444  3
  11285  11287  11294  11296     1  0.0000000  1.0460000  1
  11285  11287  11294  11296     1  0.0000000  0.6694400  3
  11286  11284  11285  11287     1  0.0000000  0.6508444  3
  11286  11284  11285  11305     1  0.0000000  1.0460000  1
  11286  11284  11285  11305     1  0.0000000  0.0000000  3
  11286  11284  11285  11304     1  0.0000000  0.6508444  3
  11286  11284  11295  11300     1  0.0000000  1.0460000  1
  11286  11284  11295  11300     1  0.0000000  0.0000000  3
  11286  11284  11295  11298     1  0.0000000  0.6508444  3
  11286  11284  11295  11299     1  0.0000000  0.6508444  3
  11286  11284  11302  11289     1  0.0000000  1.6038667  3
  11287  11285  11305  11306     1  0.0000000  1.0460000  1
  11287  11285  11305  11306     1  0.0000000  0.6694400  3
  11287  11288  11289  11292     1  0.0000000  0.6508444  3
  11287  11288  11307  11297     1  0.0000000  1.2552000  3
  11288  11287  11285  11304     1  0.0000000  0.6508444  3
  11288  11287  11294  11296     1  0.0000000  1.0460000  1
  11288  11287  11294  11296     1  0.0000000  0.6694400  3
  11288  11289  11293  11303     1  0.0000000  1.0460000  1
  11288  11289  11293  11303     1  0.0000000  0.6694400  3
  11289  11288  11287  11291     1  0.0000000  0.6508444  3
  11289  11288  11307  11297     1  0.0000000  1.2552000  3
  11290  11288  11287  11294     1  0.0000000  1.0460000  1
  11290  11288  11287  11294     1  0.0000000  0.0000000  3
  11290  11288  11287  11291     1  0.0000000  0.6508444  3
  11290  11288  11289  11293     1  0.0000000  1.0460000  1
  11290  11288  11289  11293     1  0.0000000  0.0000000  3
  11290  11288  11289  11302     1  0.0000000  1.0460000  1
  11290  11288  11289  11302     1  0.0000000  0.0000000  3
  11290  11288  11289  11292     1  0.0000000  0.6508444  3
  11290  11288  11307  11297     1  0.0000000  1.2552000  3
  11291  11287  11285  11305     1  0.0000000  1.0460000  1
  11291  11287  11285  11305     1  0.0000000  0.0000000  3
  11291  11287  11285  11304     1  0.0000000  0.6508444  3
  11291  11287  11288  11307     1  0.0000000  0.6508444  3
  11291  11287  11294  11296     1  0.0000000  0.6973333  3
  11292  11289  11288  11307     1  0.0000000  0.6508444  3
  11292  11289  11293  11303     1  0.0000000  0.6973333  3
  11294  11287  11285  11304     1  0.0000000  1.0460000  1
  11294  11287  11285  11304     1  0.0000000  0.0000000  3
  11295  11284  11285  11304     1  0.0000000  0.6508444  3
  11298  11295  11284  11302     1  0.0000000  1.0460000  1
  11298  11295  11284  11302     1  0.0000000  0.0000000  3
  11298  11295  11300  11301     1  0.0000000  0.6973333  3
  11299  11295  11284  11302     1  0.0000000  1.0460000  1
  11299  11295  11284  11302     1  0.0000000  0.0000000  3
  11299  11295  11300  11301     1  0.0000000  0.6973333  3
  11302  11284  11285  11304     1  0.0000000  1.0460000  1
  11302  11284  11285  11304     1  0.0000000  0.0000000  3
  11302  11289  11293  11303     1  0.0000000  0.6973333  3
  11304  11285  11305  11306     1  0.0000000  0.6973333  3
  11308  11309  11311  11315     1  0.0000000  0.6508444  3
  11308  11309  11329  11330     1  0.0000000  1.0460000  1
  11308  11309  11329  11330     1  0.0000000  0.6694400  3
  11308  11319  11324  11325     1  0.0000000  1.0460000  1
  11308  11319  11324  11325     1  0.0000000  0.6694400  3
  11308  11326  11313  11316     1  0.0000000  1.6038667  3
  11309  11308  11319  11322     1  0.0000000  0.6508444  3
  11309  11308  11319  11323     1  0.0000000  0.6508444  3
  11309  11311  11312  11314     1  0.0000000  0.6508444  3
  11309  11311  11318  11320     1  0.0000000  1.0460000  1
  11309  11311  11318  11320     1  0.0000000  0.6694400  3
  11310  11308  11309  11311     1  0.0000000  0.6508444  3
  11310  11308  11309  11329     1  0.0000000  1.0460000  1
  11310  11308  11309  11329     1  0.0000000  0.0000000  3
  11310  11308  11309  11328     1  0.0000000  0.6508444  3
  11310  11308  11319  11324     1  0.0000000  1.0460000  1
  11310  11308  11319  11324     1  0.0000000  0.0000000  3
  11310  11308  11319  11322     1  0.0000000  0.6508444  3
  11310  11308  11319  11323     1  0.0000000  0.6508444  3
  11310  11308  11326  11313     1  0.0000000  1.6038667  3
  11311  11309  11329  11330     1  0.0000000  1.0460000  1
  11311  11309  11329  11330     1  0.0000000  0.6694400  3
  11311  11312  11313  11316     1  0.0000000  0.6508444  3
  11311  11312  11331  11321     1  0.0000000  1.2552000  3
  11312  11311  11309  11328     1  0.0000000  0.6508444  3
  11312  11311  11318  11320     1  0.0000000  1.0460000  1
  11312  11311  11318  11320     1  0.0000000  0.6694400  3
  11312  11313  11317  11327     1  0.0000000  1.0460000  1
  11312  11313  11317  11327     1  0.0000000  0.6694400  3
  11313  11312  11311  11315     1  0.0000000  0.6508444  3
  11313  11312  11331  11321     1  0.0000000  1.2552000  3
  11314  11312  11311  11318     1  0.0000000  1.0460000  1
  11314  11312  11311  11318     1  0.0000000  0.0000000  3
  11314  11312  11311  11315     1  0.0000000  0.6508444  3
  11314  11312  11313  11317     1  0.0000000  1.0460000  1
  11314  11312  11313  11317     1  0.0000000  0.0000000  3
  11314  11312  11313  11326     1  0.0000000  1.0460000  1
  11314  11312  11313  11326     1  0.0000000  0.0000000  3
  11314  11312  11313  11316     1  0.0000000  0.6508444  3
  11314  11312  11331  11321     1  0.0000000  1.2552000  3
  11315  11311  11309  11329     1  0.0000000  1.0460000  1
  11315  11311  11309  11329     1  0.0000000  0.0000000  3
  11315  11311  11309  11328     1  0.0000000  0.6508444  3
  11315  11311  11312  11331     1  0.0000000  0.6508444  3
  11315  11311  11318  11320     1  0.0000000  0.6973333  3
  11316  11313  11312  11331     1  0.0000000  0.6508444  3
  11316  11313  11317  11327     1  0.0000000  0.6973333  3
  11318  11311  11309  11328     1  0.0000000  1.0460000  1
  11318  11311  11309  11328     1  0.0000000  0.0000000  3
  11319  11308  11309  11328     1  0.0000000  0.6508444  3
  11322  11319  11308  11326     1  0.0000000  1.0460000  1
  11322  11319  11308  11326     1  0.0000000  0.0000000  3
  11322  11319  11324  11325     1  0.0000000  0.6973333  3
  11323  11319  11308  11326     1  0.0000000  1.0460000  1
  11323  11319  11308  11326     1  0.0000000  0.0000000  3
  11323  11319  11324  11325     1  0.0000000  0.6973333  3
  11326  11308  11309  11328     1  0.0000000  1.0460000  1
  11326  11308  11309  11328     1  0.0000000  0.0000000  3
  11326  11313  11317  11327     1  0.0000000  0.6973333  3
  11328  11309  11329  11330     1  0.0000000  0.6973333  3
  11333  11335  11337  11339     1  0.0000000  0.6508444  3
  11333  11335  11337  11340     1  0.0000000  0.6508444  3
  11334  11333  11335  11337     1  0.0000000  0.0000000  2
  11334  11333  11335  11336     1  0.0000000  0.0000000  2
  11334  11333  11335  11338     1  0.0000000  0.0000000  2
  11335  11337  11341  11406     1  0.0000000  0.6508444  3
  11336  11335  11337  11341     1  0.0000000  0.6508444  3
  11336  11335  11337  11339     1  0.0000000  0.6508444  3
  11336  11335  11337  11340     1  0.0000000  0.6508444  3
  11337  11341  11342  11351     1  0.0000000  0.6508444  3
  11337  11341  11342  11352     1  0.0000000  0.6508444  3
  11337  11341  11343  11344     1  0.0000000  0.6508444  3
  11337  11341  11343  11346     1  0.0000000  0.6508444  3
  11338  11335  11337  11341     1  0.0000000  0.6508444  3
  11338  11335  11337  11339     1  0.0000000  0.6508444  3
  11338  11335  11337  11340     1  0.0000000  0.6508444  3
  11339  11337  11341  11342     1  0.0000000  0.6508444  3
  11339  11337  11341  11343     1  0.0000000  0.6508444  3
  11339  11337  11341  11406     1  0.0000000  0.6508444  3
  11340  11337  11341  11342     1  0.0000000  0.6508444  3
  11340  11337  11341  11343     1  0.0000000  0.6508444  3
  11340  11337  11341  11406     1  0.0000000  0.6508444  3
  11341  11342  11353  11354     1  0.0000000  0.6508444  3
  11341  11342  11353  11355     1  0.0000000  0.6508444  3
  11341  11343  11345  11347     1  0.0000000  0.6508444  3
  11341  11343  11345  11348     1  0.0000000  0.6508444  3
  11342  11341  11343  11344     1  0.0000000  0.6508444  3
  11342  11341  11343  11346     1  0.0000000  0.6508444  3
  11343  11341  11342  11351     1  0.0000000  0.6508444  3
  11343  11341  11342  11352     1  0.0000000  0.6508444  3
  11344  11343  11345  11349     1  0.0000000  0.6508444  3
  11344  11343  11345  11347     1  0.0000000  0.6508444  3
  11344  11343  11345  11348     1  0.0000000  0.6508444  3
  11344  11343  11341  11406     1  0.0000000  0.6508444  3
  11345  11349  11381  11371     1  180.0000771  6.0668000  2
  11345  11349  11381  11371     1  180.0000771  1.4644000  4
  11345  11343  11341  11406     1  0.0000000  0.6508444  3
  11346  11343  11345  11349     1  0.0000000  0.6508444  3
  11346  11343  11345  11347     1  0.0000000  0.6508444  3
  11346  11343  11345  11348     1  0.0000000  0.6508444  3
  11346  11343  11341  11406     1  0.0000000  0.6508444  3
  11347  11345  11349  11350     1  0.0000000  3.3472000  1
  11347  11345  11349  11350     1  0.0000000  0.0000000  2
  11347  11345  11349  11350     1  180.0000771  0.3347200  3
  11347  11345  11349  11381     1  180.0000771  0.0000000  2
  11348  11345  11349  11350     1  0.0000000  3.3472000  1
  11348  11345  11349  11350     1  0.0000000  0.0000000  2
  11348  11345  11349  11350     1  180.0000771  0.3347200  3
  11348  11345  11349  11381     1  180.0000771  0.0000000  2
  11349  11381  11362  11364     1  0.0000000  1.2552000  3
  11350  11349  11381  11371     1  180.0000771  6.0668000  2
  11350  11349  11381  11371     1  180.0000771  1.4644000  4
  11351  11342  11353  11356     1  0.0000000  0.6508444  3
  11351  11342  11353  11354     1  0.0000000  0.6508444  3
  11351  11342  11353  11355     1  0.0000000  0.6508444  3
  11351  11342  11341  11406     1  0.0000000  0.6508444  3
  11352  11342  11353  11356     1  0.0000000  0.6508444  3
  11352  11342  11353  11354     1  0.0000000  0.6508444  3
  11352  11342  11353  11355     1  0.0000000  0.6508444  3
  11352  11342  11341  11406     1  0.0000000  0.6508444  3
  11353  11356  11405  11395     1  180.0000771  6.0668000  2
  11353  11356  11405  11395     1  180.0000771  1.4644000  4
  11353  11342  11341  11406     1  0.0000000  0.6508444  3
  11354  11353  11356  11357     1  0.0000000  3.3472000  1
  11354  11353  11356  11357     1  0.0000000  0.0000000  2
  11354  11353  11356  11357     1  180.0000771  0.3347200  3
  11354  11353  11356  11405     1  180.0000771  0.0000000  2
  11355  11353  11356  11357     1  0.0000000  3.3472000  1
  11355  11353  11356  11357     1  0.0000000  0.0000000  2
  11355  11353  11356  11357     1  180.0000771  0.3347200  3
  11355  11353  11356  11405     1  180.0000771  0.0000000  2
  11356  11405  11386  11388     1  0.0000000  1.2552000  3
  11357  11356  11405  11395     1  180.0000771  6.0668000  2
  11357  11356  11405  11395     1  180.0000771  1.4644000  4
  11358  11359  11361  11365     1  0.0000000  0.6508444  3
  11358  11359  11379  11380     1  0.0000000  1.0460000  1
  11358  11359  11379  11380     1  0.0000000  0.6694400  3
  11358  11369  11374  11375     1  0.0000000  1.0460000  1
  11358  11369  11374  11375     1  0.0000000  0.6694400  3
  11358  11376  11363  11366     1  0.0000000  1.6038667  3
  11359  11361  11362  11364     1  0.0000000  0.6508444  3
  11359  11361  11368  11370     1  0.0000000  1.0460000  1
  11359  11361  11368  11370     1  0.0000000  0.6694400  3
  11359  11358  11369  11372     1  0.0000000  0.6508444  3
  11359  11358  11369  11373     1  0.0000000  0.6508444  3
  11360  11358  11359  11361     1  0.0000000  0.6508444  3
  11360  11358  11359  11379     1  0.0000000  1.0460000  1
  11360  11358  11359  11379     1  0.0000000  0.0000000  3
  11360  11358  11359  11378     1  0.0000000  0.6508444  3
  11360  11358  11369  11374     1  0.0000000  1.0460000  1
  11360  11358  11369  11374     1  0.0000000  0.0000000  3
  11360  11358  11369  11372     1  0.0000000  0.6508444  3
  11360  11358  11369  11373     1  0.0000000  0.6508444  3
  11360  11358  11376  11363     1  0.0000000  1.6038667  3
  11361  11362  11363  11366     1  0.0000000  0.6508444  3
  11361  11362  11381  11371     1  0.0000000  1.2552000  3
  11361  11359  11379  11380     1  0.0000000  1.0460000  1
  11361  11359  11379  11380     1  0.0000000  0.6694400  3
  11362  11363  11367  11377     1  0.0000000  1.0460000  1
  11362  11363  11367  11377     1  0.0000000  0.6694400  3
  11362  11361  11368  11370     1  0.0000000  1.0460000  1
  11362  11361  11368  11370     1  0.0000000  0.6694400  3
  11362  11361  11359  11378     1  0.0000000  0.6508444  3
  11363  11362  11381  11371     1  0.0000000  1.2552000  3
  11363  11362  11361  11365     1  0.0000000  0.6508444  3
  11364  11362  11363  11367     1  0.0000000  1.0460000  1
  11364  11362  11363  11367     1  0.0000000  0.0000000  3
  11364  11362  11363  11376     1  0.0000000  1.0460000  1
  11364  11362  11363  11376     1  0.0000000  0.0000000  3
  11364  11362  11363  11366     1  0.0000000  0.6508444  3
  11364  11362  11381  11371     1  0.0000000  1.2552000  3
  11364  11362  11361  11368     1  0.0000000  1.0460000  1
  11364  11362  11361  11368     1  0.0000000  0.0000000  3
  11364  11362  11361  11365     1  0.0000000  0.6508444  3
  11365  11361  11362  11381     1  0.0000000  0.6508444  3
  11365  11361  11368  11370     1  0.0000000  0.6973333  3
  11365  11361  11359  11379     1  0.0000000  1.0460000  1
  11365  11361  11359  11379     1  0.0000000  0.0000000  3
  11365  11361  11359  11378     1  0.0000000  0.6508444  3
  11366  11363  11367  11377     1  0.0000000  0.6973333  3
  11366  11363  11362  11381     1  0.0000000  0.6508444  3
  11368  11361  11359  11378     1  0.0000000  1.0460000  1
  11368  11361  11359  11378     1  0.0000000  0.0000000  3
  11369  11358  11359  11378     1  0.0000000  0.6508444  3
  11372  11369  11374  11375     1  0.0000000  0.6973333  3
  11372  11369  11358  11376     1  0.0000000  1.0460000  1
  11372  11369  11358  11376     1  0.0000000  0.0000000  3
  11373  11369  11374  11375     1  0.0000000  0.6973333  3
  11373  11369  11358  11376     1  0.0000000  1.0460000  1
  11373  11369  11358  11376     1  0.0000000  0.0000000  3
  11376  11363  11367  11377     1  0.0000000  0.6973333  3
  11376  11358  11359  11378     1  0.0000000  1.0460000  1
  11376  11358  11359  11378     1  0.0000000  0.0000000  3
  11378  11359  11379  11380     1  0.0000000  0.6973333  3
  11382  11383  11385  11389     1  0.0000000  0.6508444  3
  11382  11383  11403  11404     1  0.0000000  1.0460000  1
  11382  11383  11403  11404     1  0.0000000  0.6694400  3
  11382  11393  11398  11399     1  0.0000000  1.0460000  1
  11382  11393  11398  11399     1  0.0000000  0.6694400  3
  11382  11400  11387  11390     1  0.0000000  1.6038667  3
  11383  11385  11386  11388     1  0.0000000  0.6508444  3
  11383  11385  11392  11394     1  0.0000000  1.0460000  1
  11383  11385  11392  11394     1  0.0000000  0.6694400  3
  11383  11382  11393  11396     1  0.0000000  0.6508444  3
  11383  11382  11393  11397     1  0.0000000  0.6508444  3
  11384  11382  11383  11385     1  0.0000000  0.6508444  3
  11384  11382  11383  11403     1  0.0000000  1.0460000  1
  11384  11382  11383  11403     1  0.0000000  0.0000000  3
  11384  11382  11383  11402     1  0.0000000  0.6508444  3
  11384  11382  11393  11398     1  0.0000000  1.0460000  1
  11384  11382  11393  11398     1  0.0000000  0.0000000  3
  11384  11382  11393  11396     1  0.0000000  0.6508444  3
  11384  11382  11393  11397     1  0.0000000  0.6508444  3
  11384  11382  11400  11387     1  0.0000000  1.6038667  3
  11385  11386  11387  11390     1  0.0000000  0.6508444  3
  11385  11386  11405  11395     1  0.0000000  1.2552000  3
  11385  11383  11403  11404     1  0.0000000  1.0460000  1
  11385  11383  11403  11404     1  0.0000000  0.6694400  3
  11386  11387  11391  11401     1  0.0000000  1.0460000  1
  11386  11387  11391  11401     1  0.0000000  0.6694400  3
  11386  11385  11392  11394     1  0.0000000  1.0460000  1
  11386  11385  11392  11394     1  0.0000000  0.6694400  3
  11386  11385  11383  11402     1  0.0000000  0.6508444  3
  11387  11386  11405  11395     1  0.0000000  1.2552000  3
  11387  11386  11385  11389     1  0.0000000  0.6508444  3
  11388  11386  11387  11391     1  0.0000000  1.0460000  1
  11388  11386  11387  11391     1  0.0000000  0.0000000  3
  11388  11386  11387  11400     1  0.0000000  1.0460000  1
  11388  11386  11387  11400     1  0.0000000  0.0000000  3
  11388  11386  11387  11390     1  0.0000000  0.6508444  3
  11388  11386  11405  11395     1  0.0000000  1.2552000  3
  11388  11386  11385  11392     1  0.0000000  1.0460000  1
  11388  11386  11385  11392     1  0.0000000  0.0000000  3
  11388  11386  11385  11389     1  0.0000000  0.6508444  3
  11389  11385  11386  11405     1  0.0000000  0.6508444  3
  11389  11385  11392  11394     1  0.0000000  0.6973333  3
  11389  11385  11383  11403     1  0.0000000  1.0460000  1
  11389  11385  11383  11403     1  0.0000000  0.0000000  3
  11389  11385  11383  11402     1  0.0000000  0.6508444  3
  11390  11387  11391  11401     1  0.0000000  0.6973333  3
  11390  11387  11386  11405     1  0.0000000  0.6508444  3
  11392  11385  11383  11402     1  0.0000000  1.0460000  1
  11392  11385  11383  11402     1  0.0000000  0.0000000  3
  11393  11382  11383  11402     1  0.0000000  0.6508444  3
  11396  11393  11398  11399     1  0.0000000  0.6973333  3
  11396  11393  11382  11400     1  0.0000000  1.0460000  1
  11396  11393  11382  11400     1  0.0000000  0.0000000  3
  11397  11393  11398  11399     1  0.0000000  0.6973333  3
  11397  11393  11382  11400     1  0.0000000  1.0460000  1
  11397  11393  11382  11400     1  0.0000000  0.0000000  3
  11400  11387  11391  11401     1  0.0000000  0.6973333  3
  11400  11382  11383  11402     1  0.0000000  1.0460000  1
  11400  11382  11383  11402     1  0.0000000  0.0000000  3
  11402  11383  11403  11404     1  0.0000000  0.6973333  3
  11407  11409  11411  11413     1  0.0000000  0.6508444  3
  11407  11409  11411  11414     1  0.0000000  0.6508444  3
  11408  11407  11409  11411     1  0.0000000  0.0000000  2
  11408  11407  11409  11410     1  0.0000000  0.0000000  2
  11408  11407  11409  11412     1  0.0000000  0.0000000  2
  11409  11411  11415  11480     1  0.0000000  0.6508444  3
  11410  11409  11411  11415     1  0.0000000  0.6508444  3
  11410  11409  11411  11413     1  0.0000000  0.6508444  3
  11410  11409  11411  11414     1  0.0000000  0.6508444  3
  11411  11415  11416  11425     1  0.0000000  0.6508444  3
  11411  11415  11416  11426     1  0.0000000  0.6508444  3
  11411  11415  11417  11418     1  0.0000000  0.6508444  3
  11411  11415  11417  11420     1  0.0000000  0.6508444  3
  11412  11409  11411  11415     1  0.0000000  0.6508444  3
  11412  11409  11411  11413     1  0.0000000  0.6508444  3
  11412  11409  11411  11414     1  0.0000000  0.6508444  3
  11413  11411  11415  11416     1  0.0000000  0.6508444  3
  11413  11411  11415  11417     1  0.0000000  0.6508444  3
  11413  11411  11415  11480     1  0.0000000  0.6508444  3
  11414  11411  11415  11416     1  0.0000000  0.6508444  3
  11414  11411  11415  11417     1  0.0000000  0.6508444  3
  11414  11411  11415  11480     1  0.0000000  0.6508444  3
  11415  11416  11427  11428     1  0.0000000  0.6508444  3
  11415  11416  11427  11429     1  0.0000000  0.6508444  3
  11415  11417  11419  11421     1  0.0000000  0.6508444  3
  11415  11417  11419  11422     1  0.0000000  0.6508444  3
  11416  11415  11417  11418     1  0.0000000  0.6508444  3
  11416  11415  11417  11420     1  0.0000000  0.6508444  3
  11417  11415  11416  11425     1  0.0000000  0.6508444  3
  11417  11415  11416  11426     1  0.0000000  0.6508444  3
  11418  11417  11415  11480     1  0.0000000  0.6508444  3
  11418  11417  11419  11423     1  0.0000000  0.6508444  3
  11418  11417  11419  11421     1  0.0000000  0.6508444  3
  11418  11417  11419  11422     1  0.0000000  0.6508444  3
  11419  11417  11415  11480     1  0.0000000  0.6508444  3
  11419  11423  11455  11445     1  180.0000771  6.0668000  2
  11419  11423  11455  11445     1  180.0000771  1.4644000  4
  11420  11417  11415  11480     1  0.0000000  0.6508444  3
  11420  11417  11419  11423     1  0.0000000  0.6508444  3
  11420  11417  11419  11421     1  0.0000000  0.6508444  3
  11420  11417  11419  11422     1  0.0000000  0.6508444  3
  11421  11419  11423  11424     1  0.0000000  3.3472000  1
  11421  11419  11423  11424     1  0.0000000  0.0000000  2
  11421  11419  11423  11424     1  180.0000771  0.3347200  3
  11421  11419  11423  11455     1  180.0000771  0.0000000  2
  11422  11419  11423  11424     1  0.0000000  3.3472000  1
  11422  11419  11423  11424     1  0.0000000  0.0000000  2
  11422  11419  11423  11424     1  180.0000771  0.3347200  3
  11422  11419  11423  11455     1  180.0000771  0.0000000  2
  11423  11455  11436  11438     1  0.0000000  1.2552000  3
  11424  11423  11455  11445     1  180.0000771  6.0668000  2
  11424  11423  11455  11445     1  180.0000771  1.4644000  4
  11425  11416  11415  11480     1  0.0000000  0.6508444  3
  11425  11416  11427  11430     1  0.0000000  0.6508444  3
  11425  11416  11427  11428     1  0.0000000  0.6508444  3
  11425  11416  11427  11429     1  0.0000000  0.6508444  3
  11426  11416  11415  11480     1  0.0000000  0.6508444  3
  11426  11416  11427  11430     1  0.0000000  0.6508444  3
  11426  11416  11427  11428     1  0.0000000  0.6508444  3
  11426  11416  11427  11429     1  0.0000000  0.6508444  3
  11427  11416  11415  11480     1  0.0000000  0.6508444  3
  11427  11430  11479  11469     1  180.0000771  6.0668000  2
  11427  11430  11479  11469     1  180.0000771  1.4644000  4
  11428  11427  11430  11431     1  0.0000000  3.3472000  1
  11428  11427  11430  11431     1  0.0000000  0.0000000  2
  11428  11427  11430  11431     1  180.0000771  0.3347200  3
  11428  11427  11430  11479     1  180.0000771  0.0000000  2
  11429  11427  11430  11431     1  0.0000000  3.3472000  1
  11429  11427  11430  11431     1  0.0000000  0.0000000  2
  11429  11427  11430  11431     1  180.0000771  0.3347200  3
  11429  11427  11430  11479     1  180.0000771  0.0000000  2
  11430  11479  11460  11462     1  0.0000000  1.2552000  3
  11431  11430  11479  11469     1  180.0000771  6.0668000  2
  11431  11430  11479  11469     1  180.0000771  1.4644000  4
  11432  11433  11435  11439     1  0.0000000  0.6508444  3
  11432  11433  11453  11454     1  0.0000000  1.0460000  1
  11432  11433  11453  11454     1  0.0000000  0.6694400  3
  11432  11443  11448  11449     1  0.0000000  1.0460000  1
  11432  11443  11448  11449     1  0.0000000  0.6694400  3
  11432  11450  11437  11440     1  0.0000000  1.6038667  3
  11433  11432  11443  11446     1  0.0000000  0.6508444  3
  11433  11432  11443  11447     1  0.0000000  0.6508444  3
  11433  11435  11436  11438     1  0.0000000  0.6508444  3
  11433  11435  11442  11444     1  0.0000000  1.0460000  1
  11433  11435  11442  11444     1  0.0000000  0.6694400  3
  11434  11432  11433  11435     1  0.0000000  0.6508444  3
  11434  11432  11433  11453     1  0.0000000  1.0460000  1
  11434  11432  11433  11453     1  0.0000000  0.0000000  3
  11434  11432  11433  11452     1  0.0000000  0.6508444  3
  11434  11432  11443  11448     1  0.0000000  1.0460000  1
  11434  11432  11443  11448     1  0.0000000  0.0000000  3
  11434  11432  11443  11446     1  0.0000000  0.6508444  3
  11434  11432  11443  11447     1  0.0000000  0.6508444  3
  11434  11432  11450  11437     1  0.0000000  1.6038667  3
  11435  11433  11453  11454     1  0.0000000  1.0460000  1
  11435  11433  11453  11454     1  0.0000000  0.6694400  3
  11435  11436  11437  11440     1  0.0000000  0.6508444  3
  11435  11436  11455  11445     1  0.0000000  1.2552000  3
  11436  11435  11433  11452     1  0.0000000  0.6508444  3
  11436  11435  11442  11444     1  0.0000000  1.0460000  1
  11436  11435  11442  11444     1  0.0000000  0.6694400  3
  11436  11437  11441  11451     1  0.0000000  1.0460000  1
  11436  11437  11441  11451     1  0.0000000  0.6694400  3
  11437  11436  11435  11439     1  0.0000000  0.6508444  3
  11437  11436  11455  11445     1  0.0000000  1.2552000  3
  11438  11436  11435  11442     1  0.0000000  1.0460000  1
  11438  11436  11435  11442     1  0.0000000  0.0000000  3
  11438  11436  11435  11439     1  0.0000000  0.6508444  3
  11438  11436  11437  11441     1  0.0000000  1.0460000  1
  11438  11436  11437  11441     1  0.0000000  0.0000000  3
  11438  11436  11437  11450     1  0.0000000  1.0460000  1
  11438  11436  11437  11450     1  0.0000000  0.0000000  3
  11438  11436  11437  11440     1  0.0000000  0.6508444  3
  11438  11436  11455  11445     1  0.0000000  1.2552000  3
  11439  11435  11433  11453     1  0.0000000  1.0460000  1
  11439  11435  11433  11453     1  0.0000000  0.0000000  3
  11439  11435  11433  11452     1  0.0000000  0.6508444  3
  11439  11435  11436  11455     1  0.0000000  0.6508444  3
  11439  11435  11442  11444     1  0.0000000  0.6973333  3
  11440  11437  11436  11455     1  0.0000000  0.6508444  3
  11440  11437  11441  11451     1  0.0000000  0.6973333  3
  11442  11435  11433  11452     1  0.0000000  1.0460000  1
  11442  11435  11433  11452     1  0.0000000  0.0000000  3
  11443  11432  11433  11452     1  0.0000000  0.6508444  3
  11446  11443  11432  11450     1  0.0000000  1.0460000  1
  11446  11443  11432  11450     1  0.0000000  0.0000000  3
  11446  11443  11448  11449     1  0.0000000  0.6973333  3
  11447  11443  11432  11450     1  0.0000000  1.0460000  1
  11447  11443  11432  11450     1  0.0000000  0.0000000  3
  11447  11443  11448  11449     1  0.0000000  0.6973333  3
  11450  11432  11433  11452     1  0.0000000  1.0460000  1
  11450  11432  11433  11452     1  0.0000000  0.0000000  3
  11450  11437  11441  11451     1  0.0000000  0.6973333  3
  11452  11433  11453  11454     1  0.0000000  0.6973333  3
  11456  11457  11459  11463     1  0.0000000  0.6508444  3
  11456  11457  11477  11478     1  0.0000000  1.0460000  1
  11456  11457  11477  11478     1  0.0000000  0.6694400  3
  11456  11467  11472  11473     1  0.0000000  1.0460000  1
  11456  11467  11472  11473     1  0.0000000  0.6694400  3
  11456  11474  11461  11464     1  0.0000000  1.6038667  3
  11457  11456  11467  11470     1  0.0000000  0.6508444  3
  11457  11456  11467  11471     1  0.0000000  0.6508444  3
  11457  11459  11460  11462     1  0.0000000  0.6508444  3
  11457  11459  11466  11468     1  0.0000000  1.0460000  1
  11457  11459  11466  11468     1  0.0000000  0.6694400  3
  11458  11456  11457  11459     1  0.0000000  0.6508444  3
  11458  11456  11457  11477     1  0.0000000  1.0460000  1
  11458  11456  11457  11477     1  0.0000000  0.0000000  3
  11458  11456  11457  11476     1  0.0000000  0.6508444  3
  11458  11456  11467  11472     1  0.0000000  1.0460000  1
  11458  11456  11467  11472     1  0.0000000  0.0000000  3
  11458  11456  11467  11470     1  0.0000000  0.6508444  3
  11458  11456  11467  11471     1  0.0000000  0.6508444  3
  11458  11456  11474  11461     1  0.0000000  1.6038667  3
  11459  11457  11477  11478     1  0.0000000  1.0460000  1
  11459  11457  11477  11478     1  0.0000000  0.6694400  3
  11459  11460  11461  11464     1  0.0000000  0.6508444  3
  11459  11460  11479  11469     1  0.0000000  1.2552000  3
  11460  11459  11457  11476     1  0.0000000  0.6508444  3
  11460  11459  11466  11468     1  0.0000000  1.0460000  1
  11460  11459  11466  11468     1  0.0000000  0.6694400  3
  11460  11461  11465  11475     1  0.0000000  1.0460000  1
  11460  11461  11465  11475     1  0.0000000  0.6694400  3
  11461  11460  11459  11463     1  0.0000000  0.6508444  3
  11461  11460  11479  11469     1  0.0000000  1.2552000  3
  11462  11460  11459  11466     1  0.0000000  1.0460000  1
  11462  11460  11459  11466     1  0.0000000  0.0000000  3
  11462  11460  11459  11463     1  0.0000000  0.6508444  3
  11462  11460  11461  11465     1  0.0000000  1.0460000  1
  11462  11460  11461  11465     1  0.0000000  0.0000000  3
  11462  11460  11461  11474     1  0.0000000  1.0460000  1
  11462  11460  11461  11474     1  0.0000000  0.0000000  3
  11462  11460  11461  11464     1  0.0000000  0.6508444  3
  11462  11460  11479  11469     1  0.0000000  1.2552000  3
  11463  11459  11457  11477     1  0.0000000  1.0460000  1
  11463  11459  11457  11477     1  0.0000000  0.0000000  3
  11463  11459  11457  11476     1  0.0000000  0.6508444  3
  11463  11459  11460  11479     1  0.0000000  0.6508444  3
  11463  11459  11466  11468     1  0.0000000  0.6973333  3
  11464  11461  11460  11479     1  0.0000000  0.6508444  3
  11464  11461  11465  11475     1  0.0000000  0.6973333  3
  11466  11459  11457  11476     1  0.0000000  1.0460000  1
  11466  11459  11457  11476     1  0.0000000  0.0000000  3
  11467  11456  11457  11476     1  0.0000000  0.6508444  3
  11470  11467  11456  11474     1  0.0000000  1.0460000  1
  11470  11467  11456  11474     1  0.0000000  0.0000000  3
  11470  11467  11472  11473     1  0.0000000  0.6973333  3
  11471  11467  11456  11474     1  0.0000000  1.0460000  1
  11471  11467  11456  11474     1  0.0000000  0.0000000  3
  11471  11467  11472  11473     1  0.0000000  0.6973333  3
  11474  11456  11457  11476     1  0.0000000  1.0460000  1
  11474  11456  11457  11476     1  0.0000000  0.0000000  3
  11474  11461  11465  11475     1  0.0000000  0.6973333  3
  11476  11457  11477  11478     1  0.0000000  0.6973333  3
  11481  11483  11485  11487     1  0.0000000  0.6508444  3
  11481  11483  11485  11488     1  0.0000000  0.6508444  3
  11482  11481  11483  11485     1  0.0000000  0.0000000  2
  11482  11481  11483  11484     1  0.0000000  0.0000000  2
  11482  11481  11483  11486     1  0.0000000  0.0000000  2
  11483  11485  11489  11554     1  0.0000000  0.6508444  3
  11484  11483  11485  11489     1  0.0000000  0.6508444  3
  11484  11483  11485  11487     1  0.0000000  0.6508444  3
  11484  11483  11485  11488     1  0.0000000  0.6508444  3
  11485  11489  11490  11499     1  0.0000000  0.6508444  3
  11485  11489  11490  11500     1  0.0000000  0.6508444  3
  11485  11489  11491  11492     1  0.0000000  0.6508444  3
  11485  11489  11491  11494     1  0.0000000  0.6508444  3
  11486  11483  11485  11489     1  0.0000000  0.6508444  3
  11486  11483  11485  11487     1  0.0000000  0.6508444  3
  11486  11483  11485  11488     1  0.0000000  0.6508444  3
  11487  11485  11489  11490     1  0.0000000  0.6508444  3
  11487  11485  11489  11491     1  0.0000000  0.6508444  3
  11487  11485  11489  11554     1  0.0000000  0.6508444  3
  11488  11485  11489  11490     1  0.0000000  0.6508444  3
  11488  11485  11489  11491     1  0.0000000  0.6508444  3
  11488  11485  11489  11554     1  0.0000000  0.6508444  3
  11489  11490  11501  11502     1  0.0000000  0.6508444  3
  11489  11490  11501  11503     1  0.0000000  0.6508444  3
  11489  11491  11493  11495     1  0.0000000  0.6508444  3
  11489  11491  11493  11496     1  0.0000000  0.6508444  3
  11490  11489  11491  11492     1  0.0000000  0.6508444  3
  11490  11489  11491  11494     1  0.0000000  0.6508444  3
  11491  11489  11490  11499     1  0.0000000  0.6508444  3
  11491  11489  11490  11500     1  0.0000000  0.6508444  3
  11492  11491  11493  11497     1  0.0000000  0.6508444  3
  11492  11491  11493  11495     1  0.0000000  0.6508444  3
  11492  11491  11493  11496     1  0.0000000  0.6508444  3
  11492  11491  11489  11554     1  0.0000000  0.6508444  3
  11493  11497  11529  11519     1  180.0000771  6.0668000  2
  11493  11497  11529  11519     1  180.0000771  1.4644000  4
  11493  11491  11489  11554     1  0.0000000  0.6508444  3
  11494  11491  11493  11497     1  0.0000000  0.6508444  3
  11494  11491  11493  11495     1  0.0000000  0.6508444  3
  11494  11491  11493  11496     1  0.0000000  0.6508444  3
  11494  11491  11489  11554     1  0.0000000  0.6508444  3
  11495  11493  11497  11498     1  0.0000000  3.3472000  1
  11495  11493  11497  11498     1  0.0000000  0.0000000  2
  11495  11493  11497  11498     1  180.0000771  0.3347200  3
  11495  11493  11497  11529     1  180.0000771  0.0000000  2
  11496  11493  11497  11498     1  0.0000000  3.3472000  1
  11496  11493  11497  11498     1  0.0000000  0.0000000  2
  11496  11493  11497  11498     1  180.0000771  0.3347200  3
  11496  11493  11497  11529     1  180.0000771  0.0000000  2
  11497  11529  11510  11512     1  0.0000000  1.2552000  3
  11498  11497  11529  11519     1  180.0000771  6.0668000  2
  11498  11497  11529  11519     1  180.0000771  1.4644000  4
  11499  11490  11501  11504     1  0.0000000  0.6508444  3
  11499  11490  11501  11502     1  0.0000000  0.6508444  3
  11499  11490  11501  11503     1  0.0000000  0.6508444  3
  11499  11490  11489  11554     1  0.0000000  0.6508444  3
  11500  11490  11501  11504     1  0.0000000  0.6508444  3
  11500  11490  11501  11502     1  0.0000000  0.6508444  3
  11500  11490  11501  11503     1  0.0000000  0.6508444  3
  11500  11490  11489  11554     1  0.0000000  0.6508444  3
  11501  11504  11553  11543     1  180.0000771  6.0668000  2
  11501  11504  11553  11543     1  180.0000771  1.4644000  4
  11501  11490  11489  11554     1  0.0000000  0.6508444  3
  11502  11501  11504  11505     1  0.0000000  3.3472000  1
  11502  11501  11504  11505     1  0.0000000  0.0000000  2
  11502  11501  11504  11505     1  180.0000771  0.3347200  3
  11502  11501  11504  11553     1  180.0000771  0.0000000  2
  11503  11501  11504  11505     1  0.0000000  3.3472000  1
  11503  11501  11504  11505     1  0.0000000  0.0000000  2
  11503  11501  11504  11505     1  180.0000771  0.3347200  3
  11503  11501  11504  11553     1  180.0000771  0.0000000  2
  11504  11553  11534  11536     1  0.0000000  1.2552000  3
  11505  11504  11553  11543     1  180.0000771  6.0668000  2
  11505  11504  11553  11543     1  180.0000771  1.4644000  4
  11506  11507  11509  11513     1  0.0000000  0.6508444  3
  11506  11507  11527  11528     1  0.0000000  1.0460000  1
  11506  11507  11527  11528     1  0.0000000  0.6694400  3
  11506  11517  11522  11523     1  0.0000000  1.0460000  1
  11506  11517  11522  11523     1  0.0000000  0.6694400  3
  11506  11524  11511  11514     1  0.0000000  1.6038667  3
  11507  11509  11510  11512     1  0.0000000  0.6508444  3
  11507  11509  11516  11518     1  0.0000000  1.0460000  1
  11507  11509  11516  11518     1  0.0000000  0.6694400  3
  11507  11506  11517  11520     1  0.0000000  0.6508444  3
  11507  11506  11517  11521     1  0.0000000  0.6508444  3
  11508  11506  11507  11509     1  0.0000000  0.6508444  3
  11508  11506  11507  11527     1  0.0000000  1.0460000  1
  11508  11506  11507  11527     1  0.0000000  0.0000000  3
  11508  11506  11507  11526     1  0.0000000  0.6508444  3
  11508  11506  11517  11522     1  0.0000000  1.0460000  1
  11508  11506  11517  11522     1  0.0000000  0.0000000  3
  11508  11506  11517  11520     1  0.0000000  0.6508444  3
  11508  11506  11517  11521     1  0.0000000  0.6508444  3
  11508  11506  11524  11511     1  0.0000000  1.6038667  3
  11509  11510  11511  11514     1  0.0000000  0.6508444  3
  11509  11510  11529  11519     1  0.0000000  1.2552000  3
  11509  11507  11527  11528     1  0.0000000  1.0460000  1
  11509  11507  11527  11528     1  0.0000000  0.6694400  3
  11510  11511  11515  11525     1  0.0000000  1.0460000  1
  11510  11511  11515  11525     1  0.0000000  0.6694400  3
  11510  11509  11516  11518     1  0.0000000  1.0460000  1
  11510  11509  11516  11518     1  0.0000000  0.6694400  3
  11510  11509  11507  11526     1  0.0000000  0.6508444  3
  11511  11510  11529  11519     1  0.0000000  1.2552000  3
  11511  11510  11509  11513     1  0.0000000  0.6508444  3
  11512  11510  11511  11515     1  0.0000000  1.0460000  1
  11512  11510  11511  11515     1  0.0000000  0.0000000  3
  11512  11510  11511  11524     1  0.0000000  1.0460000  1
  11512  11510  11511  11524     1  0.0000000  0.0000000  3
  11512  11510  11511  11514     1  0.0000000  0.6508444  3
  11512  11510  11529  11519     1  0.0000000  1.2552000  3
  11512  11510  11509  11516     1  0.0000000  1.0460000  1
  11512  11510  11509  11516     1  0.0000000  0.0000000  3
  11512  11510  11509  11513     1  0.0000000  0.6508444  3
  11513  11509  11510  11529     1  0.0000000  0.6508444  3
  11513  11509  11516  11518     1  0.0000000  0.6973333  3
  11513  11509  11507  11527     1  0.0000000  1.0460000  1
  11513  11509  11507  11527     1  0.0000000  0.0000000  3
  11513  11509  11507  11526     1  0.0000000  0.6508444  3
  11514  11511  11515  11525     1  0.0000000  0.6973333  3
  11514  11511  11510  11529     1  0.0000000  0.6508444  3
  11516  11509  11507  11526     1  0.0000000  1.0460000  1
  11516  11509  11507  11526     1  0.0000000  0.0000000  3
  11517  11506  11507  11526     1  0.0000000  0.6508444  3
  11520  11517  11522  11523     1  0.0000000  0.6973333  3
  11520  11517  11506  11524     1  0.0000000  1.0460000  1
  11520  11517  11506  11524     1  0.0000000  0.0000000  3
  11521  11517  11522  11523     1  0.0000000  0.6973333  3
  11521  11517  11506  11524     1  0.0000000  1.0460000  1
  11521  11517  11506  11524     1  0.0000000  0.0000000  3
  11524  11511  11515  11525     1  0.0000000  0.6973333  3
  11524  11506  11507  11526     1  0.0000000  1.0460000  1
  11524  11506  11507  11526     1  0.0000000  0.0000000  3
  11526  11507  11527  11528     1  0.0000000  0.6973333  3
  11530  11531  11533  11537     1  0.0000000  0.6508444  3
  11530  11531  11551  11552     1  0.0000000  1.0460000  1
  11530  11531  11551  11552     1  0.0000000  0.6694400  3
  11530  11541  11546  11547     1  0.0000000  1.0460000  1
  11530  11541  11546  11547     1  0.0000000  0.6694400  3
  11530  11548  11535  11538     1  0.0000000  1.6038667  3
  11531  11533  11534  11536     1  0.0000000  0.6508444  3
  11531  11533  11540  11542     1  0.0000000  1.0460000  1
  11531  11533  11540  11542     1  0.0000000  0.6694400  3
  11531  11530  11541  11544     1  0.0000000  0.6508444  3
  11531  11530  11541  11545     1  0.0000000  0.6508444  3
  11532  11530  11531  11533     1  0.0000000  0.6508444  3
  11532  11530  11531  11551     1  0.0000000  1.0460000  1
  11532  11530  11531  11551     1  0.0000000  0.0000000  3
  11532  11530  11531  11550     1  0.0000000  0.6508444  3
  11532  11530  11541  11546     1  0.0000000  1.0460000  1
  11532  11530  11541  11546     1  0.0000000  0.0000000  3
  11532  11530  11541  11544     1  0.0000000  0.6508444  3
  11532  11530  11541  11545     1  0.0000000  0.6508444  3
  11532  11530  11548  11535     1  0.0000000  1.6038667  3
  11533  11534  11535  11538     1  0.0000000  0.6508444  3
  11533  11534  11553  11543     1  0.0000000  1.2552000  3
  11533  11531  11551  11552     1  0.0000000  1.0460000  1
  11533  11531  11551  11552     1  0.0000000  0.6694400  3
  11534  11535  11539  11549     1  0.0000000  1.0460000  1
  11534  11535  11539  11549     1  0.0000000  0.6694400  3
  11534  11533  11540  11542     1  0.0000000  1.0460000  1
  11534  11533  11540  11542     1  0.0000000  0.6694400  3
  11534  11533  11531  11550     1  0.0000000  0.6508444  3
  11535  11534  11553  11543     1  0.0000000  1.2552000  3
  11535  11534  11533  11537     1  0.0000000  0.6508444  3
  11536  11534  11535  11539     1  0.0000000  1.0460000  1
  11536  11534  11535  11539     1  0.0000000  0.0000000  3
  11536  11534  11535  11548     1  0.0000000  1.0460000  1
  11536  11534  11535  11548     1  0.0000000  0.0000000  3
  11536  11534  11535  11538     1  0.0000000  0.6508444  3
  11536  11534  11553  11543     1  0.0000000  1.2552000  3
  11536  11534  11533  11540     1  0.0000000  1.0460000  1
  11536  11534  11533  11540     1  0.0000000  0.0000000  3
  11536  11534  11533  11537     1  0.0000000  0.6508444  3
  11537  11533  11534  11553     1  0.0000000  0.6508444  3
  11537  11533  11540  11542     1  0.0000000  0.6973333  3
  11537  11533  11531  11551     1  0.0000000  1.0460000  1
  11537  11533  11531  11551     1  0.0000000  0.0000000  3
  11537  11533  11531  11550     1  0.0000000  0.6508444  3
  11538  11535  11539  11549     1  0.0000000  0.6973333  3
  11538  11535  11534  11553     1  0.0000000  0.6508444  3
  11540  11533  11531  11550     1  0.0000000  1.0460000  1
  11540  11533  11531  11550     1  0.0000000  0.0000000  3
  11541  11530  11531  11550     1  0.0000000  0.6508444  3
  11544  11541  11546  11547     1  0.0000000  0.6973333  3
  11544  11541  11530  11548     1  0.0000000  1.0460000  1
  11544  11541  11530  11548     1  0.0000000  0.0000000  3
  11545  11541  11546  11547     1  0.0000000  0.6973333  3
  11545  11541  11530  11548     1  0.0000000  1.0460000  1
  11545  11541  11530  11548     1  0.0000000  0.0000000  3
  11548  11535  11539  11549     1  0.0000000  0.6973333  3
  11548  11530  11531  11550     1  0.0000000  1.0460000  1
  11548  11530  11531  11550     1  0.0000000  0.0000000  3
  11550  11531  11551  11552     1  0.0000000  0.6973333  3
  11555  11557  11559  11561     1  0.0000000  0.6508444  3
  11555  11557  11559  11562     1  0.0000000  0.6508444  3
  11556  11555  11557  11559     1  0.0000000  0.0000000  2
  11556  11555  11557  11558     1  0.0000000  0.0000000  2
  11556  11555  11557  11560     1  0.0000000  0.0000000  2
  11557  11559  11563  11628     1  0.0000000  0.6508444  3
  11558  11557  11559  11563     1  0.0000000  0.6508444  3
  11558  11557  11559  11561     1  0.0000000  0.6508444  3
  11558  11557  11559  11562     1  0.0000000  0.6508444  3
  11559  11563  11564  11573     1  0.0000000  0.6508444  3
  11559  11563  11564  11574     1  0.0000000  0.6508444  3
  11559  11563  11565  11566     1  0.0000000  0.6508444  3
  11559  11563  11565  11568     1  0.0000000  0.6508444  3
  11560  11557  11559  11563     1  0.0000000  0.6508444  3
  11560  11557  11559  11561     1  0.0000000  0.6508444  3
  11560  11557  11559  11562     1  0.0000000  0.6508444  3
  11561  11559  11563  11564     1  0.0000000  0.6508444  3
  11561  11559  11563  11565     1  0.0000000  0.6508444  3
  11561  11559  11563  11628     1  0.0000000  0.6508444  3
  11562  11559  11563  11564     1  0.0000000  0.6508444  3
  11562  11559  11563  11565     1  0.0000000  0.6508444  3
  11562  11559  11563  11628     1  0.0000000  0.6508444  3
  11563  11564  11575  11576     1  0.0000000  0.6508444  3
  11563  11564  11575  11577     1  0.0000000  0.6508444  3
  11563  11565  11567  11569     1  0.0000000  0.6508444  3
  11563  11565  11567  11570     1  0.0000000  0.6508444  3
  11564  11563  11565  11566     1  0.0000000  0.6508444  3
  11564  11563  11565  11568     1  0.0000000  0.6508444  3
  11565  11563  11564  11573     1  0.0000000  0.6508444  3
  11565  11563  11564  11574     1  0.0000000  0.6508444  3
  11566  11565  11563  11628     1  0.0000000  0.6508444  3
  11566  11565  11567  11571     1  0.0000000  0.6508444  3
  11566  11565  11567  11569     1  0.0000000  0.6508444  3
  11566  11565  11567  11570     1  0.0000000  0.6508444  3
  11567  11565  11563  11628     1  0.0000000  0.6508444  3
  11567  11571  11603  11593     1  180.0000771  6.0668000  2
  11567  11571  11603  11593     1  180.0000771  1.4644000  4
  11568  11565  11563  11628     1  0.0000000  0.6508444  3
  11568  11565  11567  11571     1  0.0000000  0.6508444  3
  11568  11565  11567  11569     1  0.0000000  0.6508444  3
  11568  11565  11567  11570     1  0.0000000  0.6508444  3
  11569  11567  11571  11572     1  0.0000000  3.3472000  1
  11569  11567  11571  11572     1  0.0000000  0.0000000  2
  11569  11567  11571  11572     1  180.0000771  0.3347200  3
  11569  11567  11571  11603     1  180.0000771  0.0000000  2
  11570  11567  11571  11572     1  0.0000000  3.3472000  1
  11570  11567  11571  11572     1  0.0000000  0.0000000  2
  11570  11567  11571  11572     1  180.0000771  0.3347200  3
  11570  11567  11571  11603     1  180.0000771  0.0000000  2
  11571  11603  11584  11586     1  0.0000000  1.2552000  3
  11572  11571  11603  11593     1  180.0000771  6.0668000  2
  11572  11571  11603  11593     1  180.0000771  1.4644000  4
  11573  11564  11563  11628     1  0.0000000  0.6508444  3
  11573  11564  11575  11578     1  0.0000000  0.6508444  3
  11573  11564  11575  11576     1  0.0000000  0.6508444  3
  11573  11564  11575  11577     1  0.0000000  0.6508444  3
  11574  11564  11563  11628     1  0.0000000  0.6508444  3
  11574  11564  11575  11578     1  0.0000000  0.6508444  3
  11574  11564  11575  11576     1  0.0000000  0.6508444  3
  11574  11564  11575  11577     1  0.0000000  0.6508444  3
  11575  11564  11563  11628     1  0.0000000  0.6508444  3
  11575  11578  11627  11617     1  180.0000771  6.0668000  2
  11575  11578  11627  11617     1  180.0000771  1.4644000  4
  11576  11575  11578  11579     1  0.0000000  3.3472000  1
  11576  11575  11578  11579     1  0.0000000  0.0000000  2
  11576  11575  11578  11579     1  180.0000771  0.3347200  3
  11576  11575  11578  11627     1  180.0000771  0.0000000  2
  11577  11575  11578  11579     1  0.0000000  3.3472000  1
  11577  11575  11578  11579     1  0.0000000  0.0000000  2
  11577  11575  11578  11579     1  180.0000771  0.3347200  3
  11577  11575  11578  11627     1  180.0000771  0.0000000  2
  11578  11627  11608  11610     1  0.0000000  1.2552000  3
  11579  11578  11627  11617     1  180.0000771  6.0668000  2
  11579  11578  11627  11617     1  180.0000771  1.4644000  4
  11580  11581  11583  11587     1  0.0000000  0.6508444  3
  11580  11581  11601  11602     1  0.0000000  1.0460000  1
  11580  11581  11601  11602     1  0.0000000  0.6694400  3
  11580  11591  11596  11597     1  0.0000000  1.0460000  1
  11580  11591  11596  11597     1  0.0000000  0.6694400  3
  11580  11598  11585  11588     1  0.0000000  1.6038667  3
  11581  11580  11591  11594     1  0.0000000  0.6508444  3
  11581  11580  11591  11595     1  0.0000000  0.6508444  3
  11581  11583  11584  11586     1  0.0000000  0.6508444  3
  11581  11583  11590  11592     1  0.0000000  1.0460000  1
  11581  11583  11590  11592     1  0.0000000  0.6694400  3
  11582  11580  11581  11583     1  0.0000000  0.6508444  3
  11582  11580  11581  11601     1  0.0000000  1.0460000  1
  11582  11580  11581  11601     1  0.0000000  0.0000000  3
  11582  11580  11581  11600     1  0.0000000  0.6508444  3
  11582  11580  11591  11596     1  0.0000000  1.0460000  1
  11582  11580  11591  11596     1  0.0000000  0.0000000  3
  11582  11580  11591  11594     1  0.0000000  0.6508444  3
  11582  11580  11591  11595     1  0.0000000  0.6508444  3
  11582  11580  11598  11585     1  0.0000000  1.6038667  3
  11583  11581  11601  11602     1  0.0000000  1.0460000  1
  11583  11581  11601  11602     1  0.0000000  0.6694400  3
  11583  11584  11585  11588     1  0.0000000  0.6508444  3
  11583  11584  11603  11593     1  0.0000000  1.2552000  3
  11584  11583  11581  11600     1  0.0000000  0.6508444  3
  11584  11583  11590  11592     1  0.0000000  1.0460000  1
  11584  11583  11590  11592     1  0.0000000  0.6694400  3
  11584  11585  11589  11599     1  0.0000000  1.0460000  1
  11584  11585  11589  11599     1  0.0000000  0.6694400  3
  11585  11584  11583  11587     1  0.0000000  0.6508444  3
  11585  11584  11603  11593     1  0.0000000  1.2552000  3
  11586  11584  11583  11590     1  0.0000000  1.0460000  1
  11586  11584  11583  11590     1  0.0000000  0.0000000  3
  11586  11584  11583  11587     1  0.0000000  0.6508444  3
  11586  11584  11585  11589     1  0.0000000  1.0460000  1
  11586  11584  11585  11589     1  0.0000000  0.0000000  3
  11586  11584  11585  11598     1  0.0000000  1.0460000  1
  11586  11584  11585  11598     1  0.0000000  0.0000000  3
  11586  11584  11585  11588     1  0.0000000  0.6508444  3
  11586  11584  11603  11593     1  0.0000000  1.2552000  3
  11587  11583  11581  11601     1  0.0000000  1.0460000  1
  11587  11583  11581  11601     1  0.0000000  0.0000000  3
  11587  11583  11581  11600     1  0.0000000  0.6508444  3
  11587  11583  11584  11603     1  0.0000000  0.6508444  3
  11587  11583  11590  11592     1  0.0000000  0.6973333  3
  11588  11585  11584  11603     1  0.0000000  0.6508444  3
  11588  11585  11589  11599     1  0.0000000  0.6973333  3
  11590  11583  11581  11600     1  0.0000000  1.0460000  1
  11590  11583  11581  11600     1  0.0000000  0.0000000  3
  11591  11580  11581  11600     1  0.0000000  0.6508444  3
  11594  11591  11580  11598     1  0.0000000  1.0460000  1
  11594  11591  11580  11598     1  0.0000000  0.0000000  3
  11594  11591  11596  11597     1  0.0000000  0.6973333  3
  11595  11591  11580  11598     1  0.0000000  1.0460000  1
  11595  11591  11580  11598     1  0.0000000  0.0000000  3
  11595  11591  11596  11597     1  0.0000000  0.6973333  3
  11598  11580  11581  11600     1  0.0000000  1.0460000  1
  11598  11580  11581  11600     1  0.0000000  0.0000000  3
  11598  11585  11589  11599     1  0.0000000  0.6973333  3
  11600  11581  11601  11602     1  0.0000000  0.6973333  3
  11604  11605  11607  11611     1  0.0000000  0.6508444  3
  11604  11605  11625  11626     1  0.0000000  1.0460000  1
  11604  11605  11625  11626     1  0.0000000  0.6694400  3
  11604  11615  11620  11621     1  0.0000000  1.0460000  1
  11604  11615  11620  11621     1  0.0000000  0.6694400  3
  11604  11622  11609  11612     1  0.0000000  1.6038667  3
  11605  11604  11615  11618     1  0.0000000  0.6508444  3
  11605  11604  11615  11619     1  0.0000000  0.6508444  3
  11605  11607  11608  11610     1  0.0000000  0.6508444  3
  11605  11607  11614  11616     1  0.0000000  1.0460000  1
  11605  11607  11614  11616     1  0.0000000  0.6694400  3
  11606  11604  11605  11607     1  0.0000000  0.6508444  3
  11606  11604  11605  11625     1  0.0000000  1.0460000  1
  11606  11604  11605  11625     1  0.0000000  0.0000000  3
  11606  11604  11605  11624     1  0.0000000  0.6508444  3
  11606  11604  11615  11620     1  0.0000000  1.0460000  1
  11606  11604  11615  11620     1  0.0000000  0.0000000  3
  11606  11604  11615  11618     1  0.0000000  0.6508444  3
  11606  11604  11615  11619     1  0.0000000  0.6508444  3
  11606  11604  11622  11609     1  0.0000000  1.6038667  3
  11607  11605  11625  11626     1  0.0000000  1.0460000  1
  11607  11605  11625  11626     1  0.0000000  0.6694400  3
  11607  11608  11609  11612     1  0.0000000  0.6508444  3
  11607  11608  11627  11617     1  0.0000000  1.2552000  3
  11608  11607  11605  11624     1  0.0000000  0.6508444  3
  11608  11607  11614  11616     1  0.0000000  1.0460000  1
  11608  11607  11614  11616     1  0.0000000  0.6694400  3
  11608  11609  11613  11623     1  0.0000000  1.0460000  1
  11608  11609  11613  11623     1  0.0000000  0.6694400  3
  11609  11608  11607  11611     1  0.0000000  0.6508444  3
  11609  11608  11627  11617     1  0.0000000  1.2552000  3
  11610  11608  11607  11614     1  0.0000000  1.0460000  1
  11610  11608  11607  11614     1  0.0000000  0.0000000  3
  11610  11608  11607  11611     1  0.0000000  0.6508444  3
  11610  11608  11609  11613     1  0.0000000  1.0460000  1
  11610  11608  11609  11613     1  0.0000000  0.0000000  3
  11610  11608  11609  11622     1  0.0000000  1.0460000  1
  11610  11608  11609  11622     1  0.0000000  0.0000000  3
  11610  11608  11609  11612     1  0.0000000  0.6508444  3
  11610  11608  11627  11617     1  0.0000000  1.2552000  3
  11611  11607  11605  11625     1  0.0000000  1.0460000  1
  11611  11607  11605  11625     1  0.0000000  0.0000000  3
  11611  11607  11605  11624     1  0.0000000  0.6508444  3
  11611  11607  11608  11627     1  0.0000000  0.6508444  3
  11611  11607  11614  11616     1  0.0000000  0.6973333  3
  11612  11609  11608  11627     1  0.0000000  0.6508444  3
  11612  11609  11613  11623     1  0.0000000  0.6973333  3
  11614  11607  11605  11624     1  0.0000000  1.0460000  1
  11614  11607  11605  11624     1  0.0000000  0.0000000  3
  11615  11604  11605  11624     1  0.0000000  0.6508444  3
  11618  11615  11604  11622     1  0.0000000  1.0460000  1
  11618  11615  11604  11622     1  0.0000000  0.0000000  3
  11618  11615  11620  11621     1  0.0000000  0.6973333  3
  11619  11615  11604  11622     1  0.0000000  1.0460000  1
  11619  11615  11604  11622     1  0.0000000  0.0000000  3
  11619  11615  11620  11621     1  0.0000000  0.6973333  3
  11622  11604  11605  11624     1  0.0000000  1.0460000  1
  11622  11604  11605  11624     1  0.0000000  0.0000000  3
  11622  11609  11613  11623     1  0.0000000  0.6973333  3
  11624  11605  11625  11626     1  0.0000000  0.6973333  3
  11629  11631  11633  11635     1  0.0000000  0.6508444  3
  11629  11631  11633  11636     1  0.0000000  0.6508444  3
  11630  11629  11631  11633     1  0.0000000  0.0000000  2
  11630  11629  11631  11632     1  0.0000000  0.0000000  2
  11630  11629  11631  11634     1  0.0000000  0.0000000  2
  11631  11633  11637  11702     1  0.0000000  0.6508444  3
  11632  11631  11633  11637     1  0.0000000  0.6508444  3
  11632  11631  11633  11635     1  0.0000000  0.6508444  3
  11632  11631  11633  11636     1  0.0000000  0.6508444  3
  11633  11637  11638  11647     1  0.0000000  0.6508444  3
  11633  11637  11638  11648     1  0.0000000  0.6508444  3
  11633  11637  11639  11640     1  0.0000000  0.6508444  3
  11633  11637  11639  11642     1  0.0000000  0.6508444  3
  11634  11631  11633  11637     1  0.0000000  0.6508444  3
  11634  11631  11633  11635     1  0.0000000  0.6508444  3
  11634  11631  11633  11636     1  0.0000000  0.6508444  3
  11635  11633  11637  11638     1  0.0000000  0.6508444  3
  11635  11633  11637  11639     1  0.0000000  0.6508444  3
  11635  11633  11637  11702     1  0.0000000  0.6508444  3
  11636  11633  11637  11638     1  0.0000000  0.6508444  3
  11636  11633  11637  11639     1  0.0000000  0.6508444  3
  11636  11633  11637  11702     1  0.0000000  0.6508444  3
  11637  11638  11649  11650     1  0.0000000  0.6508444  3
  11637  11638  11649  11651     1  0.0000000  0.6508444  3
  11637  11639  11641  11643     1  0.0000000  0.6508444  3
  11637  11639  11641  11644     1  0.0000000  0.6508444  3
  11638  11637  11639  11640     1  0.0000000  0.6508444  3
  11638  11637  11639  11642     1  0.0000000  0.6508444  3
  11639  11637  11638  11647     1  0.0000000  0.6508444  3
  11639  11637  11638  11648     1  0.0000000  0.6508444  3
  11640  11639  11641  11645     1  0.0000000  0.6508444  3
  11640  11639  11641  11643     1  0.0000000  0.6508444  3
  11640  11639  11641  11644     1  0.0000000  0.6508444  3
  11640  11639  11637  11702     1  0.0000000  0.6508444  3
  11641  11645  11677  11667     1  180.0000771  6.0668000  2
  11641  11645  11677  11667     1  180.0000771  1.4644000  4
  11641  11639  11637  11702     1  0.0000000  0.6508444  3
  11642  11639  11641  11645     1  0.0000000  0.6508444  3
  11642  11639  11641  11643     1  0.0000000  0.6508444  3
  11642  11639  11641  11644     1  0.0000000  0.6508444  3
  11642  11639  11637  11702     1  0.0000000  0.6508444  3
  11643  11641  11645  11646     1  0.0000000  3.3472000  1
  11643  11641  11645  11646     1  0.0000000  0.0000000  2
  11643  11641  11645  11646     1  180.0000771  0.3347200  3
  11643  11641  11645  11677     1  180.0000771  0.0000000  2
  11644  11641  11645  11646     1  0.0000000  3.3472000  1
  11644  11641  11645  11646     1  0.0000000  0.0000000  2
  11644  11641  11645  11646     1  180.0000771  0.3347200  3
  11644  11641  11645  11677     1  180.0000771  0.0000000  2
  11645  11677  11658  11660     1  0.0000000  1.2552000  3
  11646  11645  11677  11667     1  180.0000771  6.0668000  2
  11646  11645  11677  11667     1  180.0000771  1.4644000  4
  11647  11638  11649  11652     1  0.0000000  0.6508444  3
  11647  11638  11649  11650     1  0.0000000  0.6508444  3
  11647  11638  11649  11651     1  0.0000000  0.6508444  3
  11647  11638  11637  11702     1  0.0000000  0.6508444  3
  11648  11638  11649  11652     1  0.0000000  0.6508444  3
  11648  11638  11649  11650     1  0.0000000  0.6508444  3
  11648  11638  11649  11651     1  0.0000000  0.6508444  3
  11648  11638  11637  11702     1  0.0000000  0.6508444  3
  11649  11652  11701  11691     1  180.0000771  6.0668000  2
  11649  11652  11701  11691     1  180.0000771  1.4644000  4
  11649  11638  11637  11702     1  0.0000000  0.6508444  3
  11650  11649  11652  11653     1  0.0000000  3.3472000  1
  11650  11649  11652  11653     1  0.0000000  0.0000000  2
  11650  11649  11652  11653     1  180.0000771  0.3347200  3
  11650  11649  11652  11701     1  180.0000771  0.0000000  2
  11651  11649  11652  11653     1  0.0000000  3.3472000  1
  11651  11649  11652  11653     1  0.0000000  0.0000000  2
  11651  11649  11652  11653     1  180.0000771  0.3347200  3
  11651  11649  11652  11701     1  180.0000771  0.0000000  2
  11652  11701  11682  11684     1  0.0000000  1.2552000  3
  11653  11652  11701  11691     1  180.0000771  6.0668000  2
  11653  11652  11701  11691     1  180.0000771  1.4644000  4
  11654  11655  11657  11661     1  0.0000000  0.6508444  3
  11654  11655  11675  11676     1  0.0000000  1.0460000  1
  11654  11655  11675  11676     1  0.0000000  0.6694400  3
  11654  11665  11670  11671     1  0.0000000  1.0460000  1
  11654  11665  11670  11671     1  0.0000000  0.6694400  3
  11654  11672  11659  11662     1  0.0000000  1.6038667  3
  11655  11657  11658  11660     1  0.0000000  0.6508444  3
  11655  11657  11664  11666     1  0.0000000  1.0460000  1
  11655  11657  11664  11666     1  0.0000000  0.6694400  3
  11655  11654  11665  11668     1  0.0000000  0.6508444  3
  11655  11654  11665  11669     1  0.0000000  0.6508444  3
  11656  11654  11655  11657     1  0.0000000  0.6508444  3
  11656  11654  11655  11675     1  0.0000000  1.0460000  1
  11656  11654  11655  11675     1  0.0000000  0.0000000  3
  11656  11654  11655  11674     1  0.0000000  0.6508444  3
  11656  11654  11665  11670     1  0.0000000  1.0460000  1
  11656  11654  11665  11670     1  0.0000000  0.0000000  3
  11656  11654  11665  11668     1  0.0000000  0.6508444  3
  11656  11654  11665  11669     1  0.0000000  0.6508444  3
  11656  11654  11672  11659     1  0.0000000  1.6038667  3
  11657  11658  11659  11662     1  0.0000000  0.6508444  3
  11657  11658  11677  11667     1  0.0000000  1.2552000  3
  11657  11655  11675  11676     1  0.0000000  1.0460000  1
  11657  11655  11675  11676     1  0.0000000  0.6694400  3
  11658  11659  11663  11673     1  0.0000000  1.0460000  1
  11658  11659  11663  11673     1  0.0000000  0.6694400  3
  11658  11657  11664  11666     1  0.0000000  1.0460000  1
  11658  11657  11664  11666     1  0.0000000  0.6694400  3
  11658  11657  11655  11674     1  0.0000000  0.6508444  3
  11659  11658  11677  11667     1  0.0000000  1.2552000  3
  11659  11658  11657  11661     1  0.0000000  0.6508444  3
  11660  11658  11659  11663     1  0.0000000  1.0460000  1
  11660  11658  11659  11663     1  0.0000000  0.0000000  3
  11660  11658  11659  11672     1  0.0000000  1.0460000  1
  11660  11658  11659  11672     1  0.0000000  0.0000000  3
  11660  11658  11659  11662     1  0.0000000  0.6508444  3
  11660  11658  11677  11667     1  0.0000000  1.2552000  3
  11660  11658  11657  11664     1  0.0000000  1.0460000  1
  11660  11658  11657  11664     1  0.0000000  0.0000000  3
  11660  11658  11657  11661     1  0.0000000  0.6508444  3
  11661  11657  11658  11677     1  0.0000000  0.6508444  3
  11661  11657  11664  11666     1  0.0000000  0.6973333  3
  11661  11657  11655  11675     1  0.0000000  1.0460000  1
  11661  11657  11655  11675     1  0.0000000  0.0000000  3
  11661  11657  11655  11674     1  0.0000000  0.6508444  3
  11662  11659  11663  11673     1  0.0000000  0.6973333  3
  11662  11659  11658  11677     1  0.0000000  0.6508444  3
  11664  11657  11655  11674     1  0.0000000  1.0460000  1
  11664  11657  11655  11674     1  0.0000000  0.0000000  3
  11665  11654  11655  11674     1  0.0000000  0.6508444  3
  11668  11665  11670  11671     1  0.0000000  0.6973333  3
  11668  11665  11654  11672     1  0.0000000  1.0460000  1
  11668  11665  11654  11672     1  0.0000000  0.0000000  3
  11669  11665  11670  11671     1  0.0000000  0.6973333  3
  11669  11665  11654  11672     1  0.0000000  1.0460000  1
  11669  11665  11654  11672     1  0.0000000  0.0000000  3
  11672  11659  11663  11673     1  0.0000000  0.6973333  3
  11672  11654  11655  11674     1  0.0000000  1.0460000  1
  11672  11654  11655  11674     1  0.0000000  0.0000000  3
  11674  11655  11675  11676     1  0.0000000  0.6973333  3
  11678  11679  11681  11685     1  0.0000000  0.6508444  3
  11678  11679  11699  11700     1  0.0000000  1.0460000  1
  11678  11679  11699  11700     1  0.0000000  0.6694400  3
  11678  11689  11694  11695     1  0.0000000  1.0460000  1
  11678  11689  11694  11695     1  0.0000000  0.6694400  3
  11678  11696  11683  11686     1  0.0000000  1.6038667  3
  11679  11681  11682  11684     1  0.0000000  0.6508444  3
  11679  11681  11688  11690     1  0.0000000  1.0460000  1
  11679  11681  11688  11690     1  0.0000000  0.6694400  3
  11679  11678  11689  11692     1  0.0000000  0.6508444  3
  11679  11678  11689  11693     1  0.0000000  0.6508444  3
  11680  11678  11679  11681     1  0.0000000  0.6508444  3
  11680  11678  11679  11699     1  0.0000000  1.0460000  1
  11680  11678  11679  11699     1  0.0000000  0.0000000  3
  11680  11678  11679  11698     1  0.0000000  0.6508444  3
  11680  11678  11689  11694     1  0.0000000  1.0460000  1
  11680  11678  11689  11694     1  0.0000000  0.0000000  3
  11680  11678  11689  11692     1  0.0000000  0.6508444  3
  11680  11678  11689  11693     1  0.0000000  0.6508444  3
  11680  11678  11696  11683     1  0.0000000  1.6038667  3
  11681  11682  11683  11686     1  0.0000000  0.6508444  3
  11681  11682  11701  11691     1  0.0000000  1.2552000  3
  11681  11679  11699  11700     1  0.0000000  1.0460000  1
  11681  11679  11699  11700     1  0.0000000  0.6694400  3
  11682  11683  11687  11697     1  0.0000000  1.0460000  1
  11682  11683  11687  11697     1  0.0000000  0.6694400  3
  11682  11681  11688  11690     1  0.0000000  1.0460000  1
  11682  11681  11688  11690     1  0.0000000  0.6694400  3
  11682  11681  11679  11698     1  0.0000000  0.6508444  3
  11683  11682  11701  11691     1  0.0000000  1.2552000  3
  11683  11682  11681  11685     1  0.0000000  0.6508444  3
  11684  11682  11683  11687     1  0.0000000  1.0460000  1
  11684  11682  11683  11687     1  0.0000000  0.0000000  3
  11684  11682  11683  11696     1  0.0000000  1.0460000  1
  11684  11682  11683  11696     1  0.0000000  0.0000000  3
  11684  11682  11683  11686     1  0.0000000  0.6508444  3
  11684  11682  11701  11691     1  0.0000000  1.2552000  3
  11684  11682  11681  11688     1  0.0000000  1.0460000  1
  11684  11682  11681  11688     1  0.0000000  0.0000000  3
  11684  11682  11681  11685     1  0.0000000  0.6508444  3
  11685  11681  11682  11701     1  0.0000000  0.6508444  3
  11685  11681  11688  11690     1  0.0000000  0.6973333  3
  11685  11681  11679  11699     1  0.0000000  1.0460000  1
  11685  11681  11679  11699     1  0.0000000  0.0000000  3
  11685  11681  11679  11698     1  0.0000000  0.6508444  3
  11686  11683  11687  11697     1  0.0000000  0.6973333  3
  11686  11683  11682  11701     1  0.0000000  0.6508444  3
  11688  11681  11679  11698     1  0.0000000  1.0460000  1
  11688  11681  11679  11698     1  0.0000000  0.0000000  3
  11689  11678  11679  11698     1  0.0000000  0.6508444  3
  11692  11689  11694  11695     1  0.0000000  0.6973333  3
  11692  11689  11678  11696     1  0.0000000  1.0460000  1
  11692  11689  11678  11696     1  0.0000000  0.0000000  3
  11693  11689  11694  11695     1  0.0000000  0.6973333  3
  11693  11689  11678  11696     1  0.0000000  1.0460000  1
  11693  11689  11678  11696     1  0.0000000  0.0000000  3
  11696  11683  11687  11697     1  0.0000000  0.6973333  3
  11696  11678  11679  11698     1  0.0000000  1.0460000  1
  11696  11678  11679  11698     1  0.0000000  0.0000000  3
  11698  11679  11699  11700     1  0.0000000  0.6973333  3
  11703  11705  11707  11709     1  0.0000000  0.6508444  3
  11703  11705  11707  11710     1  0.0000000  0.6508444  3
  11704  11703  11705  11707     1  0.0000000  0.0000000  2
  11704  11703  11705  11706     1  0.0000000  0.0000000  2
  11704  11703  11705  11708     1  0.0000000  0.0000000  2
  11705  11707  11711  11776     1  0.0000000  0.6508444  3
  11706  11705  11707  11711     1  0.0000000  0.6508444  3
  11706  11705  11707  11709     1  0.0000000  0.6508444  3
  11706  11705  11707  11710     1  0.0000000  0.6508444  3
  11707  11711  11712  11721     1  0.0000000  0.6508444  3
  11707  11711  11712  11722     1  0.0000000  0.6508444  3
  11707  11711  11713  11714     1  0.0000000  0.6508444  3
  11707  11711  11713  11716     1  0.0000000  0.6508444  3
  11708  11705  11707  11711     1  0.0000000  0.6508444  3
  11708  11705  11707  11709     1  0.0000000  0.6508444  3
  11708  11705  11707  11710     1  0.0000000  0.6508444  3
  11709  11707  11711  11712     1  0.0000000  0.6508444  3
  11709  11707  11711  11713     1  0.0000000  0.6508444  3
  11709  11707  11711  11776     1  0.0000000  0.6508444  3
  11710  11707  11711  11712     1  0.0000000  0.6508444  3
  11710  11707  11711  11713     1  0.0000000  0.6508444  3
  11710  11707  11711  11776     1  0.0000000  0.6508444  3
  11711  11712  11723  11724     1  0.0000000  0.6508444  3
  11711  11712  11723  11725     1  0.0000000  0.6508444  3
  11711  11713  11715  11717     1  0.0000000  0.6508444  3
  11711  11713  11715  11718     1  0.0000000  0.6508444  3
  11712  11711  11713  11714     1  0.0000000  0.6508444  3
  11712  11711  11713  11716     1  0.0000000  0.6508444  3
  11713  11711  11712  11721     1  0.0000000  0.6508444  3
  11713  11711  11712  11722     1  0.0000000  0.6508444  3
  11714  11713  11711  11776     1  0.0000000  0.6508444  3
  11714  11713  11715  11719     1  0.0000000  0.6508444  3
  11714  11713  11715  11717     1  0.0000000  0.6508444  3
  11714  11713  11715  11718     1  0.0000000  0.6508444  3
  11715  11713  11711  11776     1  0.0000000  0.6508444  3
  11715  11719  11751  11741     1  180.0000771  6.0668000  2
  11715  11719  11751  11741     1  180.0000771  1.4644000  4
  11716  11713  11711  11776     1  0.0000000  0.6508444  3
  11716  11713  11715  11719     1  0.0000000  0.6508444  3
  11716  11713  11715  11717     1  0.0000000  0.6508444  3
  11716  11713  11715  11718     1  0.0000000  0.6508444  3
  11717  11715  11719  11720     1  0.0000000  3.3472000  1
  11717  11715  11719  11720     1  0.0000000  0.0000000  2
  11717  11715  11719  11720     1  180.0000771  0.3347200  3
  11717  11715  11719  11751     1  180.0000771  0.0000000  2
  11718  11715  11719  11720     1  0.0000000  3.3472000  1
  11718  11715  11719  11720     1  0.0000000  0.0000000  2
  11718  11715  11719  11720     1  180.0000771  0.3347200  3
  11718  11715  11719  11751     1  180.0000771  0.0000000  2
  11719  11751  11732  11734     1  0.0000000  1.2552000  3
  11720  11719  11751  11741     1  180.0000771  6.0668000  2
  11720  11719  11751  11741     1  180.0000771  1.4644000  4
  11721  11712  11711  11776     1  0.0000000  0.6508444  3
  11721  11712  11723  11726     1  0.0000000  0.6508444  3
  11721  11712  11723  11724     1  0.0000000  0.6508444  3
  11721  11712  11723  11725     1  0.0000000  0.6508444  3
  11722  11712  11711  11776     1  0.0000000  0.6508444  3
  11722  11712  11723  11726     1  0.0000000  0.6508444  3
  11722  11712  11723  11724     1  0.0000000  0.6508444  3
  11722  11712  11723  11725     1  0.0000000  0.6508444  3
  11723  11712  11711  11776     1  0.0000000  0.6508444  3
  11723  11726  11775  11765     1  180.0000771  6.0668000  2
  11723  11726  11775  11765     1  180.0000771  1.4644000  4
  11724  11723  11726  11727     1  0.0000000  3.3472000  1
  11724  11723  11726  11727     1  0.0000000  0.0000000  2
  11724  11723  11726  11727     1  180.0000771  0.3347200  3
  11724  11723  11726  11775     1  180.0000771  0.0000000  2
  11725  11723  11726  11727     1  0.0000000  3.3472000  1
  11725  11723  11726  11727     1  0.0000000  0.0000000  2
  11725  11723  11726  11727     1  180.0000771  0.3347200  3
  11725  11723  11726  11775     1  180.0000771  0.0000000  2
  11726  11775  11756  11758     1  0.0000000  1.2552000  3
  11727  11726  11775  11765     1  180.0000771  6.0668000  2
  11727  11726  11775  11765     1  180.0000771  1.4644000  4
  11728  11729  11731  11735     1  0.0000000  0.6508444  3
  11728  11729  11749  11750     1  0.0000000  1.0460000  1
  11728  11729  11749  11750     1  0.0000000  0.6694400  3
  11728  11739  11744  11745     1  0.0000000  1.0460000  1
  11728  11739  11744  11745     1  0.0000000  0.6694400  3
  11728  11746  11733  11736     1  0.0000000  1.6038667  3
  11729  11728  11739  11742     1  0.0000000  0.6508444  3
  11729  11728  11739  11743     1  0.0000000  0.6508444  3
  11729  11731  11732  11734     1  0.0000000  0.6508444  3
  11729  11731  11738  11740     1  0.0000000  1.0460000  1
  11729  11731  11738  11740     1  0.0000000  0.6694400  3
  11730  11728  11729  11731     1  0.0000000  0.6508444  3
  11730  11728  11729  11749     1  0.0000000  1.0460000  1
  11730  11728  11729  11749     1  0.0000000  0.0000000  3
  11730  11728  11729  11748     1  0.0000000  0.6508444  3
  11730  11728  11739  11744     1  0.0000000  1.0460000  1
  11730  11728  11739  11744     1  0.0000000  0.0000000  3
  11730  11728  11739  11742     1  0.0000000  0.6508444  3
  11730  11728  11739  11743     1  0.0000000  0.6508444  3
  11730  11728  11746  11733     1  0.0000000  1.6038667  3
  11731  11729  11749  11750     1  0.0000000  1.0460000  1
  11731  11729  11749  11750     1  0.0000000  0.6694400  3
  11731  11732  11733  11736     1  0.0000000  0.6508444  3
  11731  11732  11751  11741     1  0.0000000  1.2552000  3
  11732  11731  11729  11748     1  0.0000000  0.6508444  3
  11732  11731  11738  11740     1  0.0000000  1.0460000  1
  11732  11731  11738  11740     1  0.0000000  0.6694400  3
  11732  11733  11737  11747     1  0.0000000  1.0460000  1
  11732  11733  11737  11747     1  0.0000000  0.6694400  3
  11733  11732  11731  11735     1  0.0000000  0.6508444  3
  11733  11732  11751  11741     1  0.0000000  1.2552000  3
  11734  11732  11731  11738     1  0.0000000  1.0460000  1
  11734  11732  11731  11738     1  0.0000000  0.0000000  3
  11734  11732  11731  11735     1  0.0000000  0.6508444  3
  11734  11732  11733  11737     1  0.0000000  1.0460000  1
  11734  11732  11733  11737     1  0.0000000  0.0000000  3
  11734  11732  11733  11746     1  0.0000000  1.0460000  1
  11734  11732  11733  11746     1  0.0000000  0.0000000  3
  11734  11732  11733  11736     1  0.0000000  0.6508444  3
  11734  11732  11751  11741     1  0.0000000  1.2552000  3
  11735  11731  11729  11749     1  0.0000000  1.0460000  1
  11735  11731  11729  11749     1  0.0000000  0.0000000  3
  11735  11731  11729  11748     1  0.0000000  0.6508444  3
  11735  11731  11732  11751     1  0.0000000  0.6508444  3
  11735  11731  11738  11740     1  0.0000000  0.6973333  3
  11736  11733  11732  11751     1  0.0000000  0.6508444  3
  11736  11733  11737  11747     1  0.0000000  0.6973333  3
  11738  11731  11729  11748     1  0.0000000  1.0460000  1
  11738  11731  11729  11748     1  0.0000000  0.0000000  3
  11739  11728  11729  11748     1  0.0000000  0.6508444  3
  11742  11739  11728  11746     1  0.0000000  1.0460000  1
  11742  11739  11728  11746     1  0.0000000  0.0000000  3
  11742  11739  11744  11745     1  0.0000000  0.6973333  3
  11743  11739  11728  11746     1  0.0000000  1.0460000  1
  11743  11739  11728  11746     1  0.0000000  0.0000000  3
  11743  11739  11744  11745     1  0.0000000  0.6973333  3
  11746  11728  11729  11748     1  0.0000000  1.0460000  1
  11746  11728  11729  11748     1  0.0000000  0.0000000  3
  11746  11733  11737  11747     1  0.0000000  0.6973333  3
  11748  11729  11749  11750     1  0.0000000  0.6973333  3
  11752  11753  11755  11759     1  0.0000000  0.6508444  3
  11752  11753  11773  11774     1  0.0000000  1.0460000  1
  11752  11753  11773  11774     1  0.0000000  0.6694400  3
  11752  11763  11768  11769     1  0.0000000  1.0460000  1
  11752  11763  11768  11769     1  0.0000000  0.6694400  3
  11752  11770  11757  11760     1  0.0000000  1.6038667  3
  11753  11752  11763  11766     1  0.0000000  0.6508444  3
  11753  11752  11763  11767     1  0.0000000  0.6508444  3
  11753  11755  11756  11758     1  0.0000000  0.6508444  3
  11753  11755  11762  11764     1  0.0000000  1.0460000  1
  11753  11755  11762  11764     1  0.0000000  0.6694400  3
  11754  11752  11753  11755     1  0.0000000  0.6508444  3
  11754  11752  11753  11773     1  0.0000000  1.0460000  1
  11754  11752  11753  11773     1  0.0000000  0.0000000  3
  11754  11752  11753  11772     1  0.0000000  0.6508444  3
  11754  11752  11763  11768     1  0.0000000  1.0460000  1
  11754  11752  11763  11768     1  0.0000000  0.0000000  3
  11754  11752  11763  11766     1  0.0000000  0.6508444  3
  11754  11752  11763  11767     1  0.0000000  0.6508444  3
  11754  11752  11770  11757     1  0.0000000  1.6038667  3
  11755  11753  11773  11774     1  0.0000000  1.0460000  1
  11755  11753  11773  11774     1  0.0000000  0.6694400  3
  11755  11756  11757  11760     1  0.0000000  0.6508444  3
  11755  11756  11775  11765     1  0.0000000  1.2552000  3
  11756  11755  11753  11772     1  0.0000000  0.6508444  3
  11756  11755  11762  11764     1  0.0000000  1.0460000  1
  11756  11755  11762  11764     1  0.0000000  0.6694400  3
  11756  11757  11761  11771     1  0.0000000  1.0460000  1
  11756  11757  11761  11771     1  0.0000000  0.6694400  3
  11757  11756  11755  11759     1  0.0000000  0.6508444  3
  11757  11756  11775  11765     1  0.0000000  1.2552000  3
  11758  11756  11755  11762     1  0.0000000  1.0460000  1
  11758  11756  11755  11762     1  0.0000000  0.0000000  3
  11758  11756  11755  11759     1  0.0000000  0.6508444  3
  11758  11756  11757  11761     1  0.0000000  1.0460000  1
  11758  11756  11757  11761     1  0.0000000  0.0000000  3
  11758  11756  11757  11770     1  0.0000000  1.0460000  1
  11758  11756  11757  11770     1  0.0000000  0.0000000  3
  11758  11756  11757  11760     1  0.0000000  0.6508444  3
  11758  11756  11775  11765     1  0.0000000  1.2552000  3
  11759  11755  11753  11773     1  0.0000000  1.0460000  1
  11759  11755  11753  11773     1  0.0000000  0.0000000  3
  11759  11755  11753  11772     1  0.0000000  0.6508444  3
  11759  11755  11756  11775     1  0.0000000  0.6508444  3
  11759  11755  11762  11764     1  0.0000000  0.6973333  3
  11760  11757  11756  11775     1  0.0000000  0.6508444  3
  11760  11757  11761  11771     1  0.0000000  0.6973333  3
  11762  11755  11753  11772     1  0.0000000  1.0460000  1
  11762  11755  11753  11772     1  0.0000000  0.0000000  3
  11763  11752  11753  11772     1  0.0000000  0.6508444  3
  11766  11763  11752  11770     1  0.0000000  1.0460000  1
  11766  11763  11752  11770     1  0.0000000  0.0000000  3
  11766  11763  11768  11769     1  0.0000000  0.6973333  3
  11767  11763  11752  11770     1  0.0000000  1.0460000  1
  11767  11763  11752  11770     1  0.0000000  0.0000000  3
  11767  11763  11768  11769     1  0.0000000  0.6973333  3
  11770  11752  11753  11772     1  0.0000000  1.0460000  1
  11770  11752  11753  11772     1  0.0000000  0.0000000  3
  11770  11757  11761  11771     1  0.0000000  0.6973333  3
  11772  11753  11773  11774     1  0.0000000  0.6973333  3
  11777  11779  11781  11783     1  0.0000000  0.6508444  3
  11777  11779  11781  11784     1  0.0000000  0.6508444  3
  11778  11777  11779  11781     1  0.0000000  0.0000000  2
  11778  11777  11779  11780     1  0.0000000  0.0000000  2
  11778  11777  11779  11782     1  0.0000000  0.0000000  2
  11779  11781  11785  11850     1  0.0000000  0.6508444  3
  11780  11779  11781  11785     1  0.0000000  0.6508444  3
  11780  11779  11781  11783     1  0.0000000  0.6508444  3
  11780  11779  11781  11784     1  0.0000000  0.6508444  3
  11781  11785  11786  11795     1  0.0000000  0.6508444  3
  11781  11785  11786  11796     1  0.0000000  0.6508444  3
  11781  11785  11787  11788     1  0.0000000  0.6508444  3
  11781  11785  11787  11790     1  0.0000000  0.6508444  3
  11782  11779  11781  11785     1  0.0000000  0.6508444  3
  11782  11779  11781  11783     1  0.0000000  0.6508444  3
  11782  11779  11781  11784     1  0.0000000  0.6508444  3
  11783  11781  11785  11786     1  0.0000000  0.6508444  3
  11783  11781  11785  11787     1  0.0000000  0.6508444  3
  11783  11781  11785  11850     1  0.0000000  0.6508444  3
  11784  11781  11785  11786     1  0.0000000  0.6508444  3
  11784  11781  11785  11787     1  0.0000000  0.6508444  3
  11784  11781  11785  11850     1  0.0000000  0.6508444  3
  11785  11786  11797  11798     1  0.0000000  0.6508444  3
  11785  11786  11797  11799     1  0.0000000  0.6508444  3
  11785  11787  11789  11791     1  0.0000000  0.6508444  3
  11785  11787  11789  11792     1  0.0000000  0.6508444  3
  11786  11785  11787  11788     1  0.0000000  0.6508444  3
  11786  11785  11787  11790     1  0.0000000  0.6508444  3
  11787  11785  11786  11795     1  0.0000000  0.6508444  3
  11787  11785  11786  11796     1  0.0000000  0.6508444  3
  11788  11787  11789  11793     1  0.0000000  0.6508444  3
  11788  11787  11789  11791     1  0.0000000  0.6508444  3
  11788  11787  11789  11792     1  0.0000000  0.6508444  3
  11788  11787  11785  11850     1  0.0000000  0.6508444  3
  11789  11793  11825  11815     1  180.0000771  6.0668000  2
  11789  11793  11825  11815     1  180.0000771  1.4644000  4
  11789  11787  11785  11850     1  0.0000000  0.6508444  3
  11790  11787  11789  11793     1  0.0000000  0.6508444  3
  11790  11787  11789  11791     1  0.0000000  0.6508444  3
  11790  11787  11789  11792     1  0.0000000  0.6508444  3
  11790  11787  11785  11850     1  0.0000000  0.6508444  3
  11791  11789  11793  11794     1  0.0000000  3.3472000  1
  11791  11789  11793  11794     1  0.0000000  0.0000000  2
  11791  11789  11793  11794     1  180.0000771  0.3347200  3
  11791  11789  11793  11825     1  180.0000771  0.0000000  2
  11792  11789  11793  11794     1  0.0000000  3.3472000  1
  11792  11789  11793  11794     1  0.0000000  0.0000000  2
  11792  11789  11793  11794     1  180.0000771  0.3347200  3
  11792  11789  11793  11825     1  180.0000771  0.0000000  2
  11793  11825  11806  11808     1  0.0000000  1.2552000  3
  11794  11793  11825  11815     1  180.0000771  6.0668000  2
  11794  11793  11825  11815     1  180.0000771  1.4644000  4
  11795  11786  11797  11800     1  0.0000000  0.6508444  3
  11795  11786  11797  11798     1  0.0000000  0.6508444  3
  11795  11786  11797  11799     1  0.0000000  0.6508444  3
  11795  11786  11785  11850     1  0.0000000  0.6508444  3
  11796  11786  11797  11800     1  0.0000000  0.6508444  3
  11796  11786  11797  11798     1  0.0000000  0.6508444  3
  11796  11786  11797  11799     1  0.0000000  0.6508444  3
  11796  11786  11785  11850     1  0.0000000  0.6508444  3
  11797  11800  11849  11839     1  180.0000771  6.0668000  2
  11797  11800  11849  11839     1  180.0000771  1.4644000  4
  11797  11786  11785  11850     1  0.0000000  0.6508444  3
  11798  11797  11800  11801     1  0.0000000  3.3472000  1
  11798  11797  11800  11801     1  0.0000000  0.0000000  2
  11798  11797  11800  11801     1  180.0000771  0.3347200  3
  11798  11797  11800  11849     1  180.0000771  0.0000000  2
  11799  11797  11800  11801     1  0.0000000  3.3472000  1
  11799  11797  11800  11801     1  0.0000000  0.0000000  2
  11799  11797  11800  11801     1  180.0000771  0.3347200  3
  11799  11797  11800  11849     1  180.0000771  0.0000000  2
  11800  11849  11830  11832     1  0.0000000  1.2552000  3
  11801  11800  11849  11839     1  180.0000771  6.0668000  2
  11801  11800  11849  11839     1  180.0000771  1.4644000  4
  11802  11803  11805  11809     1  0.0000000  0.6508444  3
  11802  11803  11823  11824     1  0.0000000  1.0460000  1
  11802  11803  11823  11824     1  0.0000000  0.6694400  3
  11802  11813  11818  11819     1  0.0000000  1.0460000  1
  11802  11813  11818  11819     1  0.0000000  0.6694400  3
  11802  11820  11807  11810     1  0.0000000  1.6038667  3
  11803  11805  11806  11808     1  0.0000000  0.6508444  3
  11803  11805  11812  11814     1  0.0000000  1.0460000  1
  11803  11805  11812  11814     1  0.0000000  0.6694400  3
  11803  11802  11813  11816     1  0.0000000  0.6508444  3
  11803  11802  11813  11817     1  0.0000000  0.6508444  3
  11804  11802  11803  11805     1  0.0000000  0.6508444  3
  11804  11802  11803  11823     1  0.0000000  1.0460000  1
  11804  11802  11803  11823     1  0.0000000  0.0000000  3
  11804  11802  11803  11822     1  0.0000000  0.6508444  3
  11804  11802  11813  11818     1  0.0000000  1.0460000  1
  11804  11802  11813  11818     1  0.0000000  0.0000000  3
  11804  11802  11813  11816     1  0.0000000  0.6508444  3
  11804  11802  11813  11817     1  0.0000000  0.6508444  3
  11804  11802  11820  11807     1  0.0000000  1.6038667  3
  11805  11806  11807  11810     1  0.0000000  0.6508444  3
  11805  11806  11825  11815     1  0.0000000  1.2552000  3
  11805  11803  11823  11824     1  0.0000000  1.0460000  1
  11805  11803  11823  11824     1  0.0000000  0.6694400  3
  11806  11807  11811  11821     1  0.0000000  1.0460000  1
  11806  11807  11811  11821     1  0.0000000  0.6694400  3
  11806  11805  11812  11814     1  0.0000000  1.0460000  1
  11806  11805  11812  11814     1  0.0000000  0.6694400  3
  11806  11805  11803  11822     1  0.0000000  0.6508444  3
  11807  11806  11825  11815     1  0.0000000  1.2552000  3
  11807  11806  11805  11809     1  0.0000000  0.6508444  3
  11808  11806  11807  11811     1  0.0000000  1.0460000  1
  11808  11806  11807  11811     1  0.0000000  0.0000000  3
  11808  11806  11807  11820     1  0.0000000  1.0460000  1
  11808  11806  11807  11820     1  0.0000000  0.0000000  3
  11808  11806  11807  11810     1  0.0000000  0.6508444  3
  11808  11806  11825  11815     1  0.0000000  1.2552000  3
  11808  11806  11805  11812     1  0.0000000  1.0460000  1
  11808  11806  11805  11812     1  0.0000000  0.0000000  3
  11808  11806  11805  11809     1  0.0000000  0.6508444  3
  11809  11805  11806  11825     1  0.0000000  0.6508444  3
  11809  11805  11812  11814     1  0.0000000  0.6973333  3
  11809  11805  11803  11823     1  0.0000000  1.0460000  1
  11809  11805  11803  11823     1  0.0000000  0.0000000  3
  11809  11805  11803  11822     1  0.0000000  0.6508444  3
  11810  11807  11811  11821     1  0.0000000  0.6973333  3
  11810  11807  11806  11825     1  0.0000000  0.6508444  3
  11812  11805  11803  11822     1  0.0000000  1.0460000  1
  11812  11805  11803  11822     1  0.0000000  0.0000000  3
  11813  11802  11803  11822     1  0.0000000  0.6508444  3
  11816  11813  11818  11819     1  0.0000000  0.6973333  3
  11816  11813  11802  11820     1  0.0000000  1.0460000  1
  11816  11813  11802  11820     1  0.0000000  0.0000000  3
  11817  11813  11818  11819     1  0.0000000  0.6973333  3
  11817  11813  11802  11820     1  0.0000000  1.0460000  1
  11817  11813  11802  11820     1  0.0000000  0.0000000  3
  11820  11807  11811  11821     1  0.0000000  0.6973333  3
  11820  11802  11803  11822     1  0.0000000  1.0460000  1
  11820  11802  11803  11822     1  0.0000000  0.0000000  3
  11822  11803  11823  11824     1  0.0000000  0.6973333  3
  11826  11827  11829  11833     1  0.0000000  0.6508444  3
  11826  11827  11847  11848     1  0.0000000  1.0460000  1
  11826  11827  11847  11848     1  0.0000000  0.6694400  3
  11826  11837  11842  11843     1  0.0000000  1.0460000  1
  11826  11837  11842  11843     1  0.0000000  0.6694400  3
  11826  11844  11831  11834     1  0.0000000  1.6038667  3
  11827  11829  11830  11832     1  0.0000000  0.6508444  3
  11827  11829  11836  11838     1  0.0000000  1.0460000  1
  11827  11829  11836  11838     1  0.0000000  0.6694400  3
  11827  11826  11837  11840     1  0.0000000  0.6508444  3
  11827  11826  11837  11841     1  0.0000000  0.6508444  3
  11828  11826  11827  11829     1  0.0000000  0.6508444  3
  11828  11826  11827  11847     1  0.0000000  1.0460000  1
  11828  11826  11827  11847     1  0.0000000  0.0000000  3
  11828  11826  11827  11846     1  0.0000000  0.6508444  3
  11828  11826  11837  11842     1  0.0000000  1.0460000  1
  11828  11826  11837  11842     1  0.0000000  0.0000000  3
  11828  11826  11837  11840     1  0.0000000  0.6508444  3
  11828  11826  11837  11841     1  0.0000000  0.6508444  3
  11828  11826  11844  11831     1  0.0000000  1.6038667  3
  11829  11830  11831  11834     1  0.0000000  0.6508444  3
  11829  11830  11849  11839     1  0.0000000  1.2552000  3
  11829  11827  11847  11848     1  0.0000000  1.0460000  1
  11829  11827  11847  11848     1  0.0000000  0.6694400  3
  11830  11831  11835  11845     1  0.0000000  1.0460000  1
  11830  11831  11835  11845     1  0.0000000  0.6694400  3
  11830  11829  11836  11838     1  0.0000000  1.0460000  1
  11830  11829  11836  11838     1  0.0000000  0.6694400  3
  11830  11829  11827  11846     1  0.0000000  0.6508444  3
  11831  11830  11849  11839     1  0.0000000  1.2552000  3
  11831  11830  11829  11833     1  0.0000000  0.6508444  3
  11832  11830  11831  11835     1  0.0000000  1.0460000  1
  11832  11830  11831  11835     1  0.0000000  0.0000000  3
  11832  11830  11831  11844     1  0.0000000  1.0460000  1
  11832  11830  11831  11844     1  0.0000000  0.0000000  3
  11832  11830  11831  11834     1  0.0000000  0.6508444  3
  11832  11830  11849  11839     1  0.0000000  1.2552000  3
  11832  11830  11829  11836     1  0.0000000  1.0460000  1
  11832  11830  11829  11836     1  0.0000000  0.0000000  3
  11832  11830  11829  11833     1  0.0000000  0.6508444  3
  11833  11829  11830  11849     1  0.0000000  0.6508444  3
  11833  11829  11836  11838     1  0.0000000  0.6973333  3
  11833  11829  11827  11847     1  0.0000000  1.0460000  1
  11833  11829  11827  11847     1  0.0000000  0.0000000  3
  11833  11829  11827  11846     1  0.0000000  0.6508444  3
  11834  11831  11835  11845     1  0.0000000  0.6973333  3
  11834  11831  11830  11849     1  0.0000000  0.6508444  3
  11836  11829  11827  11846     1  0.0000000  1.0460000  1
  11836  11829  11827  11846     1  0.0000000  0.0000000  3
  11837  11826  11827  11846     1  0.0000000  0.6508444  3
  11840  11837  11842  11843     1  0.0000000  0.6973333  3
  11840  11837  11826  11844     1  0.0000000  1.0460000  1
  11840  11837  11826  11844     1  0.0000000  0.0000000  3
  11841  11837  11842  11843     1  0.0000000  0.6973333  3
  11841  11837  11826  11844     1  0.0000000  1.0460000  1
  11841  11837  11826  11844     1  0.0000000  0.0000000  3
  11844  11831  11835  11845     1  0.0000000  0.6973333  3
  11844  11826  11827  11846     1  0.0000000  1.0460000  1
  11844  11826  11827  11846     1  0.0000000  0.0000000  3
  11846  11827  11847  11848     1  0.0000000  0.6973333  3
  11851  11853  11855  11857     1  0.0000000  0.6508444  3
  11851  11853  11855  11858     1  0.0000000  0.6508444  3
  11852  11851  11853  11855     1  0.0000000  0.0000000  2
  11852  11851  11853  11854     1  0.0000000  0.0000000  2
  11852  11851  11853  11856     1  0.0000000  0.0000000  2
  11853  11855  11859  11924     1  0.0000000  0.6508444  3
  11854  11853  11855  11859     1  0.0000000  0.6508444  3
  11854  11853  11855  11857     1  0.0000000  0.6508444  3
  11854  11853  11855  11858     1  0.0000000  0.6508444  3
  11855  11859  11860  11869     1  0.0000000  0.6508444  3
  11855  11859  11860  11870     1  0.0000000  0.6508444  3
  11855  11859  11861  11862     1  0.0000000  0.6508444  3
  11855  11859  11861  11864     1  0.0000000  0.6508444  3
  11856  11853  11855  11859     1  0.0000000  0.6508444  3
  11856  11853  11855  11857     1  0.0000000  0.6508444  3
  11856  11853  11855  11858     1  0.0000000  0.6508444  3
  11857  11855  11859  11860     1  0.0000000  0.6508444  3
  11857  11855  11859  11861     1  0.0000000  0.6508444  3
  11857  11855  11859  11924     1  0.0000000  0.6508444  3
  11858  11855  11859  11860     1  0.0000000  0.6508444  3
  11858  11855  11859  11861     1  0.0000000  0.6508444  3
  11858  11855  11859  11924     1  0.0000000  0.6508444  3
  11859  11860  11871  11872     1  0.0000000  0.6508444  3
  11859  11860  11871  11873     1  0.0000000  0.6508444  3
  11859  11861  11863  11865     1  0.0000000  0.6508444  3
  11859  11861  11863  11866     1  0.0000000  0.6508444  3
  11860  11859  11861  11862     1  0.0000000  0.6508444  3
  11860  11859  11861  11864     1  0.0000000  0.6508444  3
  11861  11859  11860  11869     1  0.0000000  0.6508444  3
  11861  11859  11860  11870     1  0.0000000  0.6508444  3
  11862  11861  11859  11924     1  0.0000000  0.6508444  3
  11862  11861  11863  11867     1  0.0000000  0.6508444  3
  11862  11861  11863  11865     1  0.0000000  0.6508444  3
  11862  11861  11863  11866     1  0.0000000  0.6508444  3
  11863  11861  11859  11924     1  0.0000000  0.6508444  3
  11863  11867  11899  11889     1  180.0000771  6.0668000  2
  11863  11867  11899  11889     1  180.0000771  1.4644000  4
  11864  11861  11859  11924     1  0.0000000  0.6508444  3
  11864  11861  11863  11867     1  0.0000000  0.6508444  3
  11864  11861  11863  11865     1  0.0000000  0.6508444  3
  11864  11861  11863  11866     1  0.0000000  0.6508444  3
  11865  11863  11867  11868     1  0.0000000  3.3472000  1
  11865  11863  11867  11868     1  0.0000000  0.0000000  2
  11865  11863  11867  11868     1  180.0000771  0.3347200  3
  11865  11863  11867  11899     1  180.0000771  0.0000000  2
  11866  11863  11867  11868     1  0.0000000  3.3472000  1
  11866  11863  11867  11868     1  0.0000000  0.0000000  2
  11866  11863  11867  11868     1  180.0000771  0.3347200  3
  11866  11863  11867  11899     1  180.0000771  0.0000000  2
  11867  11899  11880  11882     1  0.0000000  1.2552000  3
  11868  11867  11899  11889     1  180.0000771  6.0668000  2
  11868  11867  11899  11889     1  180.0000771  1.4644000  4
  11869  11860  11859  11924     1  0.0000000  0.6508444  3
  11869  11860  11871  11874     1  0.0000000  0.6508444  3
  11869  11860  11871  11872     1  0.0000000  0.6508444  3
  11869  11860  11871  11873     1  0.0000000  0.6508444  3
  11870  11860  11859  11924     1  0.0000000  0.6508444  3
  11870  11860  11871  11874     1  0.0000000  0.6508444  3
  11870  11860  11871  11872     1  0.0000000  0.6508444  3
  11870  11860  11871  11873     1  0.0000000  0.6508444  3
  11871  11860  11859  11924     1  0.0000000  0.6508444  3
  11871  11874  11923  11913     1  180.0000771  6.0668000  2
  11871  11874  11923  11913     1  180.0000771  1.4644000  4
  11872  11871  11874  11875     1  0.0000000  3.3472000  1
  11872  11871  11874  11875     1  0.0000000  0.0000000  2
  11872  11871  11874  11875     1  180.0000771  0.3347200  3
  11872  11871  11874  11923     1  180.0000771  0.0000000  2
  11873  11871  11874  11875     1  0.0000000  3.3472000  1
  11873  11871  11874  11875     1  0.0000000  0.0000000  2
  11873  11871  11874  11875     1  180.0000771  0.3347200  3
  11873  11871  11874  11923     1  180.0000771  0.0000000  2
  11874  11923  11904  11906     1  0.0000000  1.2552000  3
  11875  11874  11923  11913     1  180.0000771  6.0668000  2
  11875  11874  11923  11913     1  180.0000771  1.4644000  4
  11876  11877  11879  11883     1  0.0000000  0.6508444  3
  11876  11877  11897  11898     1  0.0000000  1.0460000  1
  11876  11877  11897  11898     1  0.0000000  0.6694400  3
  11876  11887  11892  11893     1  0.0000000  1.0460000  1
  11876  11887  11892  11893     1  0.0000000  0.6694400  3
  11876  11894  11881  11884     1  0.0000000  1.6038667  3
  11877  11876  11887  11890     1  0.0000000  0.6508444  3
  11877  11876  11887  11891     1  0.0000000  0.6508444  3
  11877  11879  11880  11882     1  0.0000000  0.6508444  3
  11877  11879  11886  11888     1  0.0000000  1.0460000  1
  11877  11879  11886  11888     1  0.0000000  0.6694400  3
  11878  11876  11877  11879     1  0.0000000  0.6508444  3
  11878  11876  11877  11897     1  0.0000000  1.0460000  1
  11878  11876  11877  11897     1  0.0000000  0.0000000  3
  11878  11876  11877  11896     1  0.0000000  0.6508444  3
  11878  11876  11887  11892     1  0.0000000  1.0460000  1
  11878  11876  11887  11892     1  0.0000000  0.0000000  3
  11878  11876  11887  11890     1  0.0000000  0.6508444  3
  11878  11876  11887  11891     1  0.0000000  0.6508444  3
  11878  11876  11894  11881     1  0.0000000  1.6038667  3
  11879  11877  11897  11898     1  0.0000000  1.0460000  1
  11879  11877  11897  11898     1  0.0000000  0.6694400  3
  11879  11880  11881  11884     1  0.0000000  0.6508444  3
  11879  11880  11899  11889     1  0.0000000  1.2552000  3
  11880  11879  11877  11896     1  0.0000000  0.6508444  3
  11880  11879  11886  11888     1  0.0000000  1.0460000  1
  11880  11879  11886  11888     1  0.0000000  0.6694400  3
  11880  11881  11885  11895     1  0.0000000  1.0460000  1
  11880  11881  11885  11895     1  0.0000000  0.6694400  3
  11881  11880  11879  11883     1  0.0000000  0.6508444  3
  11881  11880  11899  11889     1  0.0000000  1.2552000  3
  11882  11880  11879  11886     1  0.0000000  1.0460000  1
  11882  11880  11879  11886     1  0.0000000  0.0000000  3
  11882  11880  11879  11883     1  0.0000000  0.6508444  3
  11882  11880  11881  11885     1  0.0000000  1.0460000  1
  11882  11880  11881  11885     1  0.0000000  0.0000000  3
  11882  11880  11881  11894     1  0.0000000  1.0460000  1
  11882  11880  11881  11894     1  0.0000000  0.0000000  3
  11882  11880  11881  11884     1  0.0000000  0.6508444  3
  11882  11880  11899  11889     1  0.0000000  1.2552000  3
  11883  11879  11877  11897     1  0.0000000  1.0460000  1
  11883  11879  11877  11897     1  0.0000000  0.0000000  3
  11883  11879  11877  11896     1  0.0000000  0.6508444  3
  11883  11879  11880  11899     1  0.0000000  0.6508444  3
  11883  11879  11886  11888     1  0.0000000  0.6973333  3
  11884  11881  11880  11899     1  0.0000000  0.6508444  3
  11884  11881  11885  11895     1  0.0000000  0.6973333  3
  11886  11879  11877  11896     1  0.0000000  1.0460000  1
  11886  11879  11877  11896     1  0.0000000  0.0000000  3
  11887  11876  11877  11896     1  0.0000000  0.6508444  3
  11890  11887  11876  11894     1  0.0000000  1.0460000  1
  11890  11887  11876  11894     1  0.0000000  0.0000000  3
  11890  11887  11892  11893     1  0.0000000  0.6973333  3
  11891  11887  11876  11894     1  0.0000000  1.0460000  1
  11891  11887  11876  11894     1  0.0000000  0.0000000  3
  11891  11887  11892  11893     1  0.0000000  0.6973333  3
  11894  11876  11877  11896     1  0.0000000  1.0460000  1
  11894  11876  11877  11896     1  0.0000000  0.0000000  3
  11894  11881  11885  11895     1  0.0000000  0.6973333  3
  11896  11877  11897  11898     1  0.0000000  0.6973333  3
  11900  11901  11903  11907     1  0.0000000  0.6508444  3
  11900  11901  11921  11922     1  0.0000000  1.0460000  1
  11900  11901  11921  11922     1  0.0000000  0.6694400  3
  11900  11911  11916  11917     1  0.0000000  1.0460000  1
  11900  11911  11916  11917     1  0.0000000  0.6694400  3
  11900  11918  11905  11908     1  0.0000000  1.6038667  3
  11901  11900  11911  11914     1  0.0000000  0.6508444  3
  11901  11900  11911  11915     1  0.0000000  0.6508444  3
  11901  11903  11904  11906     1  0.0000000  0.6508444  3
  11901  11903  11910  11912     1  0.0000000  1.0460000  1
  11901  11903  11910  11912     1  0.0000000  0.6694400  3
  11902  11900  11901  11903     1  0.0000000  0.6508444  3
  11902  11900  11901  11921     1  0.0000000  1.0460000  1
  11902  11900  11901  11921     1  0.0000000  0.0000000  3
  11902  11900  11901  11920     1  0.0000000  0.6508444  3
  11902  11900  11911  11916     1  0.0000000  1.0460000  1
  11902  11900  11911  11916     1  0.0000000  0.0000000  3
  11902  11900  11911  11914     1  0.0000000  0.6508444  3
  11902  11900  11911  11915     1  0.0000000  0.6508444  3
  11902  11900  11918  11905     1  0.0000000  1.6038667  3
  11903  11901  11921  11922     1  0.0000000  1.0460000  1
  11903  11901  11921  11922     1  0.0000000  0.6694400  3
  11903  11904  11905  11908     1  0.0000000  0.6508444  3
  11903  11904  11923  11913     1  0.0000000  1.2552000  3
  11904  11903  11901  11920     1  0.0000000  0.6508444  3
  11904  11903  11910  11912     1  0.0000000  1.0460000  1
  11904  11903  11910  11912     1  0.0000000  0.6694400  3
  11904  11905  11909  11919     1  0.0000000  1.0460000  1
  11904  11905  11909  11919     1  0.0000000  0.6694400  3
  11905  11904  11903  11907     1  0.0000000  0.6508444  3
  11905  11904  11923  11913     1  0.0000000  1.2552000  3
  11906  11904  11903  11910     1  0.0000000  1.0460000  1
  11906  11904  11903  11910     1  0.0000000  0.0000000  3
  11906  11904  11903  11907     1  0.0000000  0.6508444  3
  11906  11904  11905  11909     1  0.0000000  1.0460000  1
  11906  11904  11905  11909     1  0.0000000  0.0000000  3
  11906  11904  11905  11918     1  0.0000000  1.0460000  1
  11906  11904  11905  11918     1  0.0000000  0.0000000  3
  11906  11904  11905  11908     1  0.0000000  0.6508444  3
  11906  11904  11923  11913     1  0.0000000  1.2552000  3
  11907  11903  11901  11921     1  0.0000000  1.0460000  1
  11907  11903  11901  11921     1  0.0000000  0.0000000  3
  11907  11903  11901  11920     1  0.0000000  0.6508444  3
  11907  11903  11904  11923     1  0.0000000  0.6508444  3
  11907  11903  11910  11912     1  0.0000000  0.6973333  3
  11908  11905  11904  11923     1  0.0000000  0.6508444  3
  11908  11905  11909  11919     1  0.0000000  0.6973333  3
  11910  11903  11901  11920     1  0.0000000  1.0460000  1
  11910  11903  11901  11920     1  0.0000000  0.0000000  3
  11911  11900  11901  11920     1  0.0000000  0.6508444  3
  11914  11911  11900  11918     1  0.0000000  1.0460000  1
  11914  11911  11900  11918     1  0.0000000  0.0000000  3
  11914  11911  11916  11917     1  0.0000000  0.6973333  3
  11915  11911  11900  11918     1  0.0000000  1.0460000  1
  11915  11911  11900  11918     1  0.0000000  0.0000000  3
  11915  11911  11916  11917     1  0.0000000  0.6973333  3
  11918  11900  11901  11920     1  0.0000000  1.0460000  1
  11918  11900  11901  11920     1  0.0000000  0.0000000  3
  11918  11905  11909  11919     1  0.0000000  0.6973333  3
  11920  11901  11921  11922     1  0.0000000  0.6973333  3
  11925  11927  11929  11931     1  0.0000000  0.6508444  3
  11925  11927  11929  11932     1  0.0000000  0.6508444  3
  11926  11925  11927  11929     1  0.0000000  0.0000000  2
  11926  11925  11927  11928     1  0.0000000  0.0000000  2
  11926  11925  11927  11930     1  0.0000000  0.0000000  2
  11927  11929  11933  11998     1  0.0000000  0.6508444  3
  11928  11927  11929  11933     1  0.0000000  0.6508444  3
  11928  11927  11929  11931     1  0.0000000  0.6508444  3
  11928  11927  11929  11932     1  0.0000000  0.6508444  3
  11929  11933  11934  11943     1  0.0000000  0.6508444  3
  11929  11933  11934  11944     1  0.0000000  0.6508444  3
  11929  11933  11935  11936     1  0.0000000  0.6508444  3
  11929  11933  11935  11938     1  0.0000000  0.6508444  3
  11930  11927  11929  11933     1  0.0000000  0.6508444  3
  11930  11927  11929  11931     1  0.0000000  0.6508444  3
  11930  11927  11929  11932     1  0.0000000  0.6508444  3
  11931  11929  11933  11934     1  0.0000000  0.6508444  3
  11931  11929  11933  11935     1  0.0000000  0.6508444  3
  11931  11929  11933  11998     1  0.0000000  0.6508444  3
  11932  11929  11933  11934     1  0.0000000  0.6508444  3
  11932  11929  11933  11935     1  0.0000000  0.6508444  3
  11932  11929  11933  11998     1  0.0000000  0.6508444  3
  11933  11934  11945  11946     1  0.0000000  0.6508444  3
  11933  11934  11945  11947     1  0.0000000  0.6508444  3
  11933  11935  11937  11939     1  0.0000000  0.6508444  3
  11933  11935  11937  11940     1  0.0000000  0.6508444  3
  11934  11933  11935  11936     1  0.0000000  0.6508444  3
  11934  11933  11935  11938     1  0.0000000  0.6508444  3
  11935  11933  11934  11943     1  0.0000000  0.6508444  3
  11935  11933  11934  11944     1  0.0000000  0.6508444  3
  11936  11935  11937  11941     1  0.0000000  0.6508444  3
  11936  11935  11937  11939     1  0.0000000  0.6508444  3
  11936  11935  11937  11940     1  0.0000000  0.6508444  3
  11936  11935  11933  11998     1  0.0000000  0.6508444  3
  11937  11941  11973  11963     1  180.0000771  6.0668000  2
  11937  11941  11973  11963     1  180.0000771  1.4644000  4
  11937  11935  11933  11998     1  0.0000000  0.6508444  3
  11938  11935  11937  11941     1  0.0000000  0.6508444  3
  11938  11935  11937  11939     1  0.0000000  0.6508444  3
  11938  11935  11937  11940     1  0.0000000  0.6508444  3
  11938  11935  11933  11998     1  0.0000000  0.6508444  3
  11939  11937  11941  11942     1  0.0000000  3.3472000  1
  11939  11937  11941  11942     1  0.0000000  0.0000000  2
  11939  11937  11941  11942     1  180.0000771  0.3347200  3
  11939  11937  11941  11973     1  180.0000771  0.0000000  2
  11940  11937  11941  11942     1  0.0000000  3.3472000  1
  11940  11937  11941  11942     1  0.0000000  0.0000000  2
  11940  11937  11941  11942     1  180.0000771  0.3347200  3
  11940  11937  11941  11973     1  180.0000771  0.0000000  2
  11941  11973  11954  11956     1  0.0000000  1.2552000  3
  11942  11941  11973  11963     1  180.0000771  6.0668000  2
  11942  11941  11973  11963     1  180.0000771  1.4644000  4
  11943  11934  11945  11948     1  0.0000000  0.6508444  3
  11943  11934  11945  11946     1  0.0000000  0.6508444  3
  11943  11934  11945  11947     1  0.0000000  0.6508444  3
  11943  11934  11933  11998     1  0.0000000  0.6508444  3
  11944  11934  11945  11948     1  0.0000000  0.6508444  3
  11944  11934  11945  11946     1  0.0000000  0.6508444  3
  11944  11934  11945  11947     1  0.0000000  0.6508444  3
  11944  11934  11933  11998     1  0.0000000  0.6508444  3
  11945  11948  11997  11987     1  180.0000771  6.0668000  2
  11945  11948  11997  11987     1  180.0000771  1.4644000  4
  11945  11934  11933  11998     1  0.0000000  0.6508444  3
  11946  11945  11948  11949     1  0.0000000  3.3472000  1
  11946  11945  11948  11949     1  0.0000000  0.0000000  2
  11946  11945  11948  11949     1  180.0000771  0.3347200  3
  11946  11945  11948  11997     1  180.0000771  0.0000000  2
  11947  11945  11948  11949     1  0.0000000  3.3472000  1
  11947  11945  11948  11949     1  0.0000000  0.0000000  2
  11947  11945  11948  11949     1  180.0000771  0.3347200  3
  11947  11945  11948  11997     1  180.0000771  0.0000000  2
  11948  11997  11978  11980     1  0.0000000  1.2552000  3
  11949  11948  11997  11987     1  180.0000771  6.0668000  2
  11949  11948  11997  11987     1  180.0000771  1.4644000  4
  11950  11951  11953  11957     1  0.0000000  0.6508444  3
  11950  11951  11971  11972     1  0.0000000  1.0460000  1
  11950  11951  11971  11972     1  0.0000000  0.6694400  3
  11950  11961  11966  11967     1  0.0000000  1.0460000  1
  11950  11961  11966  11967     1  0.0000000  0.6694400  3
  11950  11968  11955  11958     1  0.0000000  1.6038667  3
  11951  11953  11954  11956     1  0.0000000  0.6508444  3
  11951  11953  11960  11962     1  0.0000000  1.0460000  1
  11951  11953  11960  11962     1  0.0000000  0.6694400  3
  11951  11950  11961  11964     1  0.0000000  0.6508444  3
  11951  11950  11961  11965     1  0.0000000  0.6508444  3
  11952  11950  11951  11953     1  0.0000000  0.6508444  3
  11952  11950  11951  11971     1  0.0000000  1.0460000  1
  11952  11950  11951  11971     1  0.0000000  0.0000000  3
  11952  11950  11951  11970     1  0.0000000  0.6508444  3
  11952  11950  11961  11966     1  0.0000000  1.0460000  1
  11952  11950  11961  11966     1  0.0000000  0.0000000  3
  11952  11950  11961  11964     1  0.0000000  0.6508444  3
  11952  11950  11961  11965     1  0.0000000  0.6508444  3
  11952  11950  11968  11955     1  0.0000000  1.6038667  3
  11953  11954  11955  11958     1  0.0000000  0.6508444  3
  11953  11954  11973  11963     1  0.0000000  1.2552000  3
  11953  11951  11971  11972     1  0.0000000  1.0460000  1
  11953  11951  11971  11972     1  0.0000000  0.6694400  3
  11954  11955  11959  11969     1  0.0000000  1.0460000  1
  11954  11955  11959  11969     1  0.0000000  0.6694400  3
  11954  11953  11960  11962     1  0.0000000  1.0460000  1
  11954  11953  11960  11962     1  0.0000000  0.6694400  3
  11954  11953  11951  11970     1  0.0000000  0.6508444  3
  11955  11954  11973  11963     1  0.0000000  1.2552000  3
  11955  11954  11953  11957     1  0.0000000  0.6508444  3
  11956  11954  11955  11959     1  0.0000000  1.0460000  1
  11956  11954  11955  11959     1  0.0000000  0.0000000  3
  11956  11954  11955  11968     1  0.0000000  1.0460000  1
  11956  11954  11955  11968     1  0.0000000  0.0000000  3
  11956  11954  11955  11958     1  0.0000000  0.6508444  3
  11956  11954  11973  11963     1  0.0000000  1.2552000  3
  11956  11954  11953  11960     1  0.0000000  1.0460000  1
  11956  11954  11953  11960     1  0.0000000  0.0000000  3
  11956  11954  11953  11957     1  0.0000000  0.6508444  3
  11957  11953  11954  11973     1  0.0000000  0.6508444  3
  11957  11953  11960  11962     1  0.0000000  0.6973333  3
  11957  11953  11951  11971     1  0.0000000  1.0460000  1
  11957  11953  11951  11971     1  0.0000000  0.0000000  3
  11957  11953  11951  11970     1  0.0000000  0.6508444  3
  11958  11955  11959  11969     1  0.0000000  0.6973333  3
  11958  11955  11954  11973     1  0.0000000  0.6508444  3
  11960  11953  11951  11970     1  0.0000000  1.0460000  1
  11960  11953  11951  11970     1  0.0000000  0.0000000  3
  11961  11950  11951  11970     1  0.0000000  0.6508444  3
  11964  11961  11966  11967     1  0.0000000  0.6973333  3
  11964  11961  11950  11968     1  0.0000000  1.0460000  1
  11964  11961  11950  11968     1  0.0000000  0.0000000  3
  11965  11961  11966  11967     1  0.0000000  0.6973333  3
  11965  11961  11950  11968     1  0.0000000  1.0460000  1
  11965  11961  11950  11968     1  0.0000000  0.0000000  3
  11968  11955  11959  11969     1  0.0000000  0.6973333  3
  11968  11950  11951  11970     1  0.0000000  1.0460000  1
  11968  11950  11951  11970     1  0.0000000  0.0000000  3
  11970  11951  11971  11972     1  0.0000000  0.6973333  3
  11974  11975  11977  11981     1  0.0000000  0.6508444  3
  11974  11975  11995  11996     1  0.0000000  1.0460000  1
  11974  11975  11995  11996     1  0.0000000  0.6694400  3
  11974  11985  11990  11991     1  0.0000000  1.0460000  1
  11974  11985  11990  11991     1  0.0000000  0.6694400  3
  11974  11992  11979  11982     1  0.0000000  1.6038667  3
  11975  11977  11978  11980     1  0.0000000  0.6508444  3
  11975  11977  11984  11986     1  0.0000000  1.0460000  1
  11975  11977  11984  11986     1  0.0000000  0.6694400  3
  11975  11974  11985  11988     1  0.0000000  0.6508444  3
  11975  11974  11985  11989     1  0.0000000  0.6508444  3
  11976  11974  11975  11977     1  0.0000000  0.6508444  3
  11976  11974  11975  11995     1  0.0000000  1.0460000  1
  11976  11974  11975  11995     1  0.0000000  0.0000000  3
  11976  11974  11975  11994     1  0.0000000  0.6508444  3
  11976  11974  11985  11990     1  0.0000000  1.0460000  1
  11976  11974  11985  11990     1  0.0000000  0.0000000  3
  11976  11974  11985  11988     1  0.0000000  0.6508444  3
  11976  11974  11985  11989     1  0.0000000  0.6508444  3
  11976  11974  11992  11979     1  0.0000000  1.6038667  3
  11977  11978  11979  11982     1  0.0000000  0.6508444  3
  11977  11978  11997  11987     1  0.0000000  1.2552000  3
  11977  11975  11995  11996     1  0.0000000  1.0460000  1
  11977  11975  11995  11996     1  0.0000000  0.6694400  3
  11978  11979  11983  11993     1  0.0000000  1.0460000  1
  11978  11979  11983  11993     1  0.0000000  0.6694400  3
  11978  11977  11984  11986     1  0.0000000  1.0460000  1
  11978  11977  11984  11986     1  0.0000000  0.6694400  3
  11978  11977  11975  11994     1  0.0000000  0.6508444  3
  11979  11978  11997  11987     1  0.0000000  1.2552000  3
  11979  11978  11977  11981     1  0.0000000  0.6508444  3
  11980  11978  11979  11983     1  0.0000000  1.0460000  1
  11980  11978  11979  11983     1  0.0000000  0.0000000  3
  11980  11978  11979  11992     1  0.0000000  1.0460000  1
  11980  11978  11979  11992     1  0.0000000  0.0000000  3
  11980  11978  11979  11982     1  0.0000000  0.6508444  3
  11980  11978  11997  11987     1  0.0000000  1.2552000  3
  11980  11978  11977  11984     1  0.0000000  1.0460000  1
  11980  11978  11977  11984     1  0.0000000  0.0000000  3
  11980  11978  11977  11981     1  0.0000000  0.6508444  3
  11981  11977  11978  11997     1  0.0000000  0.6508444  3
  11981  11977  11984  11986     1  0.0000000  0.6973333  3
  11981  11977  11975  11995     1  0.0000000  1.0460000  1
  11981  11977  11975  11995     1  0.0000000  0.0000000  3
  11981  11977  11975  11994     1  0.0000000  0.6508444  3
  11982  11979  11983  11993     1  0.0000000  0.6973333  3
  11982  11979  11978  11997     1  0.0000000  0.6508444  3
  11984  11977  11975  11994     1  0.0000000  1.0460000  1
  11984  11977  11975  11994     1  0.0000000  0.0000000  3
  11985  11974  11975  11994     1  0.0000000  0.6508444  3
  11988  11985  11990  11991     1  0.0000000  0.6973333  3
  11988  11985  11974  11992     1  0.0000000  1.0460000  1
  11988  11985  11974  11992     1  0.0000000  0.0000000  3
  11989  11985  11990  11991     1  0.0000000  0.6973333  3
  11989  11985  11974  11992     1  0.0000000  1.0460000  1
  11989  11985  11974  11992     1  0.0000000  0.0000000  3
  11992  11979  11983  11993     1  0.0000000  0.6973333  3
  11992  11974  11975  11994     1  0.0000000  1.0460000  1
  11992  11974  11975  11994     1  0.0000000  0.0000000  3
  11994  11975  11995  11996     1  0.0000000  0.6973333  3
  11999  12001  12003  12005     1  0.0000000  0.6508444  3
  11999  12001  12003  12006     1  0.0000000  0.6508444  3
  12000  11999  12001  12003     1  0.0000000  0.0000000  2
  12000  11999  12001  12002     1  0.0000000  0.0000000  2
  12000  11999  12001  12004     1  0.0000000  0.0000000  2
  12001  12003  12007  12072     1  0.0000000  0.6508444  3
  12002  12001  12003  12007     1  0.0000000  0.6508444  3
  12002  12001  12003  12005     1  0.0000000  0.6508444  3
  12002  12001  12003  12006     1  0.0000000  0.6508444  3
  12003  12007  12008  12017     1  0.0000000  0.6508444  3
  12003  12007  12008  12018     1  0.0000000  0.6508444  3
  12003  12007  12009  12010     1  0.0000000  0.6508444  3
  12003  12007  12009  12012     1  0.0000000  0.6508444  3
  12004  12001  12003  12007     1  0.0000000  0.6508444  3
  12004  12001  12003  12005     1  0.0000000  0.6508444  3
  12004  12001  12003  12006     1  0.0000000  0.6508444  3
  12005  12003  12007  12008     1  0.0000000  0.6508444  3
  12005  12003  12007  12009     1  0.0000000  0.6508444  3
  12005  12003  12007  12072     1  0.0000000  0.6508444  3
  12006  12003  12007  12008     1  0.0000000  0.6508444  3
  12006  12003  12007  12009     1  0.0000000  0.6508444  3
  12006  12003  12007  12072     1  0.0000000  0.6508444  3
  12007  12008  12019  12020     1  0.0000000  0.6508444  3
  12007  12008  12019  12021     1  0.0000000  0.6508444  3
  12007  12009  12011  12013     1  0.0000000  0.6508444  3
  12007  12009  12011  12014     1  0.0000000  0.6508444  3
  12008  12007  12009  12010     1  0.0000000  0.6508444  3
  12008  12007  12009  12012     1  0.0000000  0.6508444  3
  12009  12007  12008  12017     1  0.0000000  0.6508444  3
  12009  12007  12008  12018     1  0.0000000  0.6508444  3
  12010  12009  12007  12072     1  0.0000000  0.6508444  3
  12010  12009  12011  12015     1  0.0000000  0.6508444  3
  12010  12009  12011  12013     1  0.0000000  0.6508444  3
  12010  12009  12011  12014     1  0.0000000  0.6508444  3
  12011  12009  12007  12072     1  0.0000000  0.6508444  3
  12011  12015  12047  12037     1  180.0000771  6.0668000  2
  12011  12015  12047  12037     1  180.0000771  1.4644000  4
  12012  12009  12007  12072     1  0.0000000  0.6508444  3
  12012  12009  12011  12015     1  0.0000000  0.6508444  3
  12012  12009  12011  12013     1  0.0000000  0.6508444  3
  12012  12009  12011  12014     1  0.0000000  0.6508444  3
  12013  12011  12015  12016     1  0.0000000  3.3472000  1
  12013  12011  12015  12016     1  0.0000000  0.0000000  2
  12013  12011  12015  12016     1  180.0000771  0.3347200  3
  12013  12011  12015  12047     1  180.0000771  0.0000000  2
  12014  12011  12015  12016     1  0.0000000  3.3472000  1
  12014  12011  12015  12016     1  0.0000000  0.0000000  2
  12014  12011  12015  12016     1  180.0000771  0.3347200  3
  12014  12011  12015  12047     1  180.0000771  0.0000000  2
  12015  12047  12028  12030     1  0.0000000  1.2552000  3
  12016  12015  12047  12037     1  180.0000771  6.0668000  2
  12016  12015  12047  12037     1  180.0000771  1.4644000  4
  12017  12008  12007  12072     1  0.0000000  0.6508444  3
  12017  12008  12019  12022     1  0.0000000  0.6508444  3
  12017  12008  12019  12020     1  0.0000000  0.6508444  3
  12017  12008  12019  12021     1  0.0000000  0.6508444  3
  12018  12008  12007  12072     1  0.0000000  0.6508444  3
  12018  12008  12019  12022     1  0.0000000  0.6508444  3
  12018  12008  12019  12020     1  0.0000000  0.6508444  3
  12018  12008  12019  12021     1  0.0000000  0.6508444  3
  12019  12008  12007  12072     1  0.0000000  0.6508444  3
  12019  12022  12071  12061     1  180.0000771  6.0668000  2
  12019  12022  12071  12061     1  180.0000771  1.4644000  4
  12020  12019  12022  12023     1  0.0000000  3.3472000  1
  12020  12019  12022  12023     1  0.0000000  0.0000000  2
  12020  12019  12022  12023     1  180.0000771  0.3347200  3
  12020  12019  12022  12071     1  180.0000771  0.0000000  2
  12021  12019  12022  12023     1  0.0000000  3.3472000  1
  12021  12019  12022  12023     1  0.0000000  0.0000000  2
  12021  12019  12022  12023     1  180.0000771  0.3347200  3
  12021  12019  12022  12071     1  180.0000771  0.0000000  2
  12022  12071  12052  12054     1  0.0000000  1.2552000  3
  12023  12022  12071  12061     1  180.0000771  6.0668000  2
  12023  12022  12071  12061     1  180.0000771  1.4644000  4
  12024  12025  12027  12031     1  0.0000000  0.6508444  3
  12024  12025  12045  12046     1  0.0000000  1.0460000  1
  12024  12025  12045  12046     1  0.0000000  0.6694400  3
  12024  12035  12040  12041     1  0.0000000  1.0460000  1
  12024  12035  12040  12041     1  0.0000000  0.6694400  3
  12024  12042  12029  12032     1  0.0000000  1.6038667  3
  12025  12024  12035  12038     1  0.0000000  0.6508444  3
  12025  12024  12035  12039     1  0.0000000  0.6508444  3
  12025  12027  12028  12030     1  0.0000000  0.6508444  3
  12025  12027  12034  12036     1  0.0000000  1.0460000  1
  12025  12027  12034  12036     1  0.0000000  0.6694400  3
  12026  12024  12025  12027     1  0.0000000  0.6508444  3
  12026  12024  12025  12045     1  0.0000000  1.0460000  1
  12026  12024  12025  12045     1  0.0000000  0.0000000  3
  12026  12024  12025  12044     1  0.0000000  0.6508444  3
  12026  12024  12035  12040     1  0.0000000  1.0460000  1
  12026  12024  12035  12040     1  0.0000000  0.0000000  3
  12026  12024  12035  12038     1  0.0000000  0.6508444  3
  12026  12024  12035  12039     1  0.0000000  0.6508444  3
  12026  12024  12042  12029     1  0.0000000  1.6038667  3
  12027  12025  12045  12046     1  0.0000000  1.0460000  1
  12027  12025  12045  12046     1  0.0000000  0.6694400  3
  12027  12028  12029  12032     1  0.0000000  0.6508444  3
  12027  12028  12047  12037     1  0.0000000  1.2552000  3
  12028  12027  12025  12044     1  0.0000000  0.6508444  3
  12028  12027  12034  12036     1  0.0000000  1.0460000  1
  12028  12027  12034  12036     1  0.0000000  0.6694400  3
  12028  12029  12033  12043     1  0.0000000  1.0460000  1
  12028  12029  12033  12043     1  0.0000000  0.6694400  3
  12029  12028  12027  12031     1  0.0000000  0.6508444  3
  12029  12028  12047  12037     1  0.0000000  1.2552000  3
  12030  12028  12027  12034     1  0.0000000  1.0460000  1
  12030  12028  12027  12034     1  0.0000000  0.0000000  3
  12030  12028  12027  12031     1  0.0000000  0.6508444  3
  12030  12028  12029  12033     1  0.0000000  1.0460000  1
  12030  12028  12029  12033     1  0.0000000  0.0000000  3
  12030  12028  12029  12042     1  0.0000000  1.0460000  1
  12030  12028  12029  12042     1  0.0000000  0.0000000  3
  12030  12028  12029  12032     1  0.0000000  0.6508444  3
  12030  12028  12047  12037     1  0.0000000  1.2552000  3
  12031  12027  12025  12045     1  0.0000000  1.0460000  1
  12031  12027  12025  12045     1  0.0000000  0.0000000  3
  12031  12027  12025  12044     1  0.0000000  0.6508444  3
  12031  12027  12028  12047     1  0.0000000  0.6508444  3
  12031  12027  12034  12036     1  0.0000000  0.6973333  3
  12032  12029  12028  12047     1  0.0000000  0.6508444  3
  12032  12029  12033  12043     1  0.0000000  0.6973333  3
  12034  12027  12025  12044     1  0.0000000  1.0460000  1
  12034  12027  12025  12044     1  0.0000000  0.0000000  3
  12035  12024  12025  12044     1  0.0000000  0.6508444  3
  12038  12035  12024  12042     1  0.0000000  1.0460000  1
  12038  12035  12024  12042     1  0.0000000  0.0000000  3
  12038  12035  12040  12041     1  0.0000000  0.6973333  3
  12039  12035  12024  12042     1  0.0000000  1.0460000  1
  12039  12035  12024  12042     1  0.0000000  0.0000000  3
  12039  12035  12040  12041     1  0.0000000  0.6973333  3
  12042  12024  12025  12044     1  0.0000000  1.0460000  1
  12042  12024  12025  12044     1  0.0000000  0.0000000  3
  12042  12029  12033  12043     1  0.0000000  0.6973333  3
  12044  12025  12045  12046     1  0.0000000  0.6973333  3
  12048  12049  12051  12055     1  0.0000000  0.6508444  3
  12048  12049  12069  12070     1  0.0000000  1.0460000  1
  12048  12049  12069  12070     1  0.0000000  0.6694400  3
  12048  12059  12064  12065     1  0.0000000  1.0460000  1
  12048  12059  12064  12065     1  0.0000000  0.6694400  3
  12048  12066  12053  12056     1  0.0000000  1.6038667  3
  12049  12048  12059  12062     1  0.0000000  0.6508444  3
  12049  12048  12059  12063     1  0.0000000  0.6508444  3
  12049  12051  12052  12054     1  0.0000000  0.6508444  3
  12049  12051  12058  12060     1  0.0000000  1.0460000  1
  12049  12051  12058  12060     1  0.0000000  0.6694400  3
  12050  12048  12049  12051     1  0.0000000  0.6508444  3
  12050  12048  12049  12069     1  0.0000000  1.0460000  1
  12050  12048  12049  12069     1  0.0000000  0.0000000  3
  12050  12048  12049  12068     1  0.0000000  0.6508444  3
  12050  12048  12059  12064     1  0.0000000  1.0460000  1
  12050  12048  12059  12064     1  0.0000000  0.0000000  3
  12050  12048  12059  12062     1  0.0000000  0.6508444  3
  12050  12048  12059  12063     1  0.0000000  0.6508444  3
  12050  12048  12066  12053     1  0.0000000  1.6038667  3
  12051  12049  12069  12070     1  0.0000000  1.0460000  1
  12051  12049  12069  12070     1  0.0000000  0.6694400  3
  12051  12052  12053  12056     1  0.0000000  0.6508444  3
  12051  12052  12071  12061     1  0.0000000  1.2552000  3
  12052  12051  12049  12068     1  0.0000000  0.6508444  3
  12052  12051  12058  12060     1  0.0000000  1.0460000  1
  12052  12051  12058  12060     1  0.0000000  0.6694400  3
  12052  12053  12057  12067     1  0.0000000  1.0460000  1
  12052  12053  12057  12067     1  0.0000000  0.6694400  3
  12053  12052  12051  12055     1  0.0000000  0.6508444  3
  12053  12052  12071  12061     1  0.0000000  1.2552000  3
  12054  12052  12051  12058     1  0.0000000  1.0460000  1
  12054  12052  12051  12058     1  0.0000000  0.0000000  3
  12054  12052  12051  12055     1  0.0000000  0.6508444  3
  12054  12052  12053  12057     1  0.0000000  1.0460000  1
  12054  12052  12053  12057     1  0.0000000  0.0000000  3
  12054  12052  12053  12066     1  0.0000000  1.0460000  1
  12054  12052  12053  12066     1  0.0000000  0.0000000  3
  12054  12052  12053  12056     1  0.0000000  0.6508444  3
  12054  12052  12071  12061     1  0.0000000  1.2552000  3
  12055  12051  12049  12069     1  0.0000000  1.0460000  1
  12055  12051  12049  12069     1  0.0000000  0.0000000  3
  12055  12051  12049  12068     1  0.0000000  0.6508444  3
  12055  12051  12052  12071     1  0.0000000  0.6508444  3
  12055  12051  12058  12060     1  0.0000000  0.6973333  3
  12056  12053  12052  12071     1  0.0000000  0.6508444  3
  12056  12053  12057  12067     1  0.0000000  0.6973333  3
  12058  12051  12049  12068     1  0.0000000  1.0460000  1
  12058  12051  12049  12068     1  0.0000000  0.0000000  3
  12059  12048  12049  12068     1  0.0000000  0.6508444  3
  12062  12059  12048  12066     1  0.0000000  1.0460000  1
  12062  12059  12048  12066     1  0.0000000  0.0000000  3
  12062  12059  12064  12065     1  0.0000000  0.6973333  3
  12063  12059  12048  12066     1  0.0000000  1.0460000  1
  12063  12059  12048  12066     1  0.0000000  0.0000000  3
  12063  12059  12064  12065     1  0.0000000  0.6973333  3
  12066  12048  12049  12068     1  0.0000000  1.0460000  1
  12066  12048  12049  12068     1  0.0000000  0.0000000  3
  12066  12053  12057  12067     1  0.0000000  0.6973333  3
  12068  12049  12069  12070     1  0.0000000  0.6973333  3
  12073  12075  12077  12079     1  0.0000000  0.6508444  3
  12073  12075  12077  12080     1  0.0000000  0.6508444  3
  12074  12073  12075  12077     1  0.0000000  0.0000000  2
  12074  12073  12075  12076     1  0.0000000  0.0000000  2
  12074  12073  12075  12078     1  0.0000000  0.0000000  2
  12075  12077  12081  12146     1  0.0000000  0.6508444  3
  12076  12075  12077  12081     1  0.0000000  0.6508444  3
  12076  12075  12077  12079     1  0.0000000  0.6508444  3
  12076  12075  12077  12080     1  0.0000000  0.6508444  3
  12077  12081  12082  12091     1  0.0000000  0.6508444  3
  12077  12081  12082  12092     1  0.0000000  0.6508444  3
  12077  12081  12083  12084     1  0.0000000  0.6508444  3
  12077  12081  12083  12086     1  0.0000000  0.6508444  3
  12078  12075  12077  12081     1  0.0000000  0.6508444  3
  12078  12075  12077  12079     1  0.0000000  0.6508444  3
  12078  12075  12077  12080     1  0.0000000  0.6508444  3
  12079  12077  12081  12082     1  0.0000000  0.6508444  3
  12079  12077  12081  12083     1  0.0000000  0.6508444  3
  12079  12077  12081  12146     1  0.0000000  0.6508444  3
  12080  12077  12081  12082     1  0.0000000  0.6508444  3
  12080  12077  12081  12083     1  0.0000000  0.6508444  3
  12080  12077  12081  12146     1  0.0000000  0.6508444  3
  12081  12082  12093  12094     1  0.0000000  0.6508444  3
  12081  12082  12093  12095     1  0.0000000  0.6508444  3
  12081  12083  12085  12087     1  0.0000000  0.6508444  3
  12081  12083  12085  12088     1  0.0000000  0.6508444  3
  12082  12081  12083  12084     1  0.0000000  0.6508444  3
  12082  12081  12083  12086     1  0.0000000  0.6508444  3
  12083  12081  12082  12091     1  0.0000000  0.6508444  3
  12083  12081  12082  12092     1  0.0000000  0.6508444  3
  12084  12083  12085  12089     1  0.0000000  0.6508444  3
  12084  12083  12085  12087     1  0.0000000  0.6508444  3
  12084  12083  12085  12088     1  0.0000000  0.6508444  3
  12084  12083  12081  12146     1  0.0000000  0.6508444  3
  12085  12089  12121  12111     1  180.0000771  6.0668000  2
  12085  12089  12121  12111     1  180.0000771  1.4644000  4
  12085  12083  12081  12146     1  0.0000000  0.6508444  3
  12086  12083  12085  12089     1  0.0000000  0.6508444  3
  12086  12083  12085  12087     1  0.0000000  0.6508444  3
  12086  12083  12085  12088     1  0.0000000  0.6508444  3
  12086  12083  12081  12146     1  0.0000000  0.6508444  3
  12087  12085  12089  12090     1  0.0000000  3.3472000  1
  12087  12085  12089  12090     1  0.0000000  0.0000000  2
  12087  12085  12089  12090     1  180.0000771  0.3347200  3
  12087  12085  12089  12121     1  180.0000771  0.0000000  2
  12088  12085  12089  12090     1  0.0000000  3.3472000  1
  12088  12085  12089  12090     1  0.0000000  0.0000000  2
  12088  12085  12089  12090     1  180.0000771  0.3347200  3
  12088  12085  12089  12121     1  180.0000771  0.0000000  2
  12089  12121  12102  12104     1  0.0000000  1.2552000  3
  12090  12089  12121  12111     1  180.0000771  6.0668000  2
  12090  12089  12121  12111     1  180.0000771  1.4644000  4
  12091  12082  12093  12096     1  0.0000000  0.6508444  3
  12091  12082  12093  12094     1  0.0000000  0.6508444  3
  12091  12082  12093  12095     1  0.0000000  0.6508444  3
  12091  12082  12081  12146     1  0.0000000  0.6508444  3
  12092  12082  12093  12096     1  0.0000000  0.6508444  3
  12092  12082  12093  12094     1  0.0000000  0.6508444  3
  12092  12082  12093  12095     1  0.0000000  0.6508444  3
  12092  12082  12081  12146     1  0.0000000  0.6508444  3
  12093  12096  12145  12135     1  180.0000771  6.0668000  2
  12093  12096  12145  12135     1  180.0000771  1.4644000  4
  12093  12082  12081  12146     1  0.0000000  0.6508444  3
  12094  12093  12096  12097     1  0.0000000  3.3472000  1
  12094  12093  12096  12097     1  0.0000000  0.0000000  2
  12094  12093  12096  12097     1  180.0000771  0.3347200  3
  12094  12093  12096  12145     1  180.0000771  0.0000000  2
  12095  12093  12096  12097     1  0.0000000  3.3472000  1
  12095  12093  12096  12097     1  0.0000000  0.0000000  2
  12095  12093  12096  12097     1  180.0000771  0.3347200  3
  12095  12093  12096  12145     1  180.0000771  0.0000000  2
  12096  12145  12126  12128     1  0.0000000  1.2552000  3
  12097  12096  12145  12135     1  180.0000771  6.0668000  2
  12097  12096  12145  12135     1  180.0000771  1.4644000  4
  12098  12099  12101  12105     1  0.0000000  0.6508444  3
  12098  12099  12119  12120     1  0.0000000  1.0460000  1
  12098  12099  12119  12120     1  0.0000000  0.6694400  3
  12098  12109  12114  12115     1  0.0000000  1.0460000  1
  12098  12109  12114  12115     1  0.0000000  0.6694400  3
  12098  12116  12103  12106     1  0.0000000  1.6038667  3
  12099  12101  12102  12104     1  0.0000000  0.6508444  3
  12099  12101  12108  12110     1  0.0000000  1.0460000  1
  12099  12101  12108  12110     1  0.0000000  0.6694400  3
  12099  12098  12109  12112     1  0.0000000  0.6508444  3
  12099  12098  12109  12113     1  0.0000000  0.6508444  3
  12100  12098  12099  12101     1  0.0000000  0.6508444  3
  12100  12098  12099  12119     1  0.0000000  1.0460000  1
  12100  12098  12099  12119     1  0.0000000  0.0000000  3
  12100  12098  12099  12118     1  0.0000000  0.6508444  3
  12100  12098  12109  12114     1  0.0000000  1.0460000  1
  12100  12098  12109  12114     1  0.0000000  0.0000000  3
  12100  12098  12109  12112     1  0.0000000  0.6508444  3
  12100  12098  12109  12113     1  0.0000000  0.6508444  3
  12100  12098  12116  12103     1  0.0000000  1.6038667  3
  12101  12102  12103  12106     1  0.0000000  0.6508444  3
  12101  12102  12121  12111     1  0.0000000  1.2552000  3
  12101  12099  12119  12120     1  0.0000000  1.0460000  1
  12101  12099  12119  12120     1  0.0000000  0.6694400  3
  12102  12103  12107  12117     1  0.0000000  1.0460000  1
  12102  12103  12107  12117     1  0.0000000  0.6694400  3
  12102  12101  12108  12110     1  0.0000000  1.0460000  1
  12102  12101  12108  12110     1  0.0000000  0.6694400  3
  12102  12101  12099  12118     1  0.0000000  0.6508444  3
  12103  12102  12121  12111     1  0.0000000  1.2552000  3
  12103  12102  12101  12105     1  0.0000000  0.6508444  3
  12104  12102  12103  12107     1  0.0000000  1.0460000  1
  12104  12102  12103  12107     1  0.0000000  0.0000000  3
  12104  12102  12103  12116     1  0.0000000  1.0460000  1
  12104  12102  12103  12116     1  0.0000000  0.0000000  3
  12104  12102  12103  12106     1  0.0000000  0.6508444  3
  12104  12102  12121  12111     1  0.0000000  1.2552000  3
  12104  12102  12101  12108     1  0.0000000  1.0460000  1
  12104  12102  12101  12108     1  0.0000000  0.0000000  3
  12104  12102  12101  12105     1  0.0000000  0.6508444  3
  12105  12101  12102  12121     1  0.0000000  0.6508444  3
  12105  12101  12108  12110     1  0.0000000  0.6973333  3
  12105  12101  12099  12119     1  0.0000000  1.0460000  1
  12105  12101  12099  12119     1  0.0000000  0.0000000  3
  12105  12101  12099  12118     1  0.0000000  0.6508444  3
  12106  12103  12107  12117     1  0.0000000  0.6973333  3
  12106  12103  12102  12121     1  0.0000000  0.6508444  3
  12108  12101  12099  12118     1  0.0000000  1.0460000  1
  12108  12101  12099  12118     1  0.0000000  0.0000000  3
  12109  12098  12099  12118     1  0.0000000  0.6508444  3
  12112  12109  12114  12115     1  0.0000000  0.6973333  3
  12112  12109  12098  12116     1  0.0000000  1.0460000  1
  12112  12109  12098  12116     1  0.0000000  0.0000000  3
  12113  12109  12114  12115     1  0.0000000  0.6973333  3
  12113  12109  12098  12116     1  0.0000000  1.0460000  1
  12113  12109  12098  12116     1  0.0000000  0.0000000  3
  12116  12103  12107  12117     1  0.0000000  0.6973333  3
  12116  12098  12099  12118     1  0.0000000  1.0460000  1
  12116  12098  12099  12118     1  0.0000000  0.0000000  3
  12118  12099  12119  12120     1  0.0000000  0.6973333  3
  12122  12123  12125  12129     1  0.0000000  0.6508444  3
  12122  12123  12143  12144     1  0.0000000  1.0460000  1
  12122  12123  12143  12144     1  0.0000000  0.6694400  3
  12122  12133  12138  12139     1  0.0000000  1.0460000  1
  12122  12133  12138  12139     1  0.0000000  0.6694400  3
  12122  12140  12127  12130     1  0.0000000  1.6038667  3
  12123  12125  12126  12128     1  0.0000000  0.6508444  3
  12123  12125  12132  12134     1  0.0000000  1.0460000  1
  12123  12125  12132  12134     1  0.0000000  0.6694400  3
  12123  12122  12133  12136     1  0.0000000  0.6508444  3
  12123  12122  12133  12137     1  0.0000000  0.6508444  3
  12124  12122  12123  12125     1  0.0000000  0.6508444  3
  12124  12122  12123  12143     1  0.0000000  1.0460000  1
  12124  12122  12123  12143     1  0.0000000  0.0000000  3
  12124  12122  12123  12142     1  0.0000000  0.6508444  3
  12124  12122  12133  12138     1  0.0000000  1.0460000  1
  12124  12122  12133  12138     1  0.0000000  0.0000000  3
  12124  12122  12133  12136     1  0.0000000  0.6508444  3
  12124  12122  12133  12137     1  0.0000000  0.6508444  3
  12124  12122  12140  12127     1  0.0000000  1.6038667  3
  12125  12126  12127  12130     1  0.0000000  0.6508444  3
  12125  12126  12145  12135     1  0.0000000  1.2552000  3
  12125  12123  12143  12144     1  0.0000000  1.0460000  1
  12125  12123  12143  12144     1  0.0000000  0.6694400  3
  12126  12127  12131  12141     1  0.0000000  1.0460000  1
  12126  12127  12131  12141     1  0.0000000  0.6694400  3
  12126  12125  12132  12134     1  0.0000000  1.0460000  1
  12126  12125  12132  12134     1  0.0000000  0.6694400  3
  12126  12125  12123  12142     1  0.0000000  0.6508444  3
  12127  12126  12145  12135     1  0.0000000  1.2552000  3
  12127  12126  12125  12129     1  0.0000000  0.6508444  3
  12128  12126  12127  12131     1  0.0000000  1.0460000  1
  12128  12126  12127  12131     1  0.0000000  0.0000000  3
  12128  12126  12127  12140     1  0.0000000  1.0460000  1
  12128  12126  12127  12140     1  0.0000000  0.0000000  3
  12128  12126  12127  12130     1  0.0000000  0.6508444  3
  12128  12126  12145  12135     1  0.0000000  1.2552000  3
  12128  12126  12125  12132     1  0.0000000  1.0460000  1
  12128  12126  12125  12132     1  0.0000000  0.0000000  3
  12128  12126  12125  12129     1  0.0000000  0.6508444  3
  12129  12125  12126  12145     1  0.0000000  0.6508444  3
  12129  12125  12132  12134     1  0.0000000  0.6973333  3
  12129  12125  12123  12143     1  0.0000000  1.0460000  1
  12129  12125  12123  12143     1  0.0000000  0.0000000  3
  12129  12125  12123  12142     1  0.0000000  0.6508444  3
  12130  12127  12131  12141     1  0.0000000  0.6973333  3
  12130  12127  12126  12145     1  0.0000000  0.6508444  3
  12132  12125  12123  12142     1  0.0000000  1.0460000  1
  12132  12125  12123  12142     1  0.0000000  0.0000000  3
  12133  12122  12123  12142     1  0.0000000  0.6508444  3
  12136  12133  12138  12139     1  0.0000000  0.6973333  3
  12136  12133  12122  12140     1  0.0000000  1.0460000  1
  12136  12133  12122  12140     1  0.0000000  0.0000000  3
  12137  12133  12138  12139     1  0.0000000  0.6973333  3
  12137  12133  12122  12140     1  0.0000000  1.0460000  1
  12137  12133  12122  12140     1  0.0000000  0.0000000  3
  12140  12127  12131  12141     1  0.0000000  0.6973333  3
  12140  12122  12123  12142     1  0.0000000  1.0460000  1
  12140  12122  12123  12142     1  0.0000000  0.0000000  3
  12142  12123  12143  12144     1  0.0000000  0.6973333  3
  12147  12149  12151  12153     1  0.0000000  0.6508444  3
  12147  12149  12151  12154     1  0.0000000  0.6508444  3
  12148  12147  12149  12151     1  0.0000000  0.0000000  2
  12148  12147  12149  12150     1  0.0000000  0.0000000  2
  12148  12147  12149  12152     1  0.0000000  0.0000000  2
  12149  12151  12155  12220     1  0.0000000  0.6508444  3
  12150  12149  12151  12155     1  0.0000000  0.6508444  3
  12150  12149  12151  12153     1  0.0000000  0.6508444  3
  12150  12149  12151  12154     1  0.0000000  0.6508444  3
  12151  12155  12156  12165     1  0.0000000  0.6508444  3
  12151  12155  12156  12166     1  0.0000000  0.6508444  3
  12151  12155  12157  12158     1  0.0000000  0.6508444  3
  12151  12155  12157  12160     1  0.0000000  0.6508444  3
  12152  12149  12151  12155     1  0.0000000  0.6508444  3
  12152  12149  12151  12153     1  0.0000000  0.6508444  3
  12152  12149  12151  12154     1  0.0000000  0.6508444  3
  12153  12151  12155  12156     1  0.0000000  0.6508444  3
  12153  12151  12155  12157     1  0.0000000  0.6508444  3
  12153  12151  12155  12220     1  0.0000000  0.6508444  3
  12154  12151  12155  12156     1  0.0000000  0.6508444  3
  12154  12151  12155  12157     1  0.0000000  0.6508444  3
  12154  12151  12155  12220     1  0.0000000  0.6508444  3
  12155  12156  12167  12168     1  0.0000000  0.6508444  3
  12155  12156  12167  12169     1  0.0000000  0.6508444  3
  12155  12157  12159  12161     1  0.0000000  0.6508444  3
  12155  12157  12159  12162     1  0.0000000  0.6508444  3
  12156  12155  12157  12158     1  0.0000000  0.6508444  3
  12156  12155  12157  12160     1  0.0000000  0.6508444  3
  12157  12155  12156  12165     1  0.0000000  0.6508444  3
  12157  12155  12156  12166     1  0.0000000  0.6508444  3
  12158  12157  12155  12220     1  0.0000000  0.6508444  3
  12158  12157  12159  12163     1  0.0000000  0.6508444  3
  12158  12157  12159  12161     1  0.0000000  0.6508444  3
  12158  12157  12159  12162     1  0.0000000  0.6508444  3
  12159  12157  12155  12220     1  0.0000000  0.6508444  3
  12159  12163  12195  12185     1  180.0000771  6.0668000  2
  12159  12163  12195  12185     1  180.0000771  1.4644000  4
  12160  12157  12155  12220     1  0.0000000  0.6508444  3
  12160  12157  12159  12163     1  0.0000000  0.6508444  3
  12160  12157  12159  12161     1  0.0000000  0.6508444  3
  12160  12157  12159  12162     1  0.0000000  0.6508444  3
  12161  12159  12163  12164     1  0.0000000  3.3472000  1
  12161  12159  12163  12164     1  0.0000000  0.0000000  2
  12161  12159  12163  12164     1  180.0000771  0.3347200  3
  12161  12159  12163  12195     1  180.0000771  0.0000000  2
  12162  12159  12163  12164     1  0.0000000  3.3472000  1
  12162  12159  12163  12164     1  0.0000000  0.0000000  2
  12162  12159  12163  12164     1  180.0000771  0.3347200  3
  12162  12159  12163  12195     1  180.0000771  0.0000000  2
  12163  12195  12176  12178     1  0.0000000  1.2552000  3
  12164  12163  12195  12185     1  180.0000771  6.0668000  2
  12164  12163  12195  12185     1  180.0000771  1.4644000  4
  12165  12156  12155  12220     1  0.0000000  0.6508444  3
  12165  12156  12167  12170     1  0.0000000  0.6508444  3
  12165  12156  12167  12168     1  0.0000000  0.6508444  3
  12165  12156  12167  12169     1  0.0000000  0.6508444  3
  12166  12156  12155  12220     1  0.0000000  0.6508444  3
  12166  12156  12167  12170     1  0.0000000  0.6508444  3
  12166  12156  12167  12168     1  0.0000000  0.6508444  3
  12166  12156  12167  12169     1  0.0000000  0.6508444  3
  12167  12156  12155  12220     1  0.0000000  0.6508444  3
  12167  12170  12219  12209     1  180.0000771  6.0668000  2
  12167  12170  12219  12209     1  180.0000771  1.4644000  4
  12168  12167  12170  12171     1  0.0000000  3.3472000  1
  12168  12167  12170  12171     1  0.0000000  0.0000000  2
  12168  12167  12170  12171     1  180.0000771  0.3347200  3
  12168  12167  12170  12219     1  180.0000771  0.0000000  2
  12169  12167  12170  12171     1  0.0000000  3.3472000  1
  12169  12167  12170  12171     1  0.0000000  0.0000000  2
  12169  12167  12170  12171     1  180.0000771  0.3347200  3
  12169  12167  12170  12219     1  180.0000771  0.0000000  2
  12170  12219  12200  12202     1  0.0000000  1.2552000  3
  12171  12170  12219  12209     1  180.0000771  6.0668000  2
  12171  12170  12219  12209     1  180.0000771  1.4644000  4
  12172  12173  12175  12179     1  0.0000000  0.6508444  3
  12172  12173  12193  12194     1  0.0000000  1.0460000  1
  12172  12173  12193  12194     1  0.0000000  0.6694400  3
  12172  12183  12188  12189     1  0.0000000  1.0460000  1
  12172  12183  12188  12189     1  0.0000000  0.6694400  3
  12172  12190  12177  12180     1  0.0000000  1.6038667  3
  12173  12172  12183  12186     1  0.0000000  0.6508444  3
  12173  12172  12183  12187     1  0.0000000  0.6508444  3
  12173  12175  12176  12178     1  0.0000000  0.6508444  3
  12173  12175  12182  12184     1  0.0000000  1.0460000  1
  12173  12175  12182  12184     1  0.0000000  0.6694400  3
  12174  12172  12173  12175     1  0.0000000  0.6508444  3
  12174  12172  12173  12193     1  0.0000000  1.0460000  1
  12174  12172  12173  12193     1  0.0000000  0.0000000  3
  12174  12172  12173  12192     1  0.0000000  0.6508444  3
  12174  12172  12183  12188     1  0.0000000  1.0460000  1
  12174  12172  12183  12188     1  0.0000000  0.0000000  3
  12174  12172  12183  12186     1  0.0000000  0.6508444  3
  12174  12172  12183  12187     1  0.0000000  0.6508444  3
  12174  12172  12190  12177     1  0.0000000  1.6038667  3
  12175  12173  12193  12194     1  0.0000000  1.0460000  1
  12175  12173  12193  12194     1  0.0000000  0.6694400  3
  12175  12176  12177  12180     1  0.0000000  0.6508444  3
  12175  12176  12195  12185     1  0.0000000  1.2552000  3
  12176  12175  12173  12192     1  0.0000000  0.6508444  3
  12176  12175  12182  12184     1  0.0000000  1.0460000  1
  12176  12175  12182  12184     1  0.0000000  0.6694400  3
  12176  12177  12181  12191     1  0.0000000  1.0460000  1
  12176  12177  12181  12191     1  0.0000000  0.6694400  3
  12177  12176  12175  12179     1  0.0000000  0.6508444  3
  12177  12176  12195  12185     1  0.0000000  1.2552000  3
  12178  12176  12175  12182     1  0.0000000  1.0460000  1
  12178  12176  12175  12182     1  0.0000000  0.0000000  3
  12178  12176  12175  12179     1  0.0000000  0.6508444  3
  12178  12176  12177  12181     1  0.0000000  1.0460000  1
  12178  12176  12177  12181     1  0.0000000  0.0000000  3
  12178  12176  12177  12190     1  0.0000000  1.0460000  1
  12178  12176  12177  12190     1  0.0000000  0.0000000  3
  12178  12176  12177  12180     1  0.0000000  0.6508444  3
  12178  12176  12195  12185     1  0.0000000  1.2552000  3
  12179  12175  12173  12193     1  0.0000000  1.0460000  1
  12179  12175  12173  12193     1  0.0000000  0.0000000  3
  12179  12175  12173  12192     1  0.0000000  0.6508444  3
  12179  12175  12176  12195     1  0.0000000  0.6508444  3
  12179  12175  12182  12184     1  0.0000000  0.6973333  3
  12180  12177  12176  12195     1  0.0000000  0.6508444  3
  12180  12177  12181  12191     1  0.0000000  0.6973333  3
  12182  12175  12173  12192     1  0.0000000  1.0460000  1
  12182  12175  12173  12192     1  0.0000000  0.0000000  3
  12183  12172  12173  12192     1  0.0000000  0.6508444  3
  12186  12183  12172  12190     1  0.0000000  1.0460000  1
  12186  12183  12172  12190     1  0.0000000  0.0000000  3
  12186  12183  12188  12189     1  0.0000000  0.6973333  3
  12187  12183  12172  12190     1  0.0000000  1.0460000  1
  12187  12183  12172  12190     1  0.0000000  0.0000000  3
  12187  12183  12188  12189     1  0.0000000  0.6973333  3
  12190  12172  12173  12192     1  0.0000000  1.0460000  1
  12190  12172  12173  12192     1  0.0000000  0.0000000  3
  12190  12177  12181  12191     1  0.0000000  0.6973333  3
  12192  12173  12193  12194     1  0.0000000  0.6973333  3
  12196  12197  12199  12203     1  0.0000000  0.6508444  3
  12196  12197  12217  12218     1  0.0000000  1.0460000  1
  12196  12197  12217  12218     1  0.0000000  0.6694400  3
  12196  12207  12212  12213     1  0.0000000  1.0460000  1
  12196  12207  12212  12213     1  0.0000000  0.6694400  3
  12196  12214  12201  12204     1  0.0000000  1.6038667  3
  12197  12196  12207  12210     1  0.0000000  0.6508444  3
  12197  12196  12207  12211     1  0.0000000  0.6508444  3
  12197  12199  12200  12202     1  0.0000000  0.6508444  3
  12197  12199  12206  12208     1  0.0000000  1.0460000  1
  12197  12199  12206  12208     1  0.0000000  0.6694400  3
  12198  12196  12197  12199     1  0.0000000  0.6508444  3
  12198  12196  12197  12217     1  0.0000000  1.0460000  1
  12198  12196  12197  12217     1  0.0000000  0.0000000  3
  12198  12196  12197  12216     1  0.0000000  0.6508444  3
  12198  12196  12207  12212     1  0.0000000  1.0460000  1
  12198  12196  12207  12212     1  0.0000000  0.0000000  3
  12198  12196  12207  12210     1  0.0000000  0.6508444  3
  12198  12196  12207  12211     1  0.0000000  0.6508444  3
  12198  12196  12214  12201     1  0.0000000  1.6038667  3
  12199  12197  12217  12218     1  0.0000000  1.0460000  1
  12199  12197  12217  12218     1  0.0000000  0.6694400  3
  12199  12200  12201  12204     1  0.0000000  0.6508444  3
  12199  12200  12219  12209     1  0.0000000  1.2552000  3
  12200  12199  12197  12216     1  0.0000000  0.6508444  3
  12200  12199  12206  12208     1  0.0000000  1.0460000  1
  12200  12199  12206  12208     1  0.0000000  0.6694400  3
  12200  12201  12205  12215     1  0.0000000  1.0460000  1
  12200  12201  12205  12215     1  0.0000000  0.6694400  3
  12201  12200  12199  12203     1  0.0000000  0.6508444  3
  12201  12200  12219  12209     1  0.0000000  1.2552000  3
  12202  12200  12199  12206     1  0.0000000  1.0460000  1
  12202  12200  12199  12206     1  0.0000000  0.0000000  3
  12202  12200  12199  12203     1  0.0000000  0.6508444  3
  12202  12200  12201  12205     1  0.0000000  1.0460000  1
  12202  12200  12201  12205     1  0.0000000  0.0000000  3
  12202  12200  12201  12214     1  0.0000000  1.0460000  1
  12202  12200  12201  12214     1  0.0000000  0.0000000  3
  12202  12200  12201  12204     1  0.0000000  0.6508444  3
  12202  12200  12219  12209     1  0.0000000  1.2552000  3
  12203  12199  12197  12217     1  0.0000000  1.0460000  1
  12203  12199  12197  12217     1  0.0000000  0.0000000  3
  12203  12199  12197  12216     1  0.0000000  0.6508444  3
  12203  12199  12200  12219     1  0.0000000  0.6508444  3
  12203  12199  12206  12208     1  0.0000000  0.6973333  3
  12204  12201  12200  12219     1  0.0000000  0.6508444  3
  12204  12201  12205  12215     1  0.0000000  0.6973333  3
  12206  12199  12197  12216     1  0.0000000  1.0460000  1
  12206  12199  12197  12216     1  0.0000000  0.0000000  3
  12207  12196  12197  12216     1  0.0000000  0.6508444  3
  12210  12207  12196  12214     1  0.0000000  1.0460000  1
  12210  12207  12196  12214     1  0.0000000  0.0000000  3
  12210  12207  12212  12213     1  0.0000000  0.6973333  3
  12211  12207  12196  12214     1  0.0000000  1.0460000  1
  12211  12207  12196  12214     1  0.0000000  0.0000000  3
  12211  12207  12212  12213     1  0.0000000  0.6973333  3
  12214  12196  12197  12216     1  0.0000000  1.0460000  1
  12214  12196  12197  12216     1  0.0000000  0.0000000  3
  12214  12201  12205  12215     1  0.0000000  0.6973333  3
  12216  12197  12217  12218     1  0.0000000  0.6973333  3
  12221  12223  12225  12227     1  0.0000000  0.6508444  3
  12221  12223  12225  12228     1  0.0000000  0.6508444  3
  12222  12221  12223  12225     1  0.0000000  0.0000000  2
  12222  12221  12223  12224     1  0.0000000  0.0000000  2
  12222  12221  12223  12226     1  0.0000000  0.0000000  2
  12223  12225  12229  12294     1  0.0000000  0.6508444  3
  12224  12223  12225  12229     1  0.0000000  0.6508444  3
  12224  12223  12225  12227     1  0.0000000  0.6508444  3
  12224  12223  12225  12228     1  0.0000000  0.6508444  3
  12225  12229  12230  12239     1  0.0000000  0.6508444  3
  12225  12229  12230  12240     1  0.0000000  0.6508444  3
  12225  12229  12231  12232     1  0.0000000  0.6508444  3
  12225  12229  12231  12234     1  0.0000000  0.6508444  3
  12226  12223  12225  12229     1  0.0000000  0.6508444  3
  12226  12223  12225  12227     1  0.0000000  0.6508444  3
  12226  12223  12225  12228     1  0.0000000  0.6508444  3
  12227  12225  12229  12230     1  0.0000000  0.6508444  3
  12227  12225  12229  12231     1  0.0000000  0.6508444  3
  12227  12225  12229  12294     1  0.0000000  0.6508444  3
  12228  12225  12229  12230     1  0.0000000  0.6508444  3
  12228  12225  12229  12231     1  0.0000000  0.6508444  3
  12228  12225  12229  12294     1  0.0000000  0.6508444  3
  12229  12230  12241  12242     1  0.0000000  0.6508444  3
  12229  12230  12241  12243     1  0.0000000  0.6508444  3
  12229  12231  12233  12235     1  0.0000000  0.6508444  3
  12229  12231  12233  12236     1  0.0000000  0.6508444  3
  12230  12229  12231  12232     1  0.0000000  0.6508444  3
  12230  12229  12231  12234     1  0.0000000  0.6508444  3
  12231  12229  12230  12239     1  0.0000000  0.6508444  3
  12231  12229  12230  12240     1  0.0000000  0.6508444  3
  12232  12231  12233  12237     1  0.0000000  0.6508444  3
  12232  12231  12233  12235     1  0.0000000  0.6508444  3
  12232  12231  12233  12236     1  0.0000000  0.6508444  3
  12232  12231  12229  12294     1  0.0000000  0.6508444  3
  12233  12237  12269  12259     1  180.0000771  6.0668000  2
  12233  12237  12269  12259     1  180.0000771  1.4644000  4
  12233  12231  12229  12294     1  0.0000000  0.6508444  3
  12234  12231  12233  12237     1  0.0000000  0.6508444  3
  12234  12231  12233  12235     1  0.0000000  0.6508444  3
  12234  12231  12233  12236     1  0.0000000  0.6508444  3
  12234  12231  12229  12294     1  0.0000000  0.6508444  3
  12235  12233  12237  12238     1  0.0000000  3.3472000  1
  12235  12233  12237  12238     1  0.0000000  0.0000000  2
  12235  12233  12237  12238     1  180.0000771  0.3347200  3
  12235  12233  12237  12269     1  180.0000771  0.0000000  2
  12236  12233  12237  12238     1  0.0000000  3.3472000  1
  12236  12233  12237  12238     1  0.0000000  0.0000000  2
  12236  12233  12237  12238     1  180.0000771  0.3347200  3
  12236  12233  12237  12269     1  180.0000771  0.0000000  2
  12237  12269  12250  12252     1  0.0000000  1.2552000  3
  12238  12237  12269  12259     1  180.0000771  6.0668000  2
  12238  12237  12269  12259     1  180.0000771  1.4644000  4
  12239  12230  12241  12244     1  0.0000000  0.6508444  3
  12239  12230  12241  12242     1  0.0000000  0.6508444  3
  12239  12230  12241  12243     1  0.0000000  0.6508444  3
  12239  12230  12229  12294     1  0.0000000  0.6508444  3
  12240  12230  12241  12244     1  0.0000000  0.6508444  3
  12240  12230  12241  12242     1  0.0000000  0.6508444  3
  12240  12230  12241  12243     1  0.0000000  0.6508444  3
  12240  12230  12229  12294     1  0.0000000  0.6508444  3
  12241  12244  12293  12283     1  180.0000771  6.0668000  2
  12241  12244  12293  12283     1  180.0000771  1.4644000  4
  12241  12230  12229  12294     1  0.0000000  0.6508444  3
  12242  12241  12244  12245     1  0.0000000  3.3472000  1
  12242  12241  12244  12245     1  0.0000000  0.0000000  2
  12242  12241  12244  12245     1  180.0000771  0.3347200  3
  12242  12241  12244  12293     1  180.0000771  0.0000000  2
  12243  12241  12244  12245     1  0.0000000  3.3472000  1
  12243  12241  12244  12245     1  0.0000000  0.0000000  2
  12243  12241  12244  12245     1  180.0000771  0.3347200  3
  12243  12241  12244  12293     1  180.0000771  0.0000000  2
  12244  12293  12274  12276     1  0.0000000  1.2552000  3
  12245  12244  12293  12283     1  180.0000771  6.0668000  2
  12245  12244  12293  12283     1  180.0000771  1.4644000  4
  12246  12247  12249  12253     1  0.0000000  0.6508444  3
  12246  12247  12267  12268     1  0.0000000  1.0460000  1
  12246  12247  12267  12268     1  0.0000000  0.6694400  3
  12246  12257  12262  12263     1  0.0000000  1.0460000  1
  12246  12257  12262  12263     1  0.0000000  0.6694400  3
  12246  12264  12251  12254     1  0.0000000  1.6038667  3
  12247  12249  12250  12252     1  0.0000000  0.6508444  3
  12247  12249  12256  12258     1  0.0000000  1.0460000  1
  12247  12249  12256  12258     1  0.0000000  0.6694400  3
  12247  12246  12257  12260     1  0.0000000  0.6508444  3
  12247  12246  12257  12261     1  0.0000000  0.6508444  3
  12248  12246  12247  12249     1  0.0000000  0.6508444  3
  12248  12246  12247  12267     1  0.0000000  1.0460000  1
  12248  12246  12247  12267     1  0.0000000  0.0000000  3
  12248  12246  12247  12266     1  0.0000000  0.6508444  3
  12248  12246  12257  12262     1  0.0000000  1.0460000  1
  12248  12246  12257  12262     1  0.0000000  0.0000000  3
  12248  12246  12257  12260     1  0.0000000  0.6508444  3
  12248  12246  12257  12261     1  0.0000000  0.6508444  3
  12248  12246  12264  12251     1  0.0000000  1.6038667  3
  12249  12250  12251  12254     1  0.0000000  0.6508444  3
  12249  12250  12269  12259     1  0.0000000  1.2552000  3
  12249  12247  12267  12268     1  0.0000000  1.0460000  1
  12249  12247  12267  12268     1  0.0000000  0.6694400  3
  12250  12251  12255  12265     1  0.0000000  1.0460000  1
  12250  12251  12255  12265     1  0.0000000  0.6694400  3
  12250  12249  12256  12258     1  0.0000000  1.0460000  1
  12250  12249  12256  12258     1  0.0000000  0.6694400  3
  12250  12249  12247  12266     1  0.0000000  0.6508444  3
  12251  12250  12269  12259     1  0.0000000  1.2552000  3
  12251  12250  12249  12253     1  0.0000000  0.6508444  3
  12252  12250  12251  12255     1  0.0000000  1.0460000  1
  12252  12250  12251  12255     1  0.0000000  0.0000000  3
  12252  12250  12251  12264     1  0.0000000  1.0460000  1
  12252  12250  12251  12264     1  0.0000000  0.0000000  3
  12252  12250  12251  12254     1  0.0000000  0.6508444  3
  12252  12250  12269  12259     1  0.0000000  1.2552000  3
  12252  12250  12249  12256     1  0.0000000  1.0460000  1
  12252  12250  12249  12256     1  0.0000000  0.0000000  3
  12252  12250  12249  12253     1  0.0000000  0.6508444  3
  12253  12249  12250  12269     1  0.0000000  0.6508444  3
  12253  12249  12256  12258     1  0.0000000  0.6973333  3
  12253  12249  12247  12267     1  0.0000000  1.0460000  1
  12253  12249  12247  12267     1  0.0000000  0.0000000  3
  12253  12249  12247  12266     1  0.0000000  0.6508444  3
  12254  12251  12255  12265     1  0.0000000  0.6973333  3
  12254  12251  12250  12269     1  0.0000000  0.6508444  3
  12256  12249  12247  12266     1  0.0000000  1.0460000  1
  12256  12249  12247  12266     1  0.0000000  0.0000000  3
  12257  12246  12247  12266     1  0.0000000  0.6508444  3
  12260  12257  12262  12263     1  0.0000000  0.6973333  3
  12260  12257  12246  12264     1  0.0000000  1.0460000  1
  12260  12257  12246  12264     1  0.0000000  0.0000000  3
  12261  12257  12262  12263     1  0.0000000  0.6973333  3
  12261  12257  12246  12264     1  0.0000000  1.0460000  1
  12261  12257  12246  12264     1  0.0000000  0.0000000  3
  12264  12251  12255  12265     1  0.0000000  0.6973333  3
  12264  12246  12247  12266     1  0.0000000  1.0460000  1
  12264  12246  12247  12266     1  0.0000000  0.0000000  3
  12266  12247  12267  12268     1  0.0000000  0.6973333  3
  12270  12271  12273  12277     1  0.0000000  0.6508444  3
  12270  12271  12291  12292     1  0.0000000  1.0460000  1
  12270  12271  12291  12292     1  0.0000000  0.6694400  3
  12270  12281  12286  12287     1  0.0000000  1.0460000  1
  12270  12281  12286  12287     1  0.0000000  0.6694400  3
  12270  12288  12275  12278     1  0.0000000  1.6038667  3
  12271  12273  12274  12276     1  0.0000000  0.6508444  3
  12271  12273  12280  12282     1  0.0000000  1.0460000  1
  12271  12273  12280  12282     1  0.0000000  0.6694400  3
  12271  12270  12281  12284     1  0.0000000  0.6508444  3
  12271  12270  12281  12285     1  0.0000000  0.6508444  3
  12272  12270  12271  12273     1  0.0000000  0.6508444  3
  12272  12270  12271  12291     1  0.0000000  1.0460000  1
  12272  12270  12271  12291     1  0.0000000  0.0000000  3
  12272  12270  12271  12290     1  0.0000000  0.6508444  3
  12272  12270  12281  12286     1  0.0000000  1.0460000  1
  12272  12270  12281  12286     1  0.0000000  0.0000000  3
  12272  12270  12281  12284     1  0.0000000  0.6508444  3
  12272  12270  12281  12285     1  0.0000000  0.6508444  3
  12272  12270  12288  12275     1  0.0000000  1.6038667  3
  12273  12274  12275  12278     1  0.0000000  0.6508444  3
  12273  12274  12293  12283     1  0.0000000  1.2552000  3
  12273  12271  12291  12292     1  0.0000000  1.0460000  1
  12273  12271  12291  12292     1  0.0000000  0.6694400  3
  12274  12275  12279  12289     1  0.0000000  1.0460000  1
  12274  12275  12279  12289     1  0.0000000  0.6694400  3
  12274  12273  12280  12282     1  0.0000000  1.0460000  1
  12274  12273  12280  12282     1  0.0000000  0.6694400  3
  12274  12273  12271  12290     1  0.0000000  0.6508444  3
  12275  12274  12293  12283     1  0.0000000  1.2552000  3
  12275  12274  12273  12277     1  0.0000000  0.6508444  3
  12276  12274  12275  12279     1  0.0000000  1.0460000  1
  12276  12274  12275  12279     1  0.0000000  0.0000000  3
  12276  12274  12275  12288     1  0.0000000  1.0460000  1
  12276  12274  12275  12288     1  0.0000000  0.0000000  3
  12276  12274  12275  12278     1  0.0000000  0.6508444  3
  12276  12274  12293  12283     1  0.0000000  1.2552000  3
  12276  12274  12273  12280     1  0.0000000  1.0460000  1
  12276  12274  12273  12280     1  0.0000000  0.0000000  3
  12276  12274  12273  12277     1  0.0000000  0.6508444  3
  12277  12273  12274  12293     1  0.0000000  0.6508444  3
  12277  12273  12280  12282     1  0.0000000  0.6973333  3
  12277  12273  12271  12291     1  0.0000000  1.0460000  1
  12277  12273  12271  12291     1  0.0000000  0.0000000  3
  12277  12273  12271  12290     1  0.0000000  0.6508444  3
  12278  12275  12279  12289     1  0.0000000  0.6973333  3
  12278  12275  12274  12293     1  0.0000000  0.6508444  3
  12280  12273  12271  12290     1  0.0000000  1.0460000  1
  12280  12273  12271  12290     1  0.0000000  0.0000000  3
  12281  12270  12271  12290     1  0.0000000  0.6508444  3
  12284  12281  12286  12287     1  0.0000000  0.6973333  3
  12284  12281  12270  12288     1  0.0000000  1.0460000  1
  12284  12281  12270  12288     1  0.0000000  0.0000000  3
  12285  12281  12286  12287     1  0.0000000  0.6973333  3
  12285  12281  12270  12288     1  0.0000000  1.0460000  1
  12285  12281  12270  12288     1  0.0000000  0.0000000  3
  12288  12275  12279  12289     1  0.0000000  0.6973333  3
  12288  12270  12271  12290     1  0.0000000  1.0460000  1
  12288  12270  12271  12290     1  0.0000000  0.0000000  3
  12290  12271  12291  12292     1  0.0000000  0.6973333  3
  12295  12297  12299  12301     1  0.0000000  0.6508444  3
  12295  12297  12299  12302     1  0.0000000  0.6508444  3
  12296  12295  12297  12299     1  0.0000000  0.0000000  2
  12296  12295  12297  12298     1  0.0000000  0.0000000  2
  12296  12295  12297  12300     1  0.0000000  0.0000000  2
  12297  12299  12303  12368     1  0.0000000  0.6508444  3
  12298  12297  12299  12303     1  0.0000000  0.6508444  3
  12298  12297  12299  12301     1  0.0000000  0.6508444  3
  12298  12297  12299  12302     1  0.0000000  0.6508444  3
  12299  12303  12304  12313     1  0.0000000  0.6508444  3
  12299  12303  12304  12314     1  0.0000000  0.6508444  3
  12299  12303  12305  12306     1  0.0000000  0.6508444  3
  12299  12303  12305  12308     1  0.0000000  0.6508444  3
  12300  12297  12299  12303     1  0.0000000  0.6508444  3
  12300  12297  12299  12301     1  0.0000000  0.6508444  3
  12300  12297  12299  12302     1  0.0000000  0.6508444  3
  12301  12299  12303  12304     1  0.0000000  0.6508444  3
  12301  12299  12303  12305     1  0.0000000  0.6508444  3
  12301  12299  12303  12368     1  0.0000000  0.6508444  3
  12302  12299  12303  12304     1  0.0000000  0.6508444  3
  12302  12299  12303  12305     1  0.0000000  0.6508444  3
  12302  12299  12303  12368     1  0.0000000  0.6508444  3
  12303  12304  12315  12316     1  0.0000000  0.6508444  3
  12303  12304  12315  12317     1  0.0000000  0.6508444  3
  12303  12305  12307  12309     1  0.0000000  0.6508444  3
  12303  12305  12307  12310     1  0.0000000  0.6508444  3
  12304  12303  12305  12306     1  0.0000000  0.6508444  3
  12304  12303  12305  12308     1  0.0000000  0.6508444  3
  12305  12303  12304  12313     1  0.0000000  0.6508444  3
  12305  12303  12304  12314     1  0.0000000  0.6508444  3
  12306  12305  12303  12368     1  0.0000000  0.6508444  3
  12306  12305  12307  12311     1  0.0000000  0.6508444  3
  12306  12305  12307  12309     1  0.0000000  0.6508444  3
  12306  12305  12307  12310     1  0.0000000  0.6508444  3
  12307  12305  12303  12368     1  0.0000000  0.6508444  3
  12307  12311  12343  12333     1  180.0000771  6.0668000  2
  12307  12311  12343  12333     1  180.0000771  1.4644000  4
  12308  12305  12303  12368     1  0.0000000  0.6508444  3
  12308  12305  12307  12311     1  0.0000000  0.6508444  3
  12308  12305  12307  12309     1  0.0000000  0.6508444  3
  12308  12305  12307  12310     1  0.0000000  0.6508444  3
  12309  12307  12311  12312     1  0.0000000  3.3472000  1
  12309  12307  12311  12312     1  0.0000000  0.0000000  2
  12309  12307  12311  12312     1  180.0000771  0.3347200  3
  12309  12307  12311  12343     1  180.0000771  0.0000000  2
  12310  12307  12311  12312     1  0.0000000  3.3472000  1
  12310  12307  12311  12312     1  0.0000000  0.0000000  2
  12310  12307  12311  12312     1  180.0000771  0.3347200  3
  12310  12307  12311  12343     1  180.0000771  0.0000000  2
  12311  12343  12324  12326     1  0.0000000  1.2552000  3
  12312  12311  12343  12333     1  180.0000771  6.0668000  2
  12312  12311  12343  12333     1  180.0000771  1.4644000  4
  12313  12304  12303  12368     1  0.0000000  0.6508444  3
  12313  12304  12315  12318     1  0.0000000  0.6508444  3
  12313  12304  12315  12316     1  0.0000000  0.6508444  3
  12313  12304  12315  12317     1  0.0000000  0.6508444  3
  12314  12304  12303  12368     1  0.0000000  0.6508444  3
  12314  12304  12315  12318     1  0.0000000  0.6508444  3
  12314  12304  12315  12316     1  0.0000000  0.6508444  3
  12314  12304  12315  12317     1  0.0000000  0.6508444  3
  12315  12304  12303  12368     1  0.0000000  0.6508444  3
  12315  12318  12367  12357     1  180.0000771  6.0668000  2
  12315  12318  12367  12357     1  180.0000771  1.4644000  4
  12316  12315  12318  12319     1  0.0000000  3.3472000  1
  12316  12315  12318  12319     1  0.0000000  0.0000000  2
  12316  12315  12318  12319     1  180.0000771  0.3347200  3
  12316  12315  12318  12367     1  180.0000771  0.0000000  2
  12317  12315  12318  12319     1  0.0000000  3.3472000  1
  12317  12315  12318  12319     1  0.0000000  0.0000000  2
  12317  12315  12318  12319     1  180.0000771  0.3347200  3
  12317  12315  12318  12367     1  180.0000771  0.0000000  2
  12318  12367  12348  12350     1  0.0000000  1.2552000  3
  12319  12318  12367  12357     1  180.0000771  6.0668000  2
  12319  12318  12367  12357     1  180.0000771  1.4644000  4
  12320  12321  12323  12327     1  0.0000000  0.6508444  3
  12320  12321  12341  12342     1  0.0000000  1.0460000  1
  12320  12321  12341  12342     1  0.0000000  0.6694400  3
  12320  12331  12336  12337     1  0.0000000  1.0460000  1
  12320  12331  12336  12337     1  0.0000000  0.6694400  3
  12320  12338  12325  12328     1  0.0000000  1.6038667  3
  12321  12320  12331  12334     1  0.0000000  0.6508444  3
  12321  12320  12331  12335     1  0.0000000  0.6508444  3
  12321  12323  12324  12326     1  0.0000000  0.6508444  3
  12321  12323  12330  12332     1  0.0000000  1.0460000  1
  12321  12323  12330  12332     1  0.0000000  0.6694400  3
  12322  12320  12321  12323     1  0.0000000  0.6508444  3
  12322  12320  12321  12341     1  0.0000000  1.0460000  1
  12322  12320  12321  12341     1  0.0000000  0.0000000  3
  12322  12320  12321  12340     1  0.0000000  0.6508444  3
  12322  12320  12331  12336     1  0.0000000  1.0460000  1
  12322  12320  12331  12336     1  0.0000000  0.0000000  3
  12322  12320  12331  12334     1  0.0000000  0.6508444  3
  12322  12320  12331  12335     1  0.0000000  0.6508444  3
  12322  12320  12338  12325     1  0.0000000  1.6038667  3
  12323  12321  12341  12342     1  0.0000000  1.0460000  1
  12323  12321  12341  12342     1  0.0000000  0.6694400  3
  12323  12324  12325  12328     1  0.0000000  0.6508444  3
  12323  12324  12343  12333     1  0.0000000  1.2552000  3
  12324  12323  12321  12340     1  0.0000000  0.6508444  3
  12324  12323  12330  12332     1  0.0000000  1.0460000  1
  12324  12323  12330  12332     1  0.0000000  0.6694400  3
  12324  12325  12329  12339     1  0.0000000  1.0460000  1
  12324  12325  12329  12339     1  0.0000000  0.6694400  3
  12325  12324  12323  12327     1  0.0000000  0.6508444  3
  12325  12324  12343  12333     1  0.0000000  1.2552000  3
  12326  12324  12323  12330     1  0.0000000  1.0460000  1
  12326  12324  12323  12330     1  0.0000000  0.0000000  3
  12326  12324  12323  12327     1  0.0000000  0.6508444  3
  12326  12324  12325  12329     1  0.0000000  1.0460000  1
  12326  12324  12325  12329     1  0.0000000  0.0000000  3
  12326  12324  12325  12338     1  0.0000000  1.0460000  1
  12326  12324  12325  12338     1  0.0000000  0.0000000  3
  12326  12324  12325  12328     1  0.0000000  0.6508444  3
  12326  12324  12343  12333     1  0.0000000  1.2552000  3
  12327  12323  12321  12341     1  0.0000000  1.0460000  1
  12327  12323  12321  12341     1  0.0000000  0.0000000  3
  12327  12323  12321  12340     1  0.0000000  0.6508444  3
  12327  12323  12324  12343     1  0.0000000  0.6508444  3
  12327  12323  12330  12332     1  0.0000000  0.6973333  3
  12328  12325  12324  12343     1  0.0000000  0.6508444  3
  12328  12325  12329  12339     1  0.0000000  0.6973333  3
  12330  12323  12321  12340     1  0.0000000  1.0460000  1
  12330  12323  12321  12340     1  0.0000000  0.0000000  3
  12331  12320  12321  12340     1  0.0000000  0.6508444  3
  12334  12331  12320  12338     1  0.0000000  1.0460000  1
  12334  12331  12320  12338     1  0.0000000  0.0000000  3
  12334  12331  12336  12337     1  0.0000000  0.6973333  3
  12335  12331  12320  12338     1  0.0000000  1.0460000  1
  12335  12331  12320  12338     1  0.0000000  0.0000000  3
  12335  12331  12336  12337     1  0.0000000  0.6973333  3
  12338  12320  12321  12340     1  0.0000000  1.0460000  1
  12338  12320  12321  12340     1  0.0000000  0.0000000  3
  12338  12325  12329  12339     1  0.0000000  0.6973333  3
  12340  12321  12341  12342     1  0.0000000  0.6973333  3
  12344  12345  12347  12351     1  0.0000000  0.6508444  3
  12344  12345  12365  12366     1  0.0000000  1.0460000  1
  12344  12345  12365  12366     1  0.0000000  0.6694400  3
  12344  12355  12360  12361     1  0.0000000  1.0460000  1
  12344  12355  12360  12361     1  0.0000000  0.6694400  3
  12344  12362  12349  12352     1  0.0000000  1.6038667  3
  12345  12344  12355  12358     1  0.0000000  0.6508444  3
  12345  12344  12355  12359     1  0.0000000  0.6508444  3
  12345  12347  12348  12350     1  0.0000000  0.6508444  3
  12345  12347  12354  12356     1  0.0000000  1.0460000  1
  12345  12347  12354  12356     1  0.0000000  0.6694400  3
  12346  12344  12345  12347     1  0.0000000  0.6508444  3
  12346  12344  12345  12365     1  0.0000000  1.0460000  1
  12346  12344  12345  12365     1  0.0000000  0.0000000  3
  12346  12344  12345  12364     1  0.0000000  0.6508444  3
  12346  12344  12355  12360     1  0.0000000  1.0460000  1
  12346  12344  12355  12360     1  0.0000000  0.0000000  3
  12346  12344  12355  12358     1  0.0000000  0.6508444  3
  12346  12344  12355  12359     1  0.0000000  0.6508444  3
  12346  12344  12362  12349     1  0.0000000  1.6038667  3
  12347  12345  12365  12366     1  0.0000000  1.0460000  1
  12347  12345  12365  12366     1  0.0000000  0.6694400  3
  12347  12348  12349  12352     1  0.0000000  0.6508444  3
  12347  12348  12367  12357     1  0.0000000  1.2552000  3
  12348  12347  12345  12364     1  0.0000000  0.6508444  3
  12348  12347  12354  12356     1  0.0000000  1.0460000  1
  12348  12347  12354  12356     1  0.0000000  0.6694400  3
  12348  12349  12353  12363     1  0.0000000  1.0460000  1
  12348  12349  12353  12363     1  0.0000000  0.6694400  3
  12349  12348  12347  12351     1  0.0000000  0.6508444  3
  12349  12348  12367  12357     1  0.0000000  1.2552000  3
  12350  12348  12347  12354     1  0.0000000  1.0460000  1
  12350  12348  12347  12354     1  0.0000000  0.0000000  3
  12350  12348  12347  12351     1  0.0000000  0.6508444  3
  12350  12348  12349  12353     1  0.0000000  1.0460000  1
  12350  12348  12349  12353     1  0.0000000  0.0000000  3
  12350  12348  12349  12362     1  0.0000000  1.0460000  1
  12350  12348  12349  12362     1  0.0000000  0.0000000  3
  12350  12348  12349  12352     1  0.0000000  0.6508444  3
  12350  12348  12367  12357     1  0.0000000  1.2552000  3
  12351  12347  12345  12365     1  0.0000000  1.0460000  1
  12351  12347  12345  12365     1  0.0000000  0.0000000  3
  12351  12347  12345  12364     1  0.0000000  0.6508444  3
  12351  12347  12348  12367     1  0.0000000  0.6508444  3
  12351  12347  12354  12356     1  0.0000000  0.6973333  3
  12352  12349  12348  12367     1  0.0000000  0.6508444  3
  12352  12349  12353  12363     1  0.0000000  0.6973333  3
  12354  12347  12345  12364     1  0.0000000  1.0460000  1
  12354  12347  12345  12364     1  0.0000000  0.0000000  3
  12355  12344  12345  12364     1  0.0000000  0.6508444  3
  12358  12355  12344  12362     1  0.0000000  1.0460000  1
  12358  12355  12344  12362     1  0.0000000  0.0000000  3
  12358  12355  12360  12361     1  0.0000000  0.6973333  3
  12359  12355  12344  12362     1  0.0000000  1.0460000  1
  12359  12355  12344  12362     1  0.0000000  0.0000000  3
  12359  12355  12360  12361     1  0.0000000  0.6973333  3
  12362  12344  12345  12364     1  0.0000000  1.0460000  1
  12362  12344  12345  12364     1  0.0000000  0.0000000  3
  12362  12349  12353  12363     1  0.0000000  0.6973333  3
  12364  12345  12365  12366     1  0.0000000  0.6973333  3
  12369  12371  12373  12375     1  0.0000000  0.6508444  3
  12369  12371  12373  12376     1  0.0000000  0.6508444  3
  12370  12369  12371  12373     1  0.0000000  0.0000000  2
  12370  12369  12371  12372     1  0.0000000  0.0000000  2
  12370  12369  12371  12374     1  0.0000000  0.0000000  2
  12371  12373  12377  12442     1  0.0000000  0.6508444  3
  12372  12371  12373  12377     1  0.0000000  0.6508444  3
  12372  12371  12373  12375     1  0.0000000  0.6508444  3
  12372  12371  12373  12376     1  0.0000000  0.6508444  3
  12373  12377  12378  12387     1  0.0000000  0.6508444  3
  12373  12377  12378  12388     1  0.0000000  0.6508444  3
  12373  12377  12379  12380     1  0.0000000  0.6508444  3
  12373  12377  12379  12382     1  0.0000000  0.6508444  3
  12374  12371  12373  12377     1  0.0000000  0.6508444  3
  12374  12371  12373  12375     1  0.0000000  0.6508444  3
  12374  12371  12373  12376     1  0.0000000  0.6508444  3
  12375  12373  12377  12378     1  0.0000000  0.6508444  3
  12375  12373  12377  12379     1  0.0000000  0.6508444  3
  12375  12373  12377  12442     1  0.0000000  0.6508444  3
  12376  12373  12377  12378     1  0.0000000  0.6508444  3
  12376  12373  12377  12379     1  0.0000000  0.6508444  3
  12376  12373  12377  12442     1  0.0000000  0.6508444  3
  12377  12378  12389  12390     1  0.0000000  0.6508444  3
  12377  12378  12389  12391     1  0.0000000  0.6508444  3
  12377  12379  12381  12383     1  0.0000000  0.6508444  3
  12377  12379  12381  12384     1  0.0000000  0.6508444  3
  12378  12377  12379  12380     1  0.0000000  0.6508444  3
  12378  12377  12379  12382     1  0.0000000  0.6508444  3
  12379  12377  12378  12387     1  0.0000000  0.6508444  3
  12379  12377  12378  12388     1  0.0000000  0.6508444  3
  12380  12379  12381  12385     1  0.0000000  0.6508444  3
  12380  12379  12381  12383     1  0.0000000  0.6508444  3
  12380  12379  12381  12384     1  0.0000000  0.6508444  3
  12380  12379  12377  12442     1  0.0000000  0.6508444  3
  12381  12385  12417  12407     1  180.0000771  6.0668000  2
  12381  12385  12417  12407     1  180.0000771  1.4644000  4
  12381  12379  12377  12442     1  0.0000000  0.6508444  3
  12382  12379  12381  12385     1  0.0000000  0.6508444  3
  12382  12379  12381  12383     1  0.0000000  0.6508444  3
  12382  12379  12381  12384     1  0.0000000  0.6508444  3
  12382  12379  12377  12442     1  0.0000000  0.6508444  3
  12383  12381  12385  12386     1  0.0000000  3.3472000  1
  12383  12381  12385  12386     1  0.0000000  0.0000000  2
  12383  12381  12385  12386     1  180.0000771  0.3347200  3
  12383  12381  12385  12417     1  180.0000771  0.0000000  2
  12384  12381  12385  12386     1  0.0000000  3.3472000  1
  12384  12381  12385  12386     1  0.0000000  0.0000000  2
  12384  12381  12385  12386     1  180.0000771  0.3347200  3
  12384  12381  12385  12417     1  180.0000771  0.0000000  2
  12385  12417  12398  12400     1  0.0000000  1.2552000  3
  12386  12385  12417  12407     1  180.0000771  6.0668000  2
  12386  12385  12417  12407     1  180.0000771  1.4644000  4
  12387  12378  12389  12392     1  0.0000000  0.6508444  3
  12387  12378  12389  12390     1  0.0000000  0.6508444  3
  12387  12378  12389  12391     1  0.0000000  0.6508444  3
  12387  12378  12377  12442     1  0.0000000  0.6508444  3
  12388  12378  12389  12392     1  0.0000000  0.6508444  3
  12388  12378  12389  12390     1  0.0000000  0.6508444  3
  12388  12378  12389  12391     1  0.0000000  0.6508444  3
  12388  12378  12377  12442     1  0.0000000  0.6508444  3
  12389  12392  12441  12431     1  180.0000771  6.0668000  2
  12389  12392  12441  12431     1  180.0000771  1.4644000  4
  12389  12378  12377  12442     1  0.0000000  0.6508444  3
  12390  12389  12392  12393     1  0.0000000  3.3472000  1
  12390  12389  12392  12393     1  0.0000000  0.0000000  2
  12390  12389  12392  12393     1  180.0000771  0.3347200  3
  12390  12389  12392  12441     1  180.0000771  0.0000000  2
  12391  12389  12392  12393     1  0.0000000  3.3472000  1
  12391  12389  12392  12393     1  0.0000000  0.0000000  2
  12391  12389  12392  12393     1  180.0000771  0.3347200  3
  12391  12389  12392  12441     1  180.0000771  0.0000000  2
  12392  12441  12422  12424     1  0.0000000  1.2552000  3
  12393  12392  12441  12431     1  180.0000771  6.0668000  2
  12393  12392  12441  12431     1  180.0000771  1.4644000  4
  12394  12395  12397  12401     1  0.0000000  0.6508444  3
  12394  12395  12415  12416     1  0.0000000  1.0460000  1
  12394  12395  12415  12416     1  0.0000000  0.6694400  3
  12394  12405  12410  12411     1  0.0000000  1.0460000  1
  12394  12405  12410  12411     1  0.0000000  0.6694400  3
  12394  12412  12399  12402     1  0.0000000  1.6038667  3
  12395  12397  12398  12400     1  0.0000000  0.6508444  3
  12395  12397  12404  12406     1  0.0000000  1.0460000  1
  12395  12397  12404  12406     1  0.0000000  0.6694400  3
  12395  12394  12405  12408     1  0.0000000  0.6508444  3
  12395  12394  12405  12409     1  0.0000000  0.6508444  3
  12396  12394  12395  12397     1  0.0000000  0.6508444  3
  12396  12394  12395  12415     1  0.0000000  1.0460000  1
  12396  12394  12395  12415     1  0.0000000  0.0000000  3
  12396  12394  12395  12414     1  0.0000000  0.6508444  3
  12396  12394  12405  12410     1  0.0000000  1.0460000  1
  12396  12394  12405  12410     1  0.0000000  0.0000000  3
  12396  12394  12405  12408     1  0.0000000  0.6508444  3
  12396  12394  12405  12409     1  0.0000000  0.6508444  3
  12396  12394  12412  12399     1  0.0000000  1.6038667  3
  12397  12398  12399  12402     1  0.0000000  0.6508444  3
  12397  12398  12417  12407     1  0.0000000  1.2552000  3
  12397  12395  12415  12416     1  0.0000000  1.0460000  1
  12397  12395  12415  12416     1  0.0000000  0.6694400  3
  12398  12399  12403  12413     1  0.0000000  1.0460000  1
  12398  12399  12403  12413     1  0.0000000  0.6694400  3
  12398  12397  12404  12406     1  0.0000000  1.0460000  1
  12398  12397  12404  12406     1  0.0000000  0.6694400  3
  12398  12397  12395  12414     1  0.0000000  0.6508444  3
  12399  12398  12417  12407     1  0.0000000  1.2552000  3
  12399  12398  12397  12401     1  0.0000000  0.6508444  3
  12400  12398  12399  12403     1  0.0000000  1.0460000  1
  12400  12398  12399  12403     1  0.0000000  0.0000000  3
  12400  12398  12399  12412     1  0.0000000  1.0460000  1
  12400  12398  12399  12412     1  0.0000000  0.0000000  3
  12400  12398  12399  12402     1  0.0000000  0.6508444  3
  12400  12398  12417  12407     1  0.0000000  1.2552000  3
  12400  12398  12397  12404     1  0.0000000  1.0460000  1
  12400  12398  12397  12404     1  0.0000000  0.0000000  3
  12400  12398  12397  12401     1  0.0000000  0.6508444  3
  12401  12397  12398  12417     1  0.0000000  0.6508444  3
  12401  12397  12404  12406     1  0.0000000  0.6973333  3
  12401  12397  12395  12415     1  0.0000000  1.0460000  1
  12401  12397  12395  12415     1  0.0000000  0.0000000  3
  12401  12397  12395  12414     1  0.0000000  0.6508444  3
  12402  12399  12403  12413     1  0.0000000  0.6973333  3
  12402  12399  12398  12417     1  0.0000000  0.6508444  3
  12404  12397  12395  12414     1  0.0000000  1.0460000  1
  12404  12397  12395  12414     1  0.0000000  0.0000000  3
  12405  12394  12395  12414     1  0.0000000  0.6508444  3
  12408  12405  12410  12411     1  0.0000000  0.6973333  3
  12408  12405  12394  12412     1  0.0000000  1.0460000  1
  12408  12405  12394  12412     1  0.0000000  0.0000000  3
  12409  12405  12410  12411     1  0.0000000  0.6973333  3
  12409  12405  12394  12412     1  0.0000000  1.0460000  1
  12409  12405  12394  12412     1  0.0000000  0.0000000  3
  12412  12399  12403  12413     1  0.0000000  0.6973333  3
  12412  12394  12395  12414     1  0.0000000  1.0460000  1
  12412  12394  12395  12414     1  0.0000000  0.0000000  3
  12414  12395  12415  12416     1  0.0000000  0.6973333  3
  12418  12419  12421  12425     1  0.0000000  0.6508444  3
  12418  12419  12439  12440     1  0.0000000  1.0460000  1
  12418  12419  12439  12440     1  0.0000000  0.6694400  3
  12418  12429  12434  12435     1  0.0000000  1.0460000  1
  12418  12429  12434  12435     1  0.0000000  0.6694400  3
  12418  12436  12423  12426     1  0.0000000  1.6038667  3
  12419  12421  12422  12424     1  0.0000000  0.6508444  3
  12419  12421  12428  12430     1  0.0000000  1.0460000  1
  12419  12421  12428  12430     1  0.0000000  0.6694400  3
  12419  12418  12429  12432     1  0.0000000  0.6508444  3
  12419  12418  12429  12433     1  0.0000000  0.6508444  3
  12420  12418  12419  12421     1  0.0000000  0.6508444  3
  12420  12418  12419  12439     1  0.0000000  1.0460000  1
  12420  12418  12419  12439     1  0.0000000  0.0000000  3
  12420  12418  12419  12438     1  0.0000000  0.6508444  3
  12420  12418  12429  12434     1  0.0000000  1.0460000  1
  12420  12418  12429  12434     1  0.0000000  0.0000000  3
  12420  12418  12429  12432     1  0.0000000  0.6508444  3
  12420  12418  12429  12433     1  0.0000000  0.6508444  3
  12420  12418  12436  12423     1  0.0000000  1.6038667  3
  12421  12422  12423  12426     1  0.0000000  0.6508444  3
  12421  12422  12441  12431     1  0.0000000  1.2552000  3
  12421  12419  12439  12440     1  0.0000000  1.0460000  1
  12421  12419  12439  12440     1  0.0000000  0.6694400  3
  12422  12423  12427  12437     1  0.0000000  1.0460000  1
  12422  12423  12427  12437     1  0.0000000  0.6694400  3
  12422  12421  12428  12430     1  0.0000000  1.0460000  1
  12422  12421  12428  12430     1  0.0000000  0.6694400  3
  12422  12421  12419  12438     1  0.0000000  0.6508444  3
  12423  12422  12441  12431     1  0.0000000  1.2552000  3
  12423  12422  12421  12425     1  0.0000000  0.6508444  3
  12424  12422  12423  12427     1  0.0000000  1.0460000  1
  12424  12422  12423  12427     1  0.0000000  0.0000000  3
  12424  12422  12423  12436     1  0.0000000  1.0460000  1
  12424  12422  12423  12436     1  0.0000000  0.0000000  3
  12424  12422  12423  12426     1  0.0000000  0.6508444  3
  12424  12422  12441  12431     1  0.0000000  1.2552000  3
  12424  12422  12421  12428     1  0.0000000  1.0460000  1
  12424  12422  12421  12428     1  0.0000000  0.0000000  3
  12424  12422  12421  12425     1  0.0000000  0.6508444  3
  12425  12421  12422  12441     1  0.0000000  0.6508444  3
  12425  12421  12428  12430     1  0.0000000  0.6973333  3
  12425  12421  12419  12439     1  0.0000000  1.0460000  1
  12425  12421  12419  12439     1  0.0000000  0.0000000  3
  12425  12421  12419  12438     1  0.0000000  0.6508444  3
  12426  12423  12427  12437     1  0.0000000  0.6973333  3
  12426  12423  12422  12441     1  0.0000000  0.6508444  3
  12428  12421  12419  12438     1  0.0000000  1.0460000  1
  12428  12421  12419  12438     1  0.0000000  0.0000000  3
  12429  12418  12419  12438     1  0.0000000  0.6508444  3
  12432  12429  12434  12435     1  0.0000000  0.6973333  3
  12432  12429  12418  12436     1  0.0000000  1.0460000  1
  12432  12429  12418  12436     1  0.0000000  0.0000000  3
  12433  12429  12434  12435     1  0.0000000  0.6973333  3
  12433  12429  12418  12436     1  0.0000000  1.0460000  1
  12433  12429  12418  12436     1  0.0000000  0.0000000  3
  12436  12423  12427  12437     1  0.0000000  0.6973333  3
  12436  12418  12419  12438     1  0.0000000  1.0460000  1
  12436  12418  12419  12438     1  0.0000000  0.0000000  3
  12438  12419  12439  12440     1  0.0000000  0.6973333  3
  12443  12445  12447  12449     1  0.0000000  0.6508444  3
  12443  12445  12447  12450     1  0.0000000  0.6508444  3
  12444  12443  12445  12447     1  0.0000000  0.0000000  2
  12444  12443  12445  12446     1  0.0000000  0.0000000  2
  12444  12443  12445  12448     1  0.0000000  0.0000000  2
  12445  12447  12451  12516     1  0.0000000  0.6508444  3
  12446  12445  12447  12451     1  0.0000000  0.6508444  3
  12446  12445  12447  12449     1  0.0000000  0.6508444  3
  12446  12445  12447  12450     1  0.0000000  0.6508444  3
  12447  12451  12452  12461     1  0.0000000  0.6508444  3
  12447  12451  12452  12462     1  0.0000000  0.6508444  3
  12447  12451  12453  12454     1  0.0000000  0.6508444  3
  12447  12451  12453  12456     1  0.0000000  0.6508444  3
  12448  12445  12447  12451     1  0.0000000  0.6508444  3
  12448  12445  12447  12449     1  0.0000000  0.6508444  3
  12448  12445  12447  12450     1  0.0000000  0.6508444  3
  12449  12447  12451  12452     1  0.0000000  0.6508444  3
  12449  12447  12451  12453     1  0.0000000  0.6508444  3
  12449  12447  12451  12516     1  0.0000000  0.6508444  3
  12450  12447  12451  12452     1  0.0000000  0.6508444  3
  12450  12447  12451  12453     1  0.0000000  0.6508444  3
  12450  12447  12451  12516     1  0.0000000  0.6508444  3
  12451  12452  12463  12464     1  0.0000000  0.6508444  3
  12451  12452  12463  12465     1  0.0000000  0.6508444  3
  12451  12453  12455  12457     1  0.0000000  0.6508444  3
  12451  12453  12455  12458     1  0.0000000  0.6508444  3
  12452  12451  12453  12454     1  0.0000000  0.6508444  3
  12452  12451  12453  12456     1  0.0000000  0.6508444  3
  12453  12451  12452  12461     1  0.0000000  0.6508444  3
  12453  12451  12452  12462     1  0.0000000  0.6508444  3
  12454  12453  12451  12516     1  0.0000000  0.6508444  3
  12454  12453  12455  12459     1  0.0000000  0.6508444  3
  12454  12453  12455  12457     1  0.0000000  0.6508444  3
  12454  12453  12455  12458     1  0.0000000  0.6508444  3
  12455  12453  12451  12516     1  0.0000000  0.6508444  3
  12455  12459  12491  12481     1  180.0000771  6.0668000  2
  12455  12459  12491  12481     1  180.0000771  1.4644000  4
  12456  12453  12451  12516     1  0.0000000  0.6508444  3
  12456  12453  12455  12459     1  0.0000000  0.6508444  3
  12456  12453  12455  12457     1  0.0000000  0.6508444  3
  12456  12453  12455  12458     1  0.0000000  0.6508444  3
  12457  12455  12459  12460     1  0.0000000  3.3472000  1
  12457  12455  12459  12460     1  0.0000000  0.0000000  2
  12457  12455  12459  12460     1  180.0000771  0.3347200  3
  12457  12455  12459  12491     1  180.0000771  0.0000000  2
  12458  12455  12459  12460     1  0.0000000  3.3472000  1
  12458  12455  12459  12460     1  0.0000000  0.0000000  2
  12458  12455  12459  12460     1  180.0000771  0.3347200  3
  12458  12455  12459  12491     1  180.0000771  0.0000000  2
  12459  12491  12472  12474     1  0.0000000  1.2552000  3
  12460  12459  12491  12481     1  180.0000771  6.0668000  2
  12460  12459  12491  12481     1  180.0000771  1.4644000  4
  12461  12452  12451  12516     1  0.0000000  0.6508444  3
  12461  12452  12463  12466     1  0.0000000  0.6508444  3
  12461  12452  12463  12464     1  0.0000000  0.6508444  3
  12461  12452  12463  12465     1  0.0000000  0.6508444  3
  12462  12452  12451  12516     1  0.0000000  0.6508444  3
  12462  12452  12463  12466     1  0.0000000  0.6508444  3
  12462  12452  12463  12464     1  0.0000000  0.6508444  3
  12462  12452  12463  12465     1  0.0000000  0.6508444  3
  12463  12452  12451  12516     1  0.0000000  0.6508444  3
  12463  12466  12515  12505     1  180.0000771  6.0668000  2
  12463  12466  12515  12505     1  180.0000771  1.4644000  4
  12464  12463  12466  12467     1  0.0000000  3.3472000  1
  12464  12463  12466  12467     1  0.0000000  0.0000000  2
  12464  12463  12466  12467     1  180.0000771  0.3347200  3
  12464  12463  12466  12515     1  180.0000771  0.0000000  2
  12465  12463  12466  12467     1  0.0000000  3.3472000  1
  12465  12463  12466  12467     1  0.0000000  0.0000000  2
  12465  12463  12466  12467     1  180.0000771  0.3347200  3
  12465  12463  12466  12515     1  180.0000771  0.0000000  2
  12466  12515  12496  12498     1  0.0000000  1.2552000  3
  12467  12466  12515  12505     1  180.0000771  6.0668000  2
  12467  12466  12515  12505     1  180.0000771  1.4644000  4
  12468  12469  12471  12475     1  0.0000000  0.6508444  3
  12468  12469  12489  12490     1  0.0000000  1.0460000  1
  12468  12469  12489  12490     1  0.0000000  0.6694400  3
  12468  12479  12484  12485     1  0.0000000  1.0460000  1
  12468  12479  12484  12485     1  0.0000000  0.6694400  3
  12468  12486  12473  12476     1  0.0000000  1.6038667  3
  12469  12468  12479  12482     1  0.0000000  0.6508444  3
  12469  12468  12479  12483     1  0.0000000  0.6508444  3
  12469  12471  12472  12474     1  0.0000000  0.6508444  3
  12469  12471  12478  12480     1  0.0000000  1.0460000  1
  12469  12471  12478  12480     1  0.0000000  0.6694400  3
  12470  12468  12469  12471     1  0.0000000  0.6508444  3
  12470  12468  12469  12489     1  0.0000000  1.0460000  1
  12470  12468  12469  12489     1  0.0000000  0.0000000  3
  12470  12468  12469  12488     1  0.0000000  0.6508444  3
  12470  12468  12479  12484     1  0.0000000  1.0460000  1
  12470  12468  12479  12484     1  0.0000000  0.0000000  3
  12470  12468  12479  12482     1  0.0000000  0.6508444  3
  12470  12468  12479  12483     1  0.0000000  0.6508444  3
  12470  12468  12486  12473     1  0.0000000  1.6038667  3
  12471  12469  12489  12490     1  0.0000000  1.0460000  1
  12471  12469  12489  12490     1  0.0000000  0.6694400  3
  12471  12472  12473  12476     1  0.0000000  0.6508444  3
  12471  12472  12491  12481     1  0.0000000  1.2552000  3
  12472  12471  12469  12488     1  0.0000000  0.6508444  3
  12472  12471  12478  12480     1  0.0000000  1.0460000  1
  12472  12471  12478  12480     1  0.0000000  0.6694400  3
  12472  12473  12477  12487     1  0.0000000  1.0460000  1
  12472  12473  12477  12487     1  0.0000000  0.6694400  3
  12473  12472  12471  12475     1  0.0000000  0.6508444  3
  12473  12472  12491  12481     1  0.0000000  1.2552000  3
  12474  12472  12471  12478     1  0.0000000  1.0460000  1
  12474  12472  12471  12478     1  0.0000000  0.0000000  3
  12474  12472  12471  12475     1  0.0000000  0.6508444  3
  12474  12472  12473  12477     1  0.0000000  1.0460000  1
  12474  12472  12473  12477     1  0.0000000  0.0000000  3
  12474  12472  12473  12486     1  0.0000000  1.0460000  1
  12474  12472  12473  12486     1  0.0000000  0.0000000  3
  12474  12472  12473  12476     1  0.0000000  0.6508444  3
  12474  12472  12491  12481     1  0.0000000  1.2552000  3
  12475  12471  12469  12489     1  0.0000000  1.0460000  1
  12475  12471  12469  12489     1  0.0000000  0.0000000  3
  12475  12471  12469  12488     1  0.0000000  0.6508444  3
  12475  12471  12472  12491     1  0.0000000  0.6508444  3
  12475  12471  12478  12480     1  0.0000000  0.6973333  3
  12476  12473  12472  12491     1  0.0000000  0.6508444  3
  12476  12473  12477  12487     1  0.0000000  0.6973333  3
  12478  12471  12469  12488     1  0.0000000  1.0460000  1
  12478  12471  12469  12488     1  0.0000000  0.0000000  3
  12479  12468  12469  12488     1  0.0000000  0.6508444  3
  12482  12479  12468  12486     1  0.0000000  1.0460000  1
  12482  12479  12468  12486     1  0.0000000  0.0000000  3
  12482  12479  12484  12485     1  0.0000000  0.6973333  3
  12483  12479  12468  12486     1  0.0000000  1.0460000  1
  12483  12479  12468  12486     1  0.0000000  0.0000000  3
  12483  12479  12484  12485     1  0.0000000  0.6973333  3
  12486  12468  12469  12488     1  0.0000000  1.0460000  1
  12486  12468  12469  12488     1  0.0000000  0.0000000  3
  12486  12473  12477  12487     1  0.0000000  0.6973333  3
  12488  12469  12489  12490     1  0.0000000  0.6973333  3
  12492  12493  12495  12499     1  0.0000000  0.6508444  3
  12492  12493  12513  12514     1  0.0000000  1.0460000  1
  12492  12493  12513  12514     1  0.0000000  0.6694400  3
  12492  12503  12508  12509     1  0.0000000  1.0460000  1
  12492  12503  12508  12509     1  0.0000000  0.6694400  3
  12492  12510  12497  12500     1  0.0000000  1.6038667  3
  12493  12492  12503  12506     1  0.0000000  0.6508444  3
  12493  12492  12503  12507     1  0.0000000  0.6508444  3
  12493  12495  12496  12498     1  0.0000000  0.6508444  3
  12493  12495  12502  12504     1  0.0000000  1.0460000  1
  12493  12495  12502  12504     1  0.0000000  0.6694400  3
  12494  12492  12493  12495     1  0.0000000  0.6508444  3
  12494  12492  12493  12513     1  0.0000000  1.0460000  1
  12494  12492  12493  12513     1  0.0000000  0.0000000  3
  12494  12492  12493  12512     1  0.0000000  0.6508444  3
  12494  12492  12503  12508     1  0.0000000  1.0460000  1
  12494  12492  12503  12508     1  0.0000000  0.0000000  3
  12494  12492  12503  12506     1  0.0000000  0.6508444  3
  12494  12492  12503  12507     1  0.0000000  0.6508444  3
  12494  12492  12510  12497     1  0.0000000  1.6038667  3
  12495  12493  12513  12514     1  0.0000000  1.0460000  1
  12495  12493  12513  12514     1  0.0000000  0.6694400  3
  12495  12496  12497  12500     1  0.0000000  0.6508444  3
  12495  12496  12515  12505     1  0.0000000  1.2552000  3
  12496  12495  12493  12512     1  0.0000000  0.6508444  3
  12496  12495  12502  12504     1  0.0000000  1.0460000  1
  12496  12495  12502  12504     1  0.0000000  0.6694400  3
  12496  12497  12501  12511     1  0.0000000  1.0460000  1
  12496  12497  12501  12511     1  0.0000000  0.6694400  3
  12497  12496  12495  12499     1  0.0000000  0.6508444  3
  12497  12496  12515  12505     1  0.0000000  1.2552000  3
  12498  12496  12495  12502     1  0.0000000  1.0460000  1
  12498  12496  12495  12502     1  0.0000000  0.0000000  3
  12498  12496  12495  12499     1  0.0000000  0.6508444  3
  12498  12496  12497  12501     1  0.0000000  1.0460000  1
  12498  12496  12497  12501     1  0.0000000  0.0000000  3
  12498  12496  12497  12510     1  0.0000000  1.0460000  1
  12498  12496  12497  12510     1  0.0000000  0.0000000  3
  12498  12496  12497  12500     1  0.0000000  0.6508444  3
  12498  12496  12515  12505     1  0.0000000  1.2552000  3
  12499  12495  12493  12513     1  0.0000000  1.0460000  1
  12499  12495  12493  12513     1  0.0000000  0.0000000  3
  12499  12495  12493  12512     1  0.0000000  0.6508444  3
  12499  12495  12496  12515     1  0.0000000  0.6508444  3
  12499  12495  12502  12504     1  0.0000000  0.6973333  3
  12500  12497  12496  12515     1  0.0000000  0.6508444  3
  12500  12497  12501  12511     1  0.0000000  0.6973333  3
  12502  12495  12493  12512     1  0.0000000  1.0460000  1
  12502  12495  12493  12512     1  0.0000000  0.0000000  3
  12503  12492  12493  12512     1  0.0000000  0.6508444  3
  12506  12503  12492  12510     1  0.0000000  1.0460000  1
  12506  12503  12492  12510     1  0.0000000  0.0000000  3
  12506  12503  12508  12509     1  0.0000000  0.6973333  3
  12507  12503  12492  12510     1  0.0000000  1.0460000  1
  12507  12503  12492  12510     1  0.0000000  0.0000000  3
  12507  12503  12508  12509     1  0.0000000  0.6973333  3
  12510  12492  12493  12512     1  0.0000000  1.0460000  1
  12510  12492  12493  12512     1  0.0000000  0.0000000  3
  12510  12497  12501  12511     1  0.0000000  0.6973333  3
  12512  12493  12513  12514     1  0.0000000  0.6973333  3
  12517  12519  12521  12523     1  0.0000000  0.6508444  3
  12517  12519  12521  12524     1  0.0000000  0.6508444  3
  12518  12517  12519  12521     1  0.0000000  0.0000000  2
  12518  12517  12519  12520     1  0.0000000  0.0000000  2
  12518  12517  12519  12522     1  0.0000000  0.0000000  2
  12519  12521  12525  12590     1  0.0000000  0.6508444  3
  12520  12519  12521  12525     1  0.0000000  0.6508444  3
  12520  12519  12521  12523     1  0.0000000  0.6508444  3
  12520  12519  12521  12524     1  0.0000000  0.6508444  3
  12521  12525  12526  12535     1  0.0000000  0.6508444  3
  12521  12525  12526  12536     1  0.0000000  0.6508444  3
  12521  12525  12527  12528     1  0.0000000  0.6508444  3
  12521  12525  12527  12530     1  0.0000000  0.6508444  3
  12522  12519  12521  12525     1  0.0000000  0.6508444  3
  12522  12519  12521  12523     1  0.0000000  0.6508444  3
  12522  12519  12521  12524     1  0.0000000  0.6508444  3
  12523  12521  12525  12526     1  0.0000000  0.6508444  3
  12523  12521  12525  12527     1  0.0000000  0.6508444  3
  12523  12521  12525  12590     1  0.0000000  0.6508444  3
  12524  12521  12525  12526     1  0.0000000  0.6508444  3
  12524  12521  12525  12527     1  0.0000000  0.6508444  3
  12524  12521  12525  12590     1  0.0000000  0.6508444  3
  12525  12526  12537  12538     1  0.0000000  0.6508444  3
  12525  12526  12537  12539     1  0.0000000  0.6508444  3
  12525  12527  12529  12531     1  0.0000000  0.6508444  3
  12525  12527  12529  12532     1  0.0000000  0.6508444  3
  12526  12525  12527  12528     1  0.0000000  0.6508444  3
  12526  12525  12527  12530     1  0.0000000  0.6508444  3
  12527  12525  12526  12535     1  0.0000000  0.6508444  3
  12527  12525  12526  12536     1  0.0000000  0.6508444  3
  12528  12527  12529  12533     1  0.0000000  0.6508444  3
  12528  12527  12529  12531     1  0.0000000  0.6508444  3
  12528  12527  12529  12532     1  0.0000000  0.6508444  3
  12528  12527  12525  12590     1  0.0000000  0.6508444  3
  12529  12533  12565  12555     1  180.0000771  6.0668000  2
  12529  12533  12565  12555     1  180.0000771  1.4644000  4
  12529  12527  12525  12590     1  0.0000000  0.6508444  3
  12530  12527  12529  12533     1  0.0000000  0.6508444  3
  12530  12527  12529  12531     1  0.0000000  0.6508444  3
  12530  12527  12529  12532     1  0.0000000  0.6508444  3
  12530  12527  12525  12590     1  0.0000000  0.6508444  3
  12531  12529  12533  12534     1  0.0000000  3.3472000  1
  12531  12529  12533  12534     1  0.0000000  0.0000000  2
  12531  12529  12533  12534     1  180.0000771  0.3347200  3
  12531  12529  12533  12565     1  180.0000771  0.0000000  2
  12532  12529  12533  12534     1  0.0000000  3.3472000  1
  12532  12529  12533  12534     1  0.0000000  0.0000000  2
  12532  12529  12533  12534     1  180.0000771  0.3347200  3
  12532  12529  12533  12565     1  180.0000771  0.0000000  2
  12533  12565  12546  12548     1  0.0000000  1.2552000  3
  12534  12533  12565  12555     1  180.0000771  6.0668000  2
  12534  12533  12565  12555     1  180.0000771  1.4644000  4
  12535  12526  12537  12540     1  0.0000000  0.6508444  3
  12535  12526  12537  12538     1  0.0000000  0.6508444  3
  12535  12526  12537  12539     1  0.0000000  0.6508444  3
  12535  12526  12525  12590     1  0.0000000  0.6508444  3
  12536  12526  12537  12540     1  0.0000000  0.6508444  3
  12536  12526  12537  12538     1  0.0000000  0.6508444  3
  12536  12526  12537  12539     1  0.0000000  0.6508444  3
  12536  12526  12525  12590     1  0.0000000  0.6508444  3
  12537  12540  12589  12579     1  180.0000771  6.0668000  2
  12537  12540  12589  12579     1  180.0000771  1.4644000  4
  12537  12526  12525  12590     1  0.0000000  0.6508444  3
  12538  12537  12540  12541     1  0.0000000  3.3472000  1
  12538  12537  12540  12541     1  0.0000000  0.0000000  2
  12538  12537  12540  12541     1  180.0000771  0.3347200  3
  12538  12537  12540  12589     1  180.0000771  0.0000000  2
  12539  12537  12540  12541     1  0.0000000  3.3472000  1
  12539  12537  12540  12541     1  0.0000000  0.0000000  2
  12539  12537  12540  12541     1  180.0000771  0.3347200  3
  12539  12537  12540  12589     1  180.0000771  0.0000000  2
  12540  12589  12570  12572     1  0.0000000  1.2552000  3
  12541  12540  12589  12579     1  180.0000771  6.0668000  2
  12541  12540  12589  12579     1  180.0000771  1.4644000  4
  12542  12543  12545  12549     1  0.0000000  0.6508444  3
  12542  12543  12563  12564     1  0.0000000  1.0460000  1
  12542  12543  12563  12564     1  0.0000000  0.6694400  3
  12542  12553  12558  12559     1  0.0000000  1.0460000  1
  12542  12553  12558  12559     1  0.0000000  0.6694400  3
  12542  12560  12547  12550     1  0.0000000  1.6038667  3
  12543  12545  12546  12548     1  0.0000000  0.6508444  3
  12543  12545  12552  12554     1  0.0000000  1.0460000  1
  12543  12545  12552  12554     1  0.0000000  0.6694400  3
  12543  12542  12553  12556     1  0.0000000  0.6508444  3
  12543  12542  12553  12557     1  0.0000000  0.6508444  3
  12544  12542  12543  12545     1  0.0000000  0.6508444  3
  12544  12542  12543  12563     1  0.0000000  1.0460000  1
  12544  12542  12543  12563     1  0.0000000  0.0000000  3
  12544  12542  12543  12562     1  0.0000000  0.6508444  3
  12544  12542  12553  12558     1  0.0000000  1.0460000  1
  12544  12542  12553  12558     1  0.0000000  0.0000000  3
  12544  12542  12553  12556     1  0.0000000  0.6508444  3
  12544  12542  12553  12557     1  0.0000000  0.6508444  3
  12544  12542  12560  12547     1  0.0000000  1.6038667  3
  12545  12546  12547  12550     1  0.0000000  0.6508444  3
  12545  12546  12565  12555     1  0.0000000  1.2552000  3
  12545  12543  12563  12564     1  0.0000000  1.0460000  1
  12545  12543  12563  12564     1  0.0000000  0.6694400  3
  12546  12547  12551  12561     1  0.0000000  1.0460000  1
  12546  12547  12551  12561     1  0.0000000  0.6694400  3
  12546  12545  12552  12554     1  0.0000000  1.0460000  1
  12546  12545  12552  12554     1  0.0000000  0.6694400  3
  12546  12545  12543  12562     1  0.0000000  0.6508444  3
  12547  12546  12565  12555     1  0.0000000  1.2552000  3
  12547  12546  12545  12549     1  0.0000000  0.6508444  3
  12548  12546  12547  12551     1  0.0000000  1.0460000  1
  12548  12546  12547  12551     1  0.0000000  0.0000000  3
  12548  12546  12547  12560     1  0.0000000  1.0460000  1
  12548  12546  12547  12560     1  0.0000000  0.0000000  3
  12548  12546  12547  12550     1  0.0000000  0.6508444  3
  12548  12546  12565  12555     1  0.0000000  1.2552000  3
  12548  12546  12545  12552     1  0.0000000  1.0460000  1
  12548  12546  12545  12552     1  0.0000000  0.0000000  3
  12548  12546  12545  12549     1  0.0000000  0.6508444  3
  12549  12545  12546  12565     1  0.0000000  0.6508444  3
  12549  12545  12552  12554     1  0.0000000  0.6973333  3
  12549  12545  12543  12563     1  0.0000000  1.0460000  1
  12549  12545  12543  12563     1  0.0000000  0.0000000  3
  12549  12545  12543  12562     1  0.0000000  0.6508444  3
  12550  12547  12551  12561     1  0.0000000  0.6973333  3
  12550  12547  12546  12565     1  0.0000000  0.6508444  3
  12552  12545  12543  12562     1  0.0000000  1.0460000  1
  12552  12545  12543  12562     1  0.0000000  0.0000000  3
  12553  12542  12543  12562     1  0.0000000  0.6508444  3
  12556  12553  12558  12559     1  0.0000000  0.6973333  3
  12556  12553  12542  12560     1  0.0000000  1.0460000  1
  12556  12553  12542  12560     1  0.0000000  0.0000000  3
  12557  12553  12558  12559     1  0.0000000  0.6973333  3
  12557  12553  12542  12560     1  0.0000000  1.0460000  1
  12557  12553  12542  12560     1  0.0000000  0.0000000  3
  12560  12547  12551  12561     1  0.0000000  0.6973333  3
  12560  12542  12543  12562     1  0.0000000  1.0460000  1
  12560  12542  12543  12562     1  0.0000000  0.0000000  3
  12562  12543  12563  12564     1  0.0000000  0.6973333  3
  12566  12567  12569  12573     1  0.0000000  0.6508444  3
  12566  12567  12587  12588     1  0.0000000  1.0460000  1
  12566  12567  12587  12588     1  0.0000000  0.6694400  3
  12566  12577  12582  12583     1  0.0000000  1.0460000  1
  12566  12577  12582  12583     1  0.0000000  0.6694400  3
  12566  12584  12571  12574     1  0.0000000  1.6038667  3
  12567  12569  12570  12572     1  0.0000000  0.6508444  3
  12567  12569  12576  12578     1  0.0000000  1.0460000  1
  12567  12569  12576  12578     1  0.0000000  0.6694400  3
  12567  12566  12577  12580     1  0.0000000  0.6508444  3
  12567  12566  12577  12581     1  0.0000000  0.6508444  3
  12568  12566  12567  12569     1  0.0000000  0.6508444  3
  12568  12566  12567  12587     1  0.0000000  1.0460000  1
  12568  12566  12567  12587     1  0.0000000  0.0000000  3
  12568  12566  12567  12586     1  0.0000000  0.6508444  3
  12568  12566  12577  12582     1  0.0000000  1.0460000  1
  12568  12566  12577  12582     1  0.0000000  0.0000000  3
  12568  12566  12577  12580     1  0.0000000  0.6508444  3
  12568  12566  12577  12581     1  0.0000000  0.6508444  3
  12568  12566  12584  12571     1  0.0000000  1.6038667  3
  12569  12570  12571  12574     1  0.0000000  0.6508444  3
  12569  12570  12589  12579     1  0.0000000  1.2552000  3
  12569  12567  12587  12588     1  0.0000000  1.0460000  1
  12569  12567  12587  12588     1  0.0000000  0.6694400  3
  12570  12571  12575  12585     1  0.0000000  1.0460000  1
  12570  12571  12575  12585     1  0.0000000  0.6694400  3
  12570  12569  12576  12578     1  0.0000000  1.0460000  1
  12570  12569  12576  12578     1  0.0000000  0.6694400  3
  12570  12569  12567  12586     1  0.0000000  0.6508444  3
  12571  12570  12589  12579     1  0.0000000  1.2552000  3
  12571  12570  12569  12573     1  0.0000000  0.6508444  3
  12572  12570  12571  12575     1  0.0000000  1.0460000  1
  12572  12570  12571  12575     1  0.0000000  0.0000000  3
  12572  12570  12571  12584     1  0.0000000  1.0460000  1
  12572  12570  12571  12584     1  0.0000000  0.0000000  3
  12572  12570  12571  12574     1  0.0000000  0.6508444  3
  12572  12570  12589  12579     1  0.0000000  1.2552000  3
  12572  12570  12569  12576     1  0.0000000  1.0460000  1
  12572  12570  12569  12576     1  0.0000000  0.0000000  3
  12572  12570  12569  12573     1  0.0000000  0.6508444  3
  12573  12569  12570  12589     1  0.0000000  0.6508444  3
  12573  12569  12576  12578     1  0.0000000  0.6973333  3
  12573  12569  12567  12587     1  0.0000000  1.0460000  1
  12573  12569  12567  12587     1  0.0000000  0.0000000  3
  12573  12569  12567  12586     1  0.0000000  0.6508444  3
  12574  12571  12575  12585     1  0.0000000  0.6973333  3
  12574  12571  12570  12589     1  0.0000000  0.6508444  3
  12576  12569  12567  12586     1  0.0000000  1.0460000  1
  12576  12569  12567  12586     1  0.0000000  0.0000000  3
  12577  12566  12567  12586     1  0.0000000  0.6508444  3
  12580  12577  12582  12583     1  0.0000000  0.6973333  3
  12580  12577  12566  12584     1  0.0000000  1.0460000  1
  12580  12577  12566  12584     1  0.0000000  0.0000000  3
  12581  12577  12582  12583     1  0.0000000  0.6973333  3
  12581  12577  12566  12584     1  0.0000000  1.0460000  1
  12581  12577  12566  12584     1  0.0000000  0.0000000  3
  12584  12571  12575  12585     1  0.0000000  0.6973333  3
  12584  12566  12567  12586     1  0.0000000  1.0460000  1
  12584  12566  12567  12586     1  0.0000000  0.0000000  3
  12586  12567  12587  12588     1  0.0000000  0.6973333  3
  12591  12593  12595  12597     1  0.0000000  0.6508444  3
  12591  12593  12595  12598     1  0.0000000  0.6508444  3
  12592  12591  12593  12595     1  0.0000000  0.0000000  2
  12592  12591  12593  12594     1  0.0000000  0.0000000  2
  12592  12591  12593  12596     1  0.0000000  0.0000000  2
  12593  12595  12599  12664     1  0.0000000  0.6508444  3
  12594  12593  12595  12599     1  0.0000000  0.6508444  3
  12594  12593  12595  12597     1  0.0000000  0.6508444  3
  12594  12593  12595  12598     1  0.0000000  0.6508444  3
  12595  12599  12600  12609     1  0.0000000  0.6508444  3
  12595  12599  12600  12610     1  0.0000000  0.6508444  3
  12595  12599  12601  12602     1  0.0000000  0.6508444  3
  12595  12599  12601  12604     1  0.0000000  0.6508444  3
  12596  12593  12595  12599     1  0.0000000  0.6508444  3
  12596  12593  12595  12597     1  0.0000000  0.6508444  3
  12596  12593  12595  12598     1  0.0000000  0.6508444  3
  12597  12595  12599  12600     1  0.0000000  0.6508444  3
  12597  12595  12599  12601     1  0.0000000  0.6508444  3
  12597  12595  12599  12664     1  0.0000000  0.6508444  3
  12598  12595  12599  12600     1  0.0000000  0.6508444  3
  12598  12595  12599  12601     1  0.0000000  0.6508444  3
  12598  12595  12599  12664     1  0.0000000  0.6508444  3
  12599  12600  12611  12612     1  0.0000000  0.6508444  3
  12599  12600  12611  12613     1  0.0000000  0.6508444  3
  12599  12601  12603  12605     1  0.0000000  0.6508444  3
  12599  12601  12603  12606     1  0.0000000  0.6508444  3
  12600  12599  12601  12602     1  0.0000000  0.6508444  3
  12600  12599  12601  12604     1  0.0000000  0.6508444  3
  12601  12599  12600  12609     1  0.0000000  0.6508444  3
  12601  12599  12600  12610     1  0.0000000  0.6508444  3
  12602  12601  12599  12664     1  0.0000000  0.6508444  3
  12602  12601  12603  12607     1  0.0000000  0.6508444  3
  12602  12601  12603  12605     1  0.0000000  0.6508444  3
  12602  12601  12603  12606     1  0.0000000  0.6508444  3
  12603  12601  12599  12664     1  0.0000000  0.6508444  3
  12603  12607  12639  12629     1  180.0000771  6.0668000  2
  12603  12607  12639  12629     1  180.0000771  1.4644000  4
  12604  12601  12599  12664     1  0.0000000  0.6508444  3
  12604  12601  12603  12607     1  0.0000000  0.6508444  3
  12604  12601  12603  12605     1  0.0000000  0.6508444  3
  12604  12601  12603  12606     1  0.0000000  0.6508444  3
  12605  12603  12607  12608     1  0.0000000  3.3472000  1
  12605  12603  12607  12608     1  0.0000000  0.0000000  2
  12605  12603  12607  12608     1  180.0000771  0.3347200  3
  12605  12603  12607  12639     1  180.0000771  0.0000000  2
  12606  12603  12607  12608     1  0.0000000  3.3472000  1
  12606  12603  12607  12608     1  0.0000000  0.0000000  2
  12606  12603  12607  12608     1  180.0000771  0.3347200  3
  12606  12603  12607  12639     1  180.0000771  0.0000000  2
  12607  12639  12620  12622     1  0.0000000  1.2552000  3
  12608  12607  12639  12629     1  180.0000771  6.0668000  2
  12608  12607  12639  12629     1  180.0000771  1.4644000  4
  12609  12600  12599  12664     1  0.0000000  0.6508444  3
  12609  12600  12611  12614     1  0.0000000  0.6508444  3
  12609  12600  12611  12612     1  0.0000000  0.6508444  3
  12609  12600  12611  12613     1  0.0000000  0.6508444  3
  12610  12600  12599  12664     1  0.0000000  0.6508444  3
  12610  12600  12611  12614     1  0.0000000  0.6508444  3
  12610  12600  12611  12612     1  0.0000000  0.6508444  3
  12610  12600  12611  12613     1  0.0000000  0.6508444  3
  12611  12600  12599  12664     1  0.0000000  0.6508444  3
  12611  12614  12663  12653     1  180.0000771  6.0668000  2
  12611  12614  12663  12653     1  180.0000771  1.4644000  4
  12612  12611  12614  12615     1  0.0000000  3.3472000  1
  12612  12611  12614  12615     1  0.0000000  0.0000000  2
  12612  12611  12614  12615     1  180.0000771  0.3347200  3
  12612  12611  12614  12663     1  180.0000771  0.0000000  2
  12613  12611  12614  12615     1  0.0000000  3.3472000  1
  12613  12611  12614  12615     1  0.0000000  0.0000000  2
  12613  12611  12614  12615     1  180.0000771  0.3347200  3
  12613  12611  12614  12663     1  180.0000771  0.0000000  2
  12614  12663  12644  12646     1  0.0000000  1.2552000  3
  12615  12614  12663  12653     1  180.0000771  6.0668000  2
  12615  12614  12663  12653     1  180.0000771  1.4644000  4
  12616  12617  12619  12623     1  0.0000000  0.6508444  3
  12616  12617  12637  12638     1  0.0000000  1.0460000  1
  12616  12617  12637  12638     1  0.0000000  0.6694400  3
  12616  12627  12632  12633     1  0.0000000  1.0460000  1
  12616  12627  12632  12633     1  0.0000000  0.6694400  3
  12616  12634  12621  12624     1  0.0000000  1.6038667  3
  12617  12616  12627  12630     1  0.0000000  0.6508444  3
  12617  12616  12627  12631     1  0.0000000  0.6508444  3
  12617  12619  12620  12622     1  0.0000000  0.6508444  3
  12617  12619  12626  12628     1  0.0000000  1.0460000  1
  12617  12619  12626  12628     1  0.0000000  0.6694400  3
  12618  12616  12617  12619     1  0.0000000  0.6508444  3
  12618  12616  12617  12637     1  0.0000000  1.0460000  1
  12618  12616  12617  12637     1  0.0000000  0.0000000  3
  12618  12616  12617  12636     1  0.0000000  0.6508444  3
  12618  12616  12627  12632     1  0.0000000  1.0460000  1
  12618  12616  12627  12632     1  0.0000000  0.0000000  3
  12618  12616  12627  12630     1  0.0000000  0.6508444  3
  12618  12616  12627  12631     1  0.0000000  0.6508444  3
  12618  12616  12634  12621     1  0.0000000  1.6038667  3
  12619  12617  12637  12638     1  0.0000000  1.0460000  1
  12619  12617  12637  12638     1  0.0000000  0.6694400  3
  12619  12620  12621  12624     1  0.0000000  0.6508444  3
  12619  12620  12639  12629     1  0.0000000  1.2552000  3
  12620  12619  12617  12636     1  0.0000000  0.6508444  3
  12620  12619  12626  12628     1  0.0000000  1.0460000  1
  12620  12619  12626  12628     1  0.0000000  0.6694400  3
  12620  12621  12625  12635     1  0.0000000  1.0460000  1
  12620  12621  12625  12635     1  0.0000000  0.6694400  3
  12621  12620  12619  12623     1  0.0000000  0.6508444  3
  12621  12620  12639  12629     1  0.0000000  1.2552000  3
  12622  12620  12619  12626     1  0.0000000  1.0460000  1
  12622  12620  12619  12626     1  0.0000000  0.0000000  3
  12622  12620  12619  12623     1  0.0000000  0.6508444  3
  12622  12620  12621  12625     1  0.0000000  1.0460000  1
  12622  12620  12621  12625     1  0.0000000  0.0000000  3
  12622  12620  12621  12634     1  0.0000000  1.0460000  1
  12622  12620  12621  12634     1  0.0000000  0.0000000  3
  12622  12620  12621  12624     1  0.0000000  0.6508444  3
  12622  12620  12639  12629     1  0.0000000  1.2552000  3
  12623  12619  12617  12637     1  0.0000000  1.0460000  1
  12623  12619  12617  12637     1  0.0000000  0.0000000  3
  12623  12619  12617  12636     1  0.0000000  0.6508444  3
  12623  12619  12620  12639     1  0.0000000  0.6508444  3
  12623  12619  12626  12628     1  0.0000000  0.6973333  3
  12624  12621  12620  12639     1  0.0000000  0.6508444  3
  12624  12621  12625  12635     1  0.0000000  0.6973333  3
  12626  12619  12617  12636     1  0.0000000  1.0460000  1
  12626  12619  12617  12636     1  0.0000000  0.0000000  3
  12627  12616  12617  12636     1  0.0000000  0.6508444  3
  12630  12627  12616  12634     1  0.0000000  1.0460000  1
  12630  12627  12616  12634     1  0.0000000  0.0000000  3
  12630  12627  12632  12633     1  0.0000000  0.6973333  3
  12631  12627  12616  12634     1  0.0000000  1.0460000  1
  12631  12627  12616  12634     1  0.0000000  0.0000000  3
  12631  12627  12632  12633     1  0.0000000  0.6973333  3
  12634  12616  12617  12636     1  0.0000000  1.0460000  1
  12634  12616  12617  12636     1  0.0000000  0.0000000  3
  12634  12621  12625  12635     1  0.0000000  0.6973333  3
  12636  12617  12637  12638     1  0.0000000  0.6973333  3
  12640  12641  12643  12647     1  0.0000000  0.6508444  3
  12640  12641  12661  12662     1  0.0000000  1.0460000  1
  12640  12641  12661  12662     1  0.0000000  0.6694400  3
  12640  12651  12656  12657     1  0.0000000  1.0460000  1
  12640  12651  12656  12657     1  0.0000000  0.6694400  3
  12640  12658  12645  12648     1  0.0000000  1.6038667  3
  12641  12640  12651  12654     1  0.0000000  0.6508444  3
  12641  12640  12651  12655     1  0.0000000  0.6508444  3
  12641  12643  12644  12646     1  0.0000000  0.6508444  3
  12641  12643  12650  12652     1  0.0000000  1.0460000  1
  12641  12643  12650  12652     1  0.0000000  0.6694400  3
  12642  12640  12641  12643     1  0.0000000  0.6508444  3
  12642  12640  12641  12661     1  0.0000000  1.0460000  1
  12642  12640  12641  12661     1  0.0000000  0.0000000  3
  12642  12640  12641  12660     1  0.0000000  0.6508444  3
  12642  12640  12651  12656     1  0.0000000  1.0460000  1
  12642  12640  12651  12656     1  0.0000000  0.0000000  3
  12642  12640  12651  12654     1  0.0000000  0.6508444  3
  12642  12640  12651  12655     1  0.0000000  0.6508444  3
  12642  12640  12658  12645     1  0.0000000  1.6038667  3
  12643  12641  12661  12662     1  0.0000000  1.0460000  1
  12643  12641  12661  12662     1  0.0000000  0.6694400  3
  12643  12644  12645  12648     1  0.0000000  0.6508444  3
  12643  12644  12663  12653     1  0.0000000  1.2552000  3
  12644  12643  12641  12660     1  0.0000000  0.6508444  3
  12644  12643  12650  12652     1  0.0000000  1.0460000  1
  12644  12643  12650  12652     1  0.0000000  0.6694400  3
  12644  12645  12649  12659     1  0.0000000  1.0460000  1
  12644  12645  12649  12659     1  0.0000000  0.6694400  3
  12645  12644  12643  12647     1  0.0000000  0.6508444  3
  12645  12644  12663  12653     1  0.0000000  1.2552000  3
  12646  12644  12643  12650     1  0.0000000  1.0460000  1
  12646  12644  12643  12650     1  0.0000000  0.0000000  3
  12646  12644  12643  12647     1  0.0000000  0.6508444  3
  12646  12644  12645  12649     1  0.0000000  1.0460000  1
  12646  12644  12645  12649     1  0.0000000  0.0000000  3
  12646  12644  12645  12658     1  0.0000000  1.0460000  1
  12646  12644  12645  12658     1  0.0000000  0.0000000  3
  12646  12644  12645  12648     1  0.0000000  0.6508444  3
  12646  12644  12663  12653     1  0.0000000  1.2552000  3
  12647  12643  12641  12661     1  0.0000000  1.0460000  1
  12647  12643  12641  12661     1  0.0000000  0.0000000  3
  12647  12643  12641  12660     1  0.0000000  0.6508444  3
  12647  12643  12644  12663     1  0.0000000  0.6508444  3
  12647  12643  12650  12652     1  0.0000000  0.6973333  3
  12648  12645  12644  12663     1  0.0000000  0.6508444  3
  12648  12645  12649  12659     1  0.0000000  0.6973333  3
  12650  12643  12641  12660     1  0.0000000  1.0460000  1
  12650  12643  12641  12660     1  0.0000000  0.0000000  3
  12651  12640  12641  12660     1  0.0000000  0.6508444  3
  12654  12651  12640  12658     1  0.0000000  1.0460000  1
  12654  12651  12640  12658     1  0.0000000  0.0000000  3
  12654  12651  12656  12657     1  0.0000000  0.6973333  3
  12655  12651  12640  12658     1  0.0000000  1.0460000  1
  12655  12651  12640  12658     1  0.0000000  0.0000000  3
  12655  12651  12656  12657     1  0.0000000  0.6973333  3
  12658  12640  12641  12660     1  0.0000000  1.0460000  1
  12658  12640  12641  12660     1  0.0000000  0.0000000  3
  12658  12645  12649  12659     1  0.0000000  0.6973333  3
  12660  12641  12661  12662     1  0.0000000  0.6973333  3
  12665  12667  12669  12671     1  0.0000000  0.6508444  3
  12665  12667  12669  12672     1  0.0000000  0.6508444  3
  12666  12665  12667  12669     1  0.0000000  0.0000000  2
  12666  12665  12667  12668     1  0.0000000  0.0000000  2
  12666  12665  12667  12670     1  0.0000000  0.0000000  2
  12667  12669  12673  12738     1  0.0000000  0.6508444  3
  12668  12667  12669  12673     1  0.0000000  0.6508444  3
  12668  12667  12669  12671     1  0.0000000  0.6508444  3
  12668  12667  12669  12672     1  0.0000000  0.6508444  3
  12669  12673  12674  12683     1  0.0000000  0.6508444  3
  12669  12673  12674  12684     1  0.0000000  0.6508444  3
  12669  12673  12675  12676     1  0.0000000  0.6508444  3
  12669  12673  12675  12678     1  0.0000000  0.6508444  3
  12670  12667  12669  12673     1  0.0000000  0.6508444  3
  12670  12667  12669  12671     1  0.0000000  0.6508444  3
  12670  12667  12669  12672     1  0.0000000  0.6508444  3
  12671  12669  12673  12674     1  0.0000000  0.6508444  3
  12671  12669  12673  12675     1  0.0000000  0.6508444  3
  12671  12669  12673  12738     1  0.0000000  0.6508444  3
  12672  12669  12673  12674     1  0.0000000  0.6508444  3
  12672  12669  12673  12675     1  0.0000000  0.6508444  3
  12672  12669  12673  12738     1  0.0000000  0.6508444  3
  12673  12674  12685  12686     1  0.0000000  0.6508444  3
  12673  12674  12685  12687     1  0.0000000  0.6508444  3
  12673  12675  12677  12679     1  0.0000000  0.6508444  3
  12673  12675  12677  12680     1  0.0000000  0.6508444  3
  12674  12673  12675  12676     1  0.0000000  0.6508444  3
  12674  12673  12675  12678     1  0.0000000  0.6508444  3
  12675  12673  12674  12683     1  0.0000000  0.6508444  3
  12675  12673  12674  12684     1  0.0000000  0.6508444  3
  12676  12675  12677  12681     1  0.0000000  0.6508444  3
  12676  12675  12677  12679     1  0.0000000  0.6508444  3
  12676  12675  12677  12680     1  0.0000000  0.6508444  3
  12676  12675  12673  12738     1  0.0000000  0.6508444  3
  12677  12681  12713  12703     1  180.0000771  6.0668000  2
  12677  12681  12713  12703     1  180.0000771  1.4644000  4
  12677  12675  12673  12738     1  0.0000000  0.6508444  3
  12678  12675  12677  12681     1  0.0000000  0.6508444  3
  12678  12675  12677  12679     1  0.0000000  0.6508444  3
  12678  12675  12677  12680     1  0.0000000  0.6508444  3
  12678  12675  12673  12738     1  0.0000000  0.6508444  3
  12679  12677  12681  12682     1  0.0000000  3.3472000  1
  12679  12677  12681  12682     1  0.0000000  0.0000000  2
  12679  12677  12681  12682     1  180.0000771  0.3347200  3
  12679  12677  12681  12713     1  180.0000771  0.0000000  2
  12680  12677  12681  12682     1  0.0000000  3.3472000  1
  12680  12677  12681  12682     1  0.0000000  0.0000000  2
  12680  12677  12681  12682     1  180.0000771  0.3347200  3
  12680  12677  12681  12713     1  180.0000771  0.0000000  2
  12681  12713  12694  12696     1  0.0000000  1.2552000  3
  12682  12681  12713  12703     1  180.0000771  6.0668000  2
  12682  12681  12713  12703     1  180.0000771  1.4644000  4
  12683  12674  12685  12688     1  0.0000000  0.6508444  3
  12683  12674  12685  12686     1  0.0000000  0.6508444  3
  12683  12674  12685  12687     1  0.0000000  0.6508444  3
  12683  12674  12673  12738     1  0.0000000  0.6508444  3
  12684  12674  12685  12688     1  0.0000000  0.6508444  3
  12684  12674  12685  12686     1  0.0000000  0.6508444  3
  12684  12674  12685  12687     1  0.0000000  0.6508444  3
  12684  12674  12673  12738     1  0.0000000  0.6508444  3
  12685  12688  12737  12727     1  180.0000771  6.0668000  2
  12685  12688  12737  12727     1  180.0000771  1.4644000  4
  12685  12674  12673  12738     1  0.0000000  0.6508444  3
  12686  12685  12688  12689     1  0.0000000  3.3472000  1
  12686  12685  12688  12689     1  0.0000000  0.0000000  2
  12686  12685  12688  12689     1  180.0000771  0.3347200  3
  12686  12685  12688  12737     1  180.0000771  0.0000000  2
  12687  12685  12688  12689     1  0.0000000  3.3472000  1
  12687  12685  12688  12689     1  0.0000000  0.0000000  2
  12687  12685  12688  12689     1  180.0000771  0.3347200  3
  12687  12685  12688  12737     1  180.0000771  0.0000000  2
  12688  12737  12718  12720     1  0.0000000  1.2552000  3
  12689  12688  12737  12727     1  180.0000771  6.0668000  2
  12689  12688  12737  12727     1  180.0000771  1.4644000  4
  12690  12691  12693  12697     1  0.0000000  0.6508444  3
  12690  12691  12711  12712     1  0.0000000  1.0460000  1
  12690  12691  12711  12712     1  0.0000000  0.6694400  3
  12690  12701  12706  12707     1  0.0000000  1.0460000  1
  12690  12701  12706  12707     1  0.0000000  0.6694400  3
  12690  12708  12695  12698     1  0.0000000  1.6038667  3
  12691  12693  12694  12696     1  0.0000000  0.6508444  3
  12691  12693  12700  12702     1  0.0000000  1.0460000  1
  12691  12693  12700  12702     1  0.0000000  0.6694400  3
  12691  12690  12701  12704     1  0.0000000  0.6508444  3
  12691  12690  12701  12705     1  0.0000000  0.6508444  3
  12692  12690  12691  12693     1  0.0000000  0.6508444  3
  12692  12690  12691  12711     1  0.0000000  1.0460000  1
  12692  12690  12691  12711     1  0.0000000  0.0000000  3
  12692  12690  12691  12710     1  0.0000000  0.6508444  3
  12692  12690  12701  12706     1  0.0000000  1.0460000  1
  12692  12690  12701  12706     1  0.0000000  0.0000000  3
  12692  12690  12701  12704     1  0.0000000  0.6508444  3
  12692  12690  12701  12705     1  0.0000000  0.6508444  3
  12692  12690  12708  12695     1  0.0000000  1.6038667  3
  12693  12694  12695  12698     1  0.0000000  0.6508444  3
  12693  12694  12713  12703     1  0.0000000  1.2552000  3
  12693  12691  12711  12712     1  0.0000000  1.0460000  1
  12693  12691  12711  12712     1  0.0000000  0.6694400  3
  12694  12695  12699  12709     1  0.0000000  1.0460000  1
  12694  12695  12699  12709     1  0.0000000  0.6694400  3
  12694  12693  12700  12702     1  0.0000000  1.0460000  1
  12694  12693  12700  12702     1  0.0000000  0.6694400  3
  12694  12693  12691  12710     1  0.0000000  0.6508444  3
  12695  12694  12713  12703     1  0.0000000  1.2552000  3
  12695  12694  12693  12697     1  0.0000000  0.6508444  3
  12696  12694  12695  12699     1  0.0000000  1.0460000  1
  12696  12694  12695  12699     1  0.0000000  0.0000000  3
  12696  12694  12695  12708     1  0.0000000  1.0460000  1
  12696  12694  12695  12708     1  0.0000000  0.0000000  3
  12696  12694  12695  12698     1  0.0000000  0.6508444  3
  12696  12694  12713  12703     1  0.0000000  1.2552000  3
  12696  12694  12693  12700     1  0.0000000  1.0460000  1
  12696  12694  12693  12700     1  0.0000000  0.0000000  3
  12696  12694  12693  12697     1  0.0000000  0.6508444  3
  12697  12693  12694  12713     1  0.0000000  0.6508444  3
  12697  12693  12700  12702     1  0.0000000  0.6973333  3
  12697  12693  12691  12711     1  0.0000000  1.0460000  1
  12697  12693  12691  12711     1  0.0000000  0.0000000  3
  12697  12693  12691  12710     1  0.0000000  0.6508444  3
  12698  12695  12699  12709     1  0.0000000  0.6973333  3
  12698  12695  12694  12713     1  0.0000000  0.6508444  3
  12700  12693  12691  12710     1  0.0000000  1.0460000  1
  12700  12693  12691  12710     1  0.0000000  0.0000000  3
  12701  12690  12691  12710     1  0.0000000  0.6508444  3
  12704  12701  12706  12707     1  0.0000000  0.6973333  3
  12704  12701  12690  12708     1  0.0000000  1.0460000  1
  12704  12701  12690  12708     1  0.0000000  0.0000000  3
  12705  12701  12706  12707     1  0.0000000  0.6973333  3
  12705  12701  12690  12708     1  0.0000000  1.0460000  1
  12705  12701  12690  12708     1  0.0000000  0.0000000  3
  12708  12695  12699  12709     1  0.0000000  0.6973333  3
  12708  12690  12691  12710     1  0.0000000  1.0460000  1
  12708  12690  12691  12710     1  0.0000000  0.0000000  3
  12710  12691  12711  12712     1  0.0000000  0.6973333  3
  12714  12715  12717  12721     1  0.0000000  0.6508444  3
  12714  12715  12735  12736     1  0.0000000  1.0460000  1
  12714  12715  12735  12736     1  0.0000000  0.6694400  3
  12714  12725  12730  12731     1  0.0000000  1.0460000  1
  12714  12725  12730  12731     1  0.0000000  0.6694400  3
  12714  12732  12719  12722     1  0.0000000  1.6038667  3
  12715  12717  12718  12720     1  0.0000000  0.6508444  3
  12715  12717  12724  12726     1  0.0000000  1.0460000  1
  12715  12717  12724  12726     1  0.0000000  0.6694400  3
  12715  12714  12725  12728     1  0.0000000  0.6508444  3
  12715  12714  12725  12729     1  0.0000000  0.6508444  3
  12716  12714  12715  12717     1  0.0000000  0.6508444  3
  12716  12714  12715  12735     1  0.0000000  1.0460000  1
  12716  12714  12715  12735     1  0.0000000  0.0000000  3
  12716  12714  12715  12734     1  0.0000000  0.6508444  3
  12716  12714  12725  12730     1  0.0000000  1.0460000  1
  12716  12714  12725  12730     1  0.0000000  0.0000000  3
  12716  12714  12725  12728     1  0.0000000  0.6508444  3
  12716  12714  12725  12729     1  0.0000000  0.6508444  3
  12716  12714  12732  12719     1  0.0000000  1.6038667  3
  12717  12718  12719  12722     1  0.0000000  0.6508444  3
  12717  12718  12737  12727     1  0.0000000  1.2552000  3
  12717  12715  12735  12736     1  0.0000000  1.0460000  1
  12717  12715  12735  12736     1  0.0000000  0.6694400  3
  12718  12719  12723  12733     1  0.0000000  1.0460000  1
  12718  12719  12723  12733     1  0.0000000  0.6694400  3
  12718  12717  12724  12726     1  0.0000000  1.0460000  1
  12718  12717  12724  12726     1  0.0000000  0.6694400  3
  12718  12717  12715  12734     1  0.0000000  0.6508444  3
  12719  12718  12737  12727     1  0.0000000  1.2552000  3
  12719  12718  12717  12721     1  0.0000000  0.6508444  3
  12720  12718  12719  12723     1  0.0000000  1.0460000  1
  12720  12718  12719  12723     1  0.0000000  0.0000000  3
  12720  12718  12719  12732     1  0.0000000  1.0460000  1
  12720  12718  12719  12732     1  0.0000000  0.0000000  3
  12720  12718  12719  12722     1  0.0000000  0.6508444  3
  12720  12718  12737  12727     1  0.0000000  1.2552000  3
  12720  12718  12717  12724     1  0.0000000  1.0460000  1
  12720  12718  12717  12724     1  0.0000000  0.0000000  3
  12720  12718  12717  12721     1  0.0000000  0.6508444  3
  12721  12717  12718  12737     1  0.0000000  0.6508444  3
  12721  12717  12724  12726     1  0.0000000  0.6973333  3
  12721  12717  12715  12735     1  0.0000000  1.0460000  1
  12721  12717  12715  12735     1  0.0000000  0.0000000  3
  12721  12717  12715  12734     1  0.0000000  0.6508444  3
  12722  12719  12723  12733     1  0.0000000  0.6973333  3
  12722  12719  12718  12737     1  0.0000000  0.6508444  3
  12724  12717  12715  12734     1  0.0000000  1.0460000  1
  12724  12717  12715  12734     1  0.0000000  0.0000000  3
  12725  12714  12715  12734     1  0.0000000  0.6508444  3
  12728  12725  12730  12731     1  0.0000000  0.6973333  3
  12728  12725  12714  12732     1  0.0000000  1.0460000  1
  12728  12725  12714  12732     1  0.0000000  0.0000000  3
  12729  12725  12730  12731     1  0.0000000  0.6973333  3
  12729  12725  12714  12732     1  0.0000000  1.0460000  1
  12729  12725  12714  12732     1  0.0000000  0.0000000  3
  12732  12719  12723  12733     1  0.0000000  0.6973333  3
  12732  12714  12715  12734     1  0.0000000  1.0460000  1
  12732  12714  12715  12734     1  0.0000000  0.0000000  3
  12734  12715  12735  12736     1  0.0000000  0.6973333  3
     10     51     52     67     4  180.0000771  4.6024000  2
     12     77     78     93     4  180.0000771  4.6024000  2
     14    103    104    119     4  180.0000771  4.6024000  2
     16    129    130    145     4  180.0000771  4.6024000  2
     47    155    156    171     4  180.0000771  4.6024000  2
     49    181    182    197     4  180.0000771  4.6024000  2
     73    207    208    223     4  180.0000771  4.6024000  2
     75    233    234    249     4  180.0000771  4.6024000  2
     99    259    260    275     4  180.0000771  4.6024000  2
    101    285    286    301     4  180.0000771  4.6024000  2
    125    311    312    327     4  180.0000771  4.6024000  2
    127    337    338    353     4  180.0000771  4.6024000  2
    151    363    364    379     4  180.0000771  4.6024000  2
    153    389    390    405     4  180.0000771  4.6024000  2
    177    415    416    431     4  180.0000771  4.6024000  2
    179    441    442    457     4  180.0000771  4.6024000  2
    203    467    468    483     4  180.0000771  4.6024000  2
    205    493    494    509     4  180.0000771  4.6024000  2
    229    519    520    535     4  180.0000771  4.6024000  2
    231    545    546    561     4  180.0000771  4.6024000  2
    255    571    572    587     4  180.0000771  4.6024000  2
    257    597    598    613     4  180.0000771  4.6024000  2
    281    623    624    639     4  180.0000771  4.6024000  2
    283    649    650    665     4  180.0000771  4.6024000  2
    307    675    676    691     4  180.0000771  4.6024000  2
    309    701    702    717     4  180.0000771  4.6024000  2
    333    727    728    743     4  180.0000771  4.6024000  2
    335    753    754    769     4  180.0000771  4.6024000  2
    359    779    780    795     4  180.0000771  4.6024000  2
    361    805    806    821     4  180.0000771  4.6024000  2
    385    831    832    847     4  180.0000771  4.6024000  2
    387    857    858    873     4  180.0000771  4.6024000  2
    411    883    884    899     4  180.0000771  4.6024000  2
    413    909    910    925     4  180.0000771  4.6024000  2
    437    935    936    951     4  180.0000771  4.6024000  2
    439    961    962    977     4  180.0000771  4.6024000  2
    463    987    988   1003     4  180.0000771  4.6024000  2
    465   1013   1014   1029     4  180.0000771  4.6024000  2
    489   1039   1040   1055     4  180.0000771  4.6024000  2
    491   1065   1066   1081     4  180.0000771  4.6024000  2
    515   1091   1092   1107     4  180.0000771  4.6024000  2
    517   1117   1118   1133     4  180.0000771  4.6024000  2
    541   1143   1144   1159     4  180.0000771  4.6024000  2
    543   1169   1170   1185     4  180.0000771  4.6024000  2
    567   1195   1196   1211     4  180.0000771  4.6024000  2
    569   1221   1222   1237     4  180.0000771  4.6024000  2
    593   1247   1248   1263     4  180.0000771  4.6024000  2
    595   1273   1274   1289     4  180.0000771  4.6024000  2
    619   1299   1300   1315     4  180.0000771  4.6024000  2
    621   1325   1326   1341     4  180.0000771  4.6024000  2
    645   1351   1352   1367     4  180.0000771  4.6024000  2
    647   1377   1378   1393     4  180.0000771  4.6024000  2
    671   1403   1404   1419     4  180.0000771  4.6024000  2
    673   1429   1430   1445     4  180.0000771  4.6024000  2
    697   1455   1456   1471     4  180.0000771  4.6024000  2
    699   1481   1482   1497     4  180.0000771  4.6024000  2
    723   1507   1508   1523     4  180.0000771  4.6024000  2
    725   1533   1534   1549     4  180.0000771  4.6024000  2
    749   1559   1560   1575     4  180.0000771  4.6024000  2
    751   1585   1586   1601     4  180.0000771  4.6024000  2
    775   1611   1612   1627     4  180.0000771  4.6024000  2
    777   1637   1638   1653     4  180.0000771  4.6024000  2
    801   1663   1664   1679     4  180.0000771  4.6024000  2
    803   1689   1690   1705     4  180.0000771  4.6024000  2
    827   1715   1716   1731     4  180.0000771  4.6024000  2
    829   1741   1742   1757     4  180.0000771  4.6024000  2
    853   1767   1768   1783     4  180.0000771  4.6024000  2
    855   1793   1794   1809     4  180.0000771  4.6024000  2
    879   1819   1820   1835     4  180.0000771  4.6024000  2
    881   1845   1846   1861     4  180.0000771  4.6024000  2
    905   1871   1872   1887     4  180.0000771  4.6024000  2
    907   1897   1898   1913     4  180.0000771  4.6024000  2
    931   1923   1924   1939     4  180.0000771  4.6024000  2
    933   1949   1950   1965     4  180.0000771  4.6024000  2
    957   1975   1976   1991     4  180.0000771  4.6024000  2
    959   2001   2002   2017     4  180.0000771  4.6024000  2
    983   2027   2028   2043     4  180.0000771  4.6024000  2
    985   2053   2054   2069     4  180.0000771  4.6024000  2
   1009   2079   2080   2095     4  180.0000771  4.6024000  2
   1011   2105   2106   2121     4  180.0000771  4.6024000  2
   1035   2131   2132   2147     4  180.0000771  4.6024000  2
   1037   2157   2158   2173     4  180.0000771  4.6024000  2
   1061   2183   2184   2199     4  180.0000771  4.6024000  2
   1063   2209   2210   2225     4  180.0000771  4.6024000  2
   1087   2235   2236   2251     4  180.0000771  4.6024000  2
   1089   2261   2262   2277     4  180.0000771  4.6024000  2
   1113   2287   2288   2303     4  180.0000771  4.6024000  2
   1115   2313   2314   2329     4  180.0000771  4.6024000  2
   1139   2339   2340   2355     4  180.0000771  4.6024000  2
   1141   2365   2366   2381     4  180.0000771  4.6024000  2
   1165   2391   2392   2407     4  180.0000771  4.6024000  2
   1167   2417   2418   2433     4  180.0000771  4.6024000  2
   1191   2443   2444   2459     4  180.0000771  4.6024000  2
   1193   2469   2470   2485     4  180.0000771  4.6024000  2
   1217   2495   2496   2511     4  180.0000771  4.6024000  2
   1219   2521   2522   2537     4  180.0000771  4.6024000  2
   1243   2547   2548   2563     4  180.0000771  4.6024000  2
   1245   2573   2574   2589     4  180.0000771  4.6024000  2
   1269   2599   2600   2615     4  180.0000771  4.6024000  2
   1271   2625   2626   2641     4  180.0000771  4.6024000  2
   1295   2651   2652   2667     4  180.0000771  4.6024000  2
   1297   2677   2678   2693     4  180.0000771  4.6024000  2
   1321   2703   2704   2719     4  180.0000771  4.6024000  2
   1323   2729   2730   2745     4  180.0000771  4.6024000  2
   1347   2755   2756   2771     4  180.0000771  4.6024000  2
   1349   2781   2782   2797     4  180.0000771  4.6024000  2
   1373   2807   2808   2823     4  180.0000771  4.6024000  2
   1375   2833   2834   2849     4  180.0000771  4.6024000  2
   1399   2859   2860   2875     4  180.0000771  4.6024000  2
   1401   2885   2886   2901     4  180.0000771  4.6024000  2
   1425   2911   2912   2927     4  180.0000771  4.6024000  2
   1427   2937   2938   2953     4  180.0000771  4.6024000  2
   1451   2963   2964   2979     4  180.0000771  4.6024000  2
   1453   2989   2990   3005     4  180.0000771  4.6024000  2
   1477   3015   3016   3031     4  180.0000771  4.6024000  2
   1479   3041   3042   3057     4  180.0000771  4.6024000  2
   1503   3067   3068   3083     4  180.0000771  4.6024000  2
   1505   3093   3094   3109     4  180.0000771  4.6024000  2
   1529   3119   3120   3135     4  180.0000771  4.6024000  2
   1531   3145   3146   3161     4  180.0000771  4.6024000  2
   1555   3171   3172   3187     4  180.0000771  4.6024000  2
   1557   3197   3198   3213     4  180.0000771  4.6024000  2
   1581   3223   3224   3239     4  180.0000771  4.6024000  2
   1583   3249   3250   3265     4  180.0000771  4.6024000  2
   1607   3269   3267   3268     4  180.0000771  4.6024000  2
   1609   3343   3341   3342     4  180.0000771  4.6024000  2
   1633   3417   3415   3416     4  180.0000771  4.6024000  2
   1635   3491   3489   3490     4  180.0000771  4.6024000  2
   1659   3565   3563   3564     4  180.0000771  4.6024000  2
   1661   3639   3637   3638     4  180.0000771  4.6024000  2
   1685   3713   3711   3712     4  180.0000771  4.6024000  2
   1687   3787   3785   3786     4  180.0000771  4.6024000  2
   1711   3861   3859   3860     4  180.0000771  4.6024000  2
   1713   3935   3933   3934     4  180.0000771  4.6024000  2
   1737   4009   4007   4008     4  180.0000771  4.6024000  2
   1739   4083   4081   4082     4  180.0000771  4.6024000  2
   1763   4157   4155   4156     4  180.0000771  4.6024000  2
   1765   4231   4229   4230     4  180.0000771  4.6024000  2
   1789   4305   4303   4304     4  180.0000771  4.6024000  2
   1791   4379   4377   4378     4  180.0000771  4.6024000  2
   1815   4453   4451   4452     4  180.0000771  4.6024000  2
   1817   4527   4525   4526     4  180.0000771  4.6024000  2
   1841   4601   4599   4600     4  180.0000771  4.6024000  2
   1843   4675   4673   4674     4  180.0000771  4.6024000  2
   1867   4749   4747   4748     4  180.0000771  4.6024000  2
   1869   4823   4821   4822     4  180.0000771  4.6024000  2
   1893   4897   4895   4896     4  180.0000771  4.6024000  2
   1895   4971   4969   4970     4  180.0000771  4.6024000  2
   1919   5045   5043   5044     4  180.0000771  4.6024000  2
   1921   5119   5117   5118     4  180.0000771  4.6024000  2
   1945   5193   5191   5192     4  180.0000771  4.6024000  2
   1947   5267   5265   5266     4  180.0000771  4.6024000  2
   1971   5341   5339   5340     4  180.0000771  4.6024000  2
   1973   5415   5413   5414     4  180.0000771  4.6024000  2
   1997   5489   5487   5488     4  180.0000771  4.6024000  2
   1999   5563   5561   5562     4  180.0000771  4.6024000  2
   2023   5637   5635   5636     4  180.0000771  4.6024000  2
   2025   5711   5709   5710     4  180.0000771  4.6024000  2
   2049   5785   5783   5784     4  180.0000771  4.6024000  2
   2051   5859   5857   5858     4  180.0000771  4.6024000  2
   2075   5933   5931   5932     4  180.0000771  4.6024000  2
   2077   6007   6005   6006     4  180.0000771  4.6024000  2
   2101   6081   6079   6080     4  180.0000771  4.6024000  2
   2103   6155   6153   6154     4  180.0000771  4.6024000  2
   2127   6229   6227   6228     4  180.0000771  4.6024000  2
   2129   6303   6301   6302     4  180.0000771  4.6024000  2
   2153   6377   6375   6376     4  180.0000771  4.6024000  2
   2155   6451   6449   6450     4  180.0000771  4.6024000  2
   2179   6525   6523   6524     4  180.0000771  4.6024000  2
   2181   6599   6597   6598     4  180.0000771  4.6024000  2
   2205   6673   6671   6672     4  180.0000771  4.6024000  2
   2207   6747   6745   6746     4  180.0000771  4.6024000  2
   2231   6821   6819   6820     4  180.0000771  4.6024000  2
   2233   6895   6893   6894     4  180.0000771  4.6024000  2
   2257   6969   6967   6968     4  180.0000771  4.6024000  2
   2259   7043   7041   7042     4  180.0000771  4.6024000  2
   2283   7117   7115   7116     4  180.0000771  4.6024000  2
   2285   7191   7189   7190     4  180.0000771  4.6024000  2
   2309   7265   7263   7264     4  180.0000771  4.6024000  2
   2311   7339   7337   7338     4  180.0000771  4.6024000  2
   2335   7413   7411   7412     4  180.0000771  4.6024000  2
   2337   7487   7485   7486     4  180.0000771  4.6024000  2
   2361   7561   7559   7560     4  180.0000771  4.6024000  2
   2363   7635   7633   7634     4  180.0000771  4.6024000  2
   2387   7709   7707   7708     4  180.0000771  4.6024000  2
   2389   7783   7781   7782     4  180.0000771  4.6024000  2
   2413   7857   7855   7856     4  180.0000771  4.6024000  2
   2415   7931   7929   7930     4  180.0000771  4.6024000  2
   2439   8005   8003   8004     4  180.0000771  4.6024000  2
   2441   8079   8077   8078     4  180.0000771  4.6024000  2
   2465   8153   8151   8152     4  180.0000771  4.6024000  2
   2467   8227   8225   8226     4  180.0000771  4.6024000  2
   2491   8301   8299   8300     4  180.0000771  4.6024000  2
   2493   8375   8373   8374     4  180.0000771  4.6024000  2
   2517   8449   8447   8448     4  180.0000771  4.6024000  2
   2519   8523   8521   8522     4  180.0000771  4.6024000  2
   2543   8597   8595   8596     4  180.0000771  4.6024000  2
   2545   8671   8669   8670     4  180.0000771  4.6024000  2
   2569   8745   8743   8744     4  180.0000771  4.6024000  2
   2571   8819   8817   8818     4  180.0000771  4.6024000  2
   2595   8893   8891   8892     4  180.0000771  4.6024000  2
   2597   8967   8965   8966     4  180.0000771  4.6024000  2
   2621   9041   9039   9040     4  180.0000771  4.6024000  2
   2623   9115   9113   9114     4  180.0000771  4.6024000  2
   2647   9189   9187   9188     4  180.0000771  4.6024000  2
   2649   9263   9261   9262     4  180.0000771  4.6024000  2
   2673   9337   9335   9336     4  180.0000771  4.6024000  2
   2675   9411   9409   9410     4  180.0000771  4.6024000  2
   2699   9485   9483   9484     4  180.0000771  4.6024000  2
   2701   9559   9557   9558     4  180.0000771  4.6024000  2
   2725   9633   9631   9632     4  180.0000771  4.6024000  2
   2727   9707   9705   9706     4  180.0000771  4.6024000  2
   2751   9781   9779   9780     4  180.0000771  4.6024000  2
   2753   9855   9853   9854     4  180.0000771  4.6024000  2
   2777   9929   9927   9928     4  180.0000771  4.6024000  2
   2779  10003  10001  10002     4  180.0000771  4.6024000  2
   2803  10077  10075  10076     4  180.0000771  4.6024000  2
   2805  10151  10149  10150     4  180.0000771  4.6024000  2
   2829  10225  10223  10224     4  180.0000771  4.6024000  2
   2831  10299  10297  10298     4  180.0000771  4.6024000  2
   2855  10373  10371  10372     4  180.0000771  4.6024000  2
   2857  10447  10445  10446     4  180.0000771  4.6024000  2
   2881  10521  10519  10520     4  180.0000771  4.6024000  2
   2883  10595  10593  10594     4  180.0000771  4.6024000  2
   2907  10669  10667  10668     4  180.0000771  4.6024000  2
   2909  10743  10741  10742     4  180.0000771  4.6024000  2
   2933  10817  10815  10816     4  180.0000771  4.6024000  2
   2935  10891  10889  10890     4  180.0000771  4.6024000  2
   2959  10965  10963  10964     4  180.0000771  4.6024000  2
   2961  11039  11037  11038     4  180.0000771  4.6024000  2
   2985  11113  11111  11112     4  180.0000771  4.6024000  2
   2987  11187  11185  11186     4  180.0000771  4.6024000  2
   3011  11261  11259  11260     4  180.0000771  4.6024000  2
   3013  11335  11333  11334     4  180.0000771  4.6024000  2
   3037  11409  11407  11408     4  180.0000771  4.6024000  2
   3039  11483  11481  11482     4  180.0000771  4.6024000  2
   3063  11557  11555  11556     4  180.0000771  4.6024000  2
   3065  11631  11629  11630     4  180.0000771  4.6024000  2
   3089  11705  11703  11704     4  180.0000771  4.6024000  2
   3091  11779  11777  11778     4  180.0000771  4.6024000  2
   3115  11853  11851  11852     4  180.0000771  4.6024000  2
   3117  11927  11925  11926     4  180.0000771  4.6024000  2
   3141  12001  11999  12000     4  180.0000771  4.6024000  2
   3143  12075  12073  12074     4  180.0000771  4.6024000  2
   3167  12149  12147  12148     4  180.0000771  4.6024000  2
   3169  12223  12221  12222     4  180.0000771  4.6024000  2
   3193  12297  12295  12296     4  180.0000771  4.6024000  2
   3195  12371  12369  12370     4  180.0000771  4.6024000  2
   3219  12445  12443  12444     4  180.0000771  4.6024000  2
   3221  12519  12517  12518     4  180.0000771  4.6024000  2
   3245  12593  12591  12592     4  180.0000771  4.6024000  2
   3247  12667  12665  12666     4  180.0000771  4.6024000  2

;[ system ]
;; Name
;Generic title
;
;[ molecules ]
;; Compound       #mols
;system1              1
