;
;   File g3.5_cooh_pamam.itp  was generated
;   By user: sairam (1000)
;   On host: sairam
;   At date: Fri. April  5 09:55:31 2024
;
;   This is a standalone topology file
;
;   Created by:
;   ParmEd:       amb2gro_top_gro.py, VERSION 3.4.1
;   Executable:   amb2gro_top_gro.py
;   Library dir:  /usr/local/gromacs/share/gromacs/top
;   Command line:
;     ./amb2gro_top_gro.py -p g3.5_cooh_pamam.prmtop -c g3.5_cooh_pamam.inpcrd -t g3.5_cooh_pamam.itp -g g3.5_cooh_pamam.gro -b g3.5_cooh_pamam.pdb
;

;[ defaults ]
;; nbfunc        comb-rule       gen-pairs       fudgeLJ fudgeQQ
;1               2               yes             0.5          0.83333333  
;
;[ atomtypes ]
;; name    at.num    mass    charge ptype  sigma      epsilon
;c3             6  12.010000  0.00000000  A     0.33996695      0.4577296
;h1             1   1.008000  0.00000000  A      0.2471353      0.0656888
;n3             7  14.010000  0.00000000  A     0.32499985        0.71128
;hc             1   1.008000  0.00000000  A     0.26495328      0.0656888
;c              6  12.010000  0.00000000  A     0.33996695       0.359824
;o              8  16.000000  0.00000000  A     0.29599219        0.87864
;n              7  14.010000  0.00000000  A     0.32499985        0.71128
;hn             1   1.008000  0.00000000  A     0.10690785      0.0656888
;oh             8  16.000000  0.00000000  A     0.30664734      0.8803136
;ho             1   1.008000  0.00000000  A              0              0


[ moleculetype ]
; Name            nrexcl
g3.5_cooh_pamam      3

[ atoms ]
;   nr       type  resnr residue  atom   cgnr    charge       mass  typeB    chargeB      massB
; residue    1 aaa rtp aaa q -0.0
    1         c3      1    aaa     C1      1 0.02890000  12.010000   ; qtot 0.028900
    2         h1      1    aaa     H1      2 0.08460000   1.008000   ; qtot 0.113500
    3         h1      1    aaa     H2      3 0.08460000   1.008000   ; qtot 0.198100
    4         c3      1    aaa     C2      4 0.02890000  12.010000   ; qtot 0.227000
    5         h1      1    aaa     H3      5 0.08460000   1.008000   ; qtot 0.311600
    6         h1      1    aaa     H4      6 0.08460000   1.008000   ; qtot 0.396200
    7         n3      1    aaa     N1      7 -0.65770000  14.010000   ; qtot -0.261500
    8         n3      1    aaa     N2      8 -0.65770000  14.010000   ; qtot -0.919200
    9         c3      1    aaa     C3      9 0.36940000  12.010000   ; qtot -0.549800
   10         h1      1    aaa     H5     10 0.00650000   1.008000   ; qtot -0.543300
   11         h1      1    aaa     H6     11 0.00650000   1.008000   ; qtot -0.536800
   12         c3      1    aaa     C4     12 0.36940000  12.010000   ; qtot -0.167400
   13         h1      1    aaa     H7     13 0.00650000   1.008000   ; qtot -0.160900
   14         h1      1    aaa     H8     14 0.00650000   1.008000   ; qtot -0.154400
   15         c3      1    aaa     C5     15 0.36940000  12.010000   ; qtot 0.215000
   16         h1      1    aaa     H9     16 0.00650000   1.008000   ; qtot 0.221500
   17         h1      1    aaa    H10     17 0.00650000   1.008000   ; qtot 0.228000
   18         c3      1    aaa     C6     18 0.36940000  12.010000   ; qtot 0.597400
   19         h1      1    aaa    H11     19 0.00650000   1.008000   ; qtot 0.603900
   20         h1      1    aaa    H12     20 0.00650000   1.008000   ; qtot 0.610400
   21         c3      1    aaa     C7     21 -0.54350000  12.010000   ; qtot 0.066900
   22         hc      1    aaa    H13     22 0.15890000   1.008000   ; qtot 0.225800
   23         hc      1    aaa    H14     23 0.15890000   1.008000   ; qtot 0.384700
   24         c3      1    aaa     C8     24 -0.54350000  12.010000   ; qtot -0.158800
   25         hc      1    aaa    H15     25 0.15890000   1.008000   ; qtot 0.000100
   26         hc      1    aaa    H16     26 0.15890000   1.008000   ; qtot 0.159000
   27         c3      1    aaa     C9     27 -0.54350000  12.010000   ; qtot -0.384500
   28         hc      1    aaa    H17     28 0.15890000   1.008000   ; qtot -0.225600
   29         hc      1    aaa    H18     29 0.15890000   1.008000   ; qtot -0.066700
   30         c3      1    aaa    C10     30 -0.54350000  12.010000   ; qtot -0.610200
   31         hc      1    aaa    H19     31 0.15890000   1.008000   ; qtot -0.451300
   32         hc      1    aaa    H20     32 0.15890000   1.008000   ; qtot -0.292400
   33          c      1    aaa    C11     33 0.67800000  12.010000   ; qtot 0.385600
   34          c      1    aaa    C12     34 0.67800000  12.010000   ; qtot 1.063600
   35          c      1    aaa    C13     35 0.67800000  12.010000   ; qtot 1.741600
   36          c      1    aaa    C14     36 0.67800000  12.010000   ; qtot 2.419600
   37          o      1    aaa     O1     37 -0.60490000  16.000000   ; qtot 1.814700
   38          o      1    aaa     O2     38 -0.60490000  16.000000   ; qtot 1.209800
   39          o      1    aaa     O3     39 -0.60490000  16.000000   ; qtot 0.604900
   40          o      1    aaa     O4     40 -0.60490000  16.000000   ; qtot -0.000000
; residue    2 bbb rtp bbb q -0.0
   41         c3      2    bbb     C1     41 0.44180000  12.010000   ; qtot 0.441800
   42         h1      2    bbb     H1     42 -0.03530000   1.008000   ; qtot 0.406500
   43         h1      2    bbb     H2     43 -0.03530000   1.008000   ; qtot 0.371200
   44         c3      2    bbb     C2     44 -0.28250000  12.010000   ; qtot 0.088700
   45         h1      2    bbb     H3     45 0.15710000   1.008000   ; qtot 0.245800
   46         h1      2    bbb     H4     46 0.15710000   1.008000   ; qtot 0.402900
   47         n3      2    bbb     N1     47 -0.74090000  14.010000   ; qtot -0.338000
   48         c3      2    bbb     C3     48 0.51680000  12.010000   ; qtot 0.178800
   49         h1      2    bbb     H5     49 -0.05230000   1.008000   ; qtot 0.126500
   50         h1      2    bbb     H6     50 -0.05230000   1.008000   ; qtot 0.074200
   51         c3      2    bbb     C4     51 0.51680000  12.010000   ; qtot 0.591000
   52         h1      2    bbb     H7     52 -0.05230000   1.008000   ; qtot 0.538700
   53         h1      2    bbb     H8     53 -0.05230000   1.008000   ; qtot 0.486400
   54         c3      2    bbb     C5     54 -0.60390000  12.010000   ; qtot -0.117500
   55         hc      2    bbb     H9     55 0.16730000   1.008000   ; qtot 0.049800
   56         hc      2    bbb    H10     56 0.16730000   1.008000   ; qtot 0.217100
   57         c3      2    bbb     C6     57 -0.60390000  12.010000   ; qtot -0.386800
   58         hc      2    bbb    H11     58 0.16730000   1.008000   ; qtot -0.219500
   59         hc      2    bbb    H12     59 0.16730000   1.008000   ; qtot -0.052200
   60          c      2    bbb     C7     60 0.72110000  12.010000   ; qtot 0.668900
   61          c      2    bbb     C8     61 0.72110000  12.010000   ; qtot 1.390000
   62          o      2    bbb     O1     62 -0.61950000  16.000000   ; qtot 0.770500
   63          o      2    bbb     O2     63 -0.61950000  16.000000   ; qtot 0.151000
   64          n      2    bbb     N4     64 -0.46580000  14.010000   ; qtot -0.314800
   65         hn      2    bbb    H21     65 0.31480000   1.008000   ; qtot -0.000000
; residue    3 bbb rtp bbb q -0.0
   66         c3      3    bbb     C1     66 0.44180000  12.010000   ; qtot 0.441800
   67         h1      3    bbb     H1     67 -0.03530000   1.008000   ; qtot 0.406500
   68         h1      3    bbb     H2     68 -0.03530000   1.008000   ; qtot 0.371200
   69         c3      3    bbb     C2     69 -0.28250000  12.010000   ; qtot 0.088700
   70         h1      3    bbb     H3     70 0.15710000   1.008000   ; qtot 0.245800
   71         h1      3    bbb     H4     71 0.15710000   1.008000   ; qtot 0.402900
   72         n3      3    bbb     N1     72 -0.74090000  14.010000   ; qtot -0.338000
   73         c3      3    bbb     C3     73 0.51680000  12.010000   ; qtot 0.178800
   74         h1      3    bbb     H5     74 -0.05230000   1.008000   ; qtot 0.126500
   75         h1      3    bbb     H6     75 -0.05230000   1.008000   ; qtot 0.074200
   76         c3      3    bbb     C4     76 0.51680000  12.010000   ; qtot 0.591000
   77         h1      3    bbb     H7     77 -0.05230000   1.008000   ; qtot 0.538700
   78         h1      3    bbb     H8     78 -0.05230000   1.008000   ; qtot 0.486400
   79         c3      3    bbb     C5     79 -0.60390000  12.010000   ; qtot -0.117500
   80         hc      3    bbb     H9     80 0.16730000   1.008000   ; qtot 0.049800
   81         hc      3    bbb    H10     81 0.16730000   1.008000   ; qtot 0.217100
   82         c3      3    bbb     C6     82 -0.60390000  12.010000   ; qtot -0.386800
   83         hc      3    bbb    H11     83 0.16730000   1.008000   ; qtot -0.219500
   84         hc      3    bbb    H12     84 0.16730000   1.008000   ; qtot -0.052200
   85          c      3    bbb     C7     85 0.72110000  12.010000   ; qtot 0.668900
   86          c      3    bbb     C8     86 0.72110000  12.010000   ; qtot 1.390000
   87          o      3    bbb     O1     87 -0.61950000  16.000000   ; qtot 0.770500
   88          o      3    bbb     O2     88 -0.61950000  16.000000   ; qtot 0.151000
   89          n      3    bbb     N4     89 -0.46580000  14.010000   ; qtot -0.314800
   90         hn      3    bbb    H21     90 0.31480000   1.008000   ; qtot -0.000000
; residue    4 bbb rtp bbb q -0.0
   91         c3      4    bbb     C1     91 0.44180000  12.010000   ; qtot 0.441800
   92         h1      4    bbb     H1     92 -0.03530000   1.008000   ; qtot 0.406500
   93         h1      4    bbb     H2     93 -0.03530000   1.008000   ; qtot 0.371200
   94         c3      4    bbb     C2     94 -0.28250000  12.010000   ; qtot 0.088700
   95         h1      4    bbb     H3     95 0.15710000   1.008000   ; qtot 0.245800
   96         h1      4    bbb     H4     96 0.15710000   1.008000   ; qtot 0.402900
   97         n3      4    bbb     N1     97 -0.74090000  14.010000   ; qtot -0.338000
   98         c3      4    bbb     C3     98 0.51680000  12.010000   ; qtot 0.178800
   99         h1      4    bbb     H5     99 -0.05230000   1.008000   ; qtot 0.126500
  100         h1      4    bbb     H6    100 -0.05230000   1.008000   ; qtot 0.074200
  101         c3      4    bbb     C4    101 0.51680000  12.010000   ; qtot 0.591000
  102         h1      4    bbb     H7    102 -0.05230000   1.008000   ; qtot 0.538700
  103         h1      4    bbb     H8    103 -0.05230000   1.008000   ; qtot 0.486400
  104         c3      4    bbb     C5    104 -0.60390000  12.010000   ; qtot -0.117500
  105         hc      4    bbb     H9    105 0.16730000   1.008000   ; qtot 0.049800
  106         hc      4    bbb    H10    106 0.16730000   1.008000   ; qtot 0.217100
  107         c3      4    bbb     C6    107 -0.60390000  12.010000   ; qtot -0.386800
  108         hc      4    bbb    H11    108 0.16730000   1.008000   ; qtot -0.219500
  109         hc      4    bbb    H12    109 0.16730000   1.008000   ; qtot -0.052200
  110          c      4    bbb     C7    110 0.72110000  12.010000   ; qtot 0.668900
  111          c      4    bbb     C8    111 0.72110000  12.010000   ; qtot 1.390000
  112          o      4    bbb     O1    112 -0.61950000  16.000000   ; qtot 0.770500
  113          o      4    bbb     O2    113 -0.61950000  16.000000   ; qtot 0.151000
  114          n      4    bbb     N4    114 -0.46580000  14.010000   ; qtot -0.314800
  115         hn      4    bbb    H21    115 0.31480000   1.008000   ; qtot -0.000000
; residue    5 bbb rtp bbb q -0.0
  116         c3      5    bbb     C1    116 0.44180000  12.010000   ; qtot 0.441800
  117         h1      5    bbb     H1    117 -0.03530000   1.008000   ; qtot 0.406500
  118         h1      5    bbb     H2    118 -0.03530000   1.008000   ; qtot 0.371200
  119         c3      5    bbb     C2    119 -0.28250000  12.010000   ; qtot 0.088700
  120         h1      5    bbb     H3    120 0.15710000   1.008000   ; qtot 0.245800
  121         h1      5    bbb     H4    121 0.15710000   1.008000   ; qtot 0.402900
  122         n3      5    bbb     N1    122 -0.74090000  14.010000   ; qtot -0.338000
  123         c3      5    bbb     C3    123 0.51680000  12.010000   ; qtot 0.178800
  124         h1      5    bbb     H5    124 -0.05230000   1.008000   ; qtot 0.126500
  125         h1      5    bbb     H6    125 -0.05230000   1.008000   ; qtot 0.074200
  126         c3      5    bbb     C4    126 0.51680000  12.010000   ; qtot 0.591000
  127         h1      5    bbb     H7    127 -0.05230000   1.008000   ; qtot 0.538700
  128         h1      5    bbb     H8    128 -0.05230000   1.008000   ; qtot 0.486400
  129         c3      5    bbb     C5    129 -0.60390000  12.010000   ; qtot -0.117500
  130         hc      5    bbb     H9    130 0.16730000   1.008000   ; qtot 0.049800
  131         hc      5    bbb    H10    131 0.16730000   1.008000   ; qtot 0.217100
  132         c3      5    bbb     C6    132 -0.60390000  12.010000   ; qtot -0.386800
  133         hc      5    bbb    H11    133 0.16730000   1.008000   ; qtot -0.219500
  134         hc      5    bbb    H12    134 0.16730000   1.008000   ; qtot -0.052200
  135          c      5    bbb     C7    135 0.72110000  12.010000   ; qtot 0.668900
  136          c      5    bbb     C8    136 0.72110000  12.010000   ; qtot 1.390000
  137          o      5    bbb     O1    137 -0.61950000  16.000000   ; qtot 0.770500
  138          o      5    bbb     O2    138 -0.61950000  16.000000   ; qtot 0.151000
  139          n      5    bbb     N4    139 -0.46580000  14.010000   ; qtot -0.314800
  140         hn      5    bbb    H21    140 0.31480000   1.008000   ; qtot -0.000000
; residue    6 bbb rtp bbb q -0.0
  141         c3      6    bbb     C1    141 0.44180000  12.010000   ; qtot 0.441800
  142         h1      6    bbb     H1    142 -0.03530000   1.008000   ; qtot 0.406500
  143         h1      6    bbb     H2    143 -0.03530000   1.008000   ; qtot 0.371200
  144         c3      6    bbb     C2    144 -0.28250000  12.010000   ; qtot 0.088700
  145         h1      6    bbb     H3    145 0.15710000   1.008000   ; qtot 0.245800
  146         h1      6    bbb     H4    146 0.15710000   1.008000   ; qtot 0.402900
  147         n3      6    bbb     N1    147 -0.74090000  14.010000   ; qtot -0.338000
  148         c3      6    bbb     C3    148 0.51680000  12.010000   ; qtot 0.178800
  149         h1      6    bbb     H5    149 -0.05230000   1.008000   ; qtot 0.126500
  150         h1      6    bbb     H6    150 -0.05230000   1.008000   ; qtot 0.074200
  151         c3      6    bbb     C4    151 0.51680000  12.010000   ; qtot 0.591000
  152         h1      6    bbb     H7    152 -0.05230000   1.008000   ; qtot 0.538700
  153         h1      6    bbb     H8    153 -0.05230000   1.008000   ; qtot 0.486400
  154         c3      6    bbb     C5    154 -0.60390000  12.010000   ; qtot -0.117500
  155         hc      6    bbb     H9    155 0.16730000   1.008000   ; qtot 0.049800
  156         hc      6    bbb    H10    156 0.16730000   1.008000   ; qtot 0.217100
  157         c3      6    bbb     C6    157 -0.60390000  12.010000   ; qtot -0.386800
  158         hc      6    bbb    H11    158 0.16730000   1.008000   ; qtot -0.219500
  159         hc      6    bbb    H12    159 0.16730000   1.008000   ; qtot -0.052200
  160          c      6    bbb     C7    160 0.72110000  12.010000   ; qtot 0.668900
  161          c      6    bbb     C8    161 0.72110000  12.010000   ; qtot 1.390000
  162          o      6    bbb     O1    162 -0.61950000  16.000000   ; qtot 0.770500
  163          o      6    bbb     O2    163 -0.61950000  16.000000   ; qtot 0.151000
  164          n      6    bbb     N4    164 -0.46580000  14.010000   ; qtot -0.314800
  165         hn      6    bbb    H21    165 0.31480000   1.008000   ; qtot -0.000000
; residue    7 bbb rtp bbb q -0.0
  166         c3      7    bbb     C1    166 0.44180000  12.010000   ; qtot 0.441800
  167         h1      7    bbb     H1    167 -0.03530000   1.008000   ; qtot 0.406500
  168         h1      7    bbb     H2    168 -0.03530000   1.008000   ; qtot 0.371200
  169         c3      7    bbb     C2    169 -0.28250000  12.010000   ; qtot 0.088700
  170         h1      7    bbb     H3    170 0.15710000   1.008000   ; qtot 0.245800
  171         h1      7    bbb     H4    171 0.15710000   1.008000   ; qtot 0.402900
  172         n3      7    bbb     N1    172 -0.74090000  14.010000   ; qtot -0.338000
  173         c3      7    bbb     C3    173 0.51680000  12.010000   ; qtot 0.178800
  174         h1      7    bbb     H5    174 -0.05230000   1.008000   ; qtot 0.126500
  175         h1      7    bbb     H6    175 -0.05230000   1.008000   ; qtot 0.074200
  176         c3      7    bbb     C4    176 0.51680000  12.010000   ; qtot 0.591000
  177         h1      7    bbb     H7    177 -0.05230000   1.008000   ; qtot 0.538700
  178         h1      7    bbb     H8    178 -0.05230000   1.008000   ; qtot 0.486400
  179         c3      7    bbb     C5    179 -0.60390000  12.010000   ; qtot -0.117500
  180         hc      7    bbb     H9    180 0.16730000   1.008000   ; qtot 0.049800
  181         hc      7    bbb    H10    181 0.16730000   1.008000   ; qtot 0.217100
  182         c3      7    bbb     C6    182 -0.60390000  12.010000   ; qtot -0.386800
  183         hc      7    bbb    H11    183 0.16730000   1.008000   ; qtot -0.219500
  184         hc      7    bbb    H12    184 0.16730000   1.008000   ; qtot -0.052200
  185          c      7    bbb     C7    185 0.72110000  12.010000   ; qtot 0.668900
  186          c      7    bbb     C8    186 0.72110000  12.010000   ; qtot 1.390000
  187          o      7    bbb     O1    187 -0.61950000  16.000000   ; qtot 0.770500
  188          o      7    bbb     O2    188 -0.61950000  16.000000   ; qtot 0.151000
  189          n      7    bbb     N4    189 -0.46580000  14.010000   ; qtot -0.314800
  190         hn      7    bbb    H21    190 0.31480000   1.008000   ; qtot -0.000000
; residue    8 bbb rtp bbb q -0.0
  191         c3      8    bbb     C1    191 0.44180000  12.010000   ; qtot 0.441800
  192         h1      8    bbb     H1    192 -0.03530000   1.008000   ; qtot 0.406500
  193         h1      8    bbb     H2    193 -0.03530000   1.008000   ; qtot 0.371200
  194         c3      8    bbb     C2    194 -0.28250000  12.010000   ; qtot 0.088700
  195         h1      8    bbb     H3    195 0.15710000   1.008000   ; qtot 0.245800
  196         h1      8    bbb     H4    196 0.15710000   1.008000   ; qtot 0.402900
  197         n3      8    bbb     N1    197 -0.74090000  14.010000   ; qtot -0.338000
  198         c3      8    bbb     C3    198 0.51680000  12.010000   ; qtot 0.178800
  199         h1      8    bbb     H5    199 -0.05230000   1.008000   ; qtot 0.126500
  200         h1      8    bbb     H6    200 -0.05230000   1.008000   ; qtot 0.074200
  201         c3      8    bbb     C4    201 0.51680000  12.010000   ; qtot 0.591000
  202         h1      8    bbb     H7    202 -0.05230000   1.008000   ; qtot 0.538700
  203         h1      8    bbb     H8    203 -0.05230000   1.008000   ; qtot 0.486400
  204         c3      8    bbb     C5    204 -0.60390000  12.010000   ; qtot -0.117500
  205         hc      8    bbb     H9    205 0.16730000   1.008000   ; qtot 0.049800
  206         hc      8    bbb    H10    206 0.16730000   1.008000   ; qtot 0.217100
  207         c3      8    bbb     C6    207 -0.60390000  12.010000   ; qtot -0.386800
  208         hc      8    bbb    H11    208 0.16730000   1.008000   ; qtot -0.219500
  209         hc      8    bbb    H12    209 0.16730000   1.008000   ; qtot -0.052200
  210          c      8    bbb     C7    210 0.72110000  12.010000   ; qtot 0.668900
  211          c      8    bbb     C8    211 0.72110000  12.010000   ; qtot 1.390000
  212          o      8    bbb     O1    212 -0.61950000  16.000000   ; qtot 0.770500
  213          o      8    bbb     O2    213 -0.61950000  16.000000   ; qtot 0.151000
  214          n      8    bbb     N4    214 -0.46580000  14.010000   ; qtot -0.314800
  215         hn      8    bbb    H21    215 0.31480000   1.008000   ; qtot -0.000000
; residue    9 bbb rtp bbb q -0.0
  216         c3      9    bbb     C1    216 0.44180000  12.010000   ; qtot 0.441800
  217         h1      9    bbb     H1    217 -0.03530000   1.008000   ; qtot 0.406500
  218         h1      9    bbb     H2    218 -0.03530000   1.008000   ; qtot 0.371200
  219         c3      9    bbb     C2    219 -0.28250000  12.010000   ; qtot 0.088700
  220         h1      9    bbb     H3    220 0.15710000   1.008000   ; qtot 0.245800
  221         h1      9    bbb     H4    221 0.15710000   1.008000   ; qtot 0.402900
  222         n3      9    bbb     N1    222 -0.74090000  14.010000   ; qtot -0.338000
  223         c3      9    bbb     C3    223 0.51680000  12.010000   ; qtot 0.178800
  224         h1      9    bbb     H5    224 -0.05230000   1.008000   ; qtot 0.126500
  225         h1      9    bbb     H6    225 -0.05230000   1.008000   ; qtot 0.074200
  226         c3      9    bbb     C4    226 0.51680000  12.010000   ; qtot 0.591000
  227         h1      9    bbb     H7    227 -0.05230000   1.008000   ; qtot 0.538700
  228         h1      9    bbb     H8    228 -0.05230000   1.008000   ; qtot 0.486400
  229         c3      9    bbb     C5    229 -0.60390000  12.010000   ; qtot -0.117500
  230         hc      9    bbb     H9    230 0.16730000   1.008000   ; qtot 0.049800
  231         hc      9    bbb    H10    231 0.16730000   1.008000   ; qtot 0.217100
  232         c3      9    bbb     C6    232 -0.60390000  12.010000   ; qtot -0.386800
  233         hc      9    bbb    H11    233 0.16730000   1.008000   ; qtot -0.219500
  234         hc      9    bbb    H12    234 0.16730000   1.008000   ; qtot -0.052200
  235          c      9    bbb     C7    235 0.72110000  12.010000   ; qtot 0.668900
  236          c      9    bbb     C8    236 0.72110000  12.010000   ; qtot 1.390000
  237          o      9    bbb     O1    237 -0.61950000  16.000000   ; qtot 0.770500
  238          o      9    bbb     O2    238 -0.61950000  16.000000   ; qtot 0.151000
  239          n      9    bbb     N4    239 -0.46580000  14.010000   ; qtot -0.314800
  240         hn      9    bbb    H21    240 0.31480000   1.008000   ; qtot -0.000000
; residue   10 bbb rtp bbb q -0.0
  241         c3     10    bbb     C1    241 0.44180000  12.010000   ; qtot 0.441800
  242         h1     10    bbb     H1    242 -0.03530000   1.008000   ; qtot 0.406500
  243         h1     10    bbb     H2    243 -0.03530000   1.008000   ; qtot 0.371200
  244         c3     10    bbb     C2    244 -0.28250000  12.010000   ; qtot 0.088700
  245         h1     10    bbb     H3    245 0.15710000   1.008000   ; qtot 0.245800
  246         h1     10    bbb     H4    246 0.15710000   1.008000   ; qtot 0.402900
  247         n3     10    bbb     N1    247 -0.74090000  14.010000   ; qtot -0.338000
  248         c3     10    bbb     C3    248 0.51680000  12.010000   ; qtot 0.178800
  249         h1     10    bbb     H5    249 -0.05230000   1.008000   ; qtot 0.126500
  250         h1     10    bbb     H6    250 -0.05230000   1.008000   ; qtot 0.074200
  251         c3     10    bbb     C4    251 0.51680000  12.010000   ; qtot 0.591000
  252         h1     10    bbb     H7    252 -0.05230000   1.008000   ; qtot 0.538700
  253         h1     10    bbb     H8    253 -0.05230000   1.008000   ; qtot 0.486400
  254         c3     10    bbb     C5    254 -0.60390000  12.010000   ; qtot -0.117500
  255         hc     10    bbb     H9    255 0.16730000   1.008000   ; qtot 0.049800
  256         hc     10    bbb    H10    256 0.16730000   1.008000   ; qtot 0.217100
  257         c3     10    bbb     C6    257 -0.60390000  12.010000   ; qtot -0.386800
  258         hc     10    bbb    H11    258 0.16730000   1.008000   ; qtot -0.219500
  259         hc     10    bbb    H12    259 0.16730000   1.008000   ; qtot -0.052200
  260          c     10    bbb     C7    260 0.72110000  12.010000   ; qtot 0.668900
  261          c     10    bbb     C8    261 0.72110000  12.010000   ; qtot 1.390000
  262          o     10    bbb     O1    262 -0.61950000  16.000000   ; qtot 0.770500
  263          o     10    bbb     O2    263 -0.61950000  16.000000   ; qtot 0.151000
  264          n     10    bbb     N4    264 -0.46580000  14.010000   ; qtot -0.314800
  265         hn     10    bbb    H21    265 0.31480000   1.008000   ; qtot -0.000000
; residue   11 bbb rtp bbb q -0.0
  266         c3     11    bbb     C1    266 0.44180000  12.010000   ; qtot 0.441800
  267         h1     11    bbb     H1    267 -0.03530000   1.008000   ; qtot 0.406500
  268         h1     11    bbb     H2    268 -0.03530000   1.008000   ; qtot 0.371200
  269         c3     11    bbb     C2    269 -0.28250000  12.010000   ; qtot 0.088700
  270         h1     11    bbb     H3    270 0.15710000   1.008000   ; qtot 0.245800
  271         h1     11    bbb     H4    271 0.15710000   1.008000   ; qtot 0.402900
  272         n3     11    bbb     N1    272 -0.74090000  14.010000   ; qtot -0.338000
  273         c3     11    bbb     C3    273 0.51680000  12.010000   ; qtot 0.178800
  274         h1     11    bbb     H5    274 -0.05230000   1.008000   ; qtot 0.126500
  275         h1     11    bbb     H6    275 -0.05230000   1.008000   ; qtot 0.074200
  276         c3     11    bbb     C4    276 0.51680000  12.010000   ; qtot 0.591000
  277         h1     11    bbb     H7    277 -0.05230000   1.008000   ; qtot 0.538700
  278         h1     11    bbb     H8    278 -0.05230000   1.008000   ; qtot 0.486400
  279         c3     11    bbb     C5    279 -0.60390000  12.010000   ; qtot -0.117500
  280         hc     11    bbb     H9    280 0.16730000   1.008000   ; qtot 0.049800
  281         hc     11    bbb    H10    281 0.16730000   1.008000   ; qtot 0.217100
  282         c3     11    bbb     C6    282 -0.60390000  12.010000   ; qtot -0.386800
  283         hc     11    bbb    H11    283 0.16730000   1.008000   ; qtot -0.219500
  284         hc     11    bbb    H12    284 0.16730000   1.008000   ; qtot -0.052200
  285          c     11    bbb     C7    285 0.72110000  12.010000   ; qtot 0.668900
  286          c     11    bbb     C8    286 0.72110000  12.010000   ; qtot 1.390000
  287          o     11    bbb     O1    287 -0.61950000  16.000000   ; qtot 0.770500
  288          o     11    bbb     O2    288 -0.61950000  16.000000   ; qtot 0.151000
  289          n     11    bbb     N4    289 -0.46580000  14.010000   ; qtot -0.314800
  290         hn     11    bbb    H21    290 0.31480000   1.008000   ; qtot -0.000000
; residue   12 bbb rtp bbb q -0.0
  291         c3     12    bbb     C1    291 0.44180000  12.010000   ; qtot 0.441800
  292         h1     12    bbb     H1    292 -0.03530000   1.008000   ; qtot 0.406500
  293         h1     12    bbb     H2    293 -0.03530000   1.008000   ; qtot 0.371200
  294         c3     12    bbb     C2    294 -0.28250000  12.010000   ; qtot 0.088700
  295         h1     12    bbb     H3    295 0.15710000   1.008000   ; qtot 0.245800
  296         h1     12    bbb     H4    296 0.15710000   1.008000   ; qtot 0.402900
  297         n3     12    bbb     N1    297 -0.74090000  14.010000   ; qtot -0.338000
  298         c3     12    bbb     C3    298 0.51680000  12.010000   ; qtot 0.178800
  299         h1     12    bbb     H5    299 -0.05230000   1.008000   ; qtot 0.126500
  300         h1     12    bbb     H6    300 -0.05230000   1.008000   ; qtot 0.074200
  301         c3     12    bbb     C4    301 0.51680000  12.010000   ; qtot 0.591000
  302         h1     12    bbb     H7    302 -0.05230000   1.008000   ; qtot 0.538700
  303         h1     12    bbb     H8    303 -0.05230000   1.008000   ; qtot 0.486400
  304         c3     12    bbb     C5    304 -0.60390000  12.010000   ; qtot -0.117500
  305         hc     12    bbb     H9    305 0.16730000   1.008000   ; qtot 0.049800
  306         hc     12    bbb    H10    306 0.16730000   1.008000   ; qtot 0.217100
  307         c3     12    bbb     C6    307 -0.60390000  12.010000   ; qtot -0.386800
  308         hc     12    bbb    H11    308 0.16730000   1.008000   ; qtot -0.219500
  309         hc     12    bbb    H12    309 0.16730000   1.008000   ; qtot -0.052200
  310          c     12    bbb     C7    310 0.72110000  12.010000   ; qtot 0.668900
  311          c     12    bbb     C8    311 0.72110000  12.010000   ; qtot 1.390000
  312          o     12    bbb     O1    312 -0.61950000  16.000000   ; qtot 0.770500
  313          o     12    bbb     O2    313 -0.61950000  16.000000   ; qtot 0.151000
  314          n     12    bbb     N4    314 -0.46580000  14.010000   ; qtot -0.314800
  315         hn     12    bbb    H21    315 0.31480000   1.008000   ; qtot -0.000000
; residue   13 bbb rtp bbb q -0.0
  316         c3     13    bbb     C1    316 0.44180000  12.010000   ; qtot 0.441800
  317         h1     13    bbb     H1    317 -0.03530000   1.008000   ; qtot 0.406500
  318         h1     13    bbb     H2    318 -0.03530000   1.008000   ; qtot 0.371200
  319         c3     13    bbb     C2    319 -0.28250000  12.010000   ; qtot 0.088700
  320         h1     13    bbb     H3    320 0.15710000   1.008000   ; qtot 0.245800
  321         h1     13    bbb     H4    321 0.15710000   1.008000   ; qtot 0.402900
  322         n3     13    bbb     N1    322 -0.74090000  14.010000   ; qtot -0.338000
  323         c3     13    bbb     C3    323 0.51680000  12.010000   ; qtot 0.178800
  324         h1     13    bbb     H5    324 -0.05230000   1.008000   ; qtot 0.126500
  325         h1     13    bbb     H6    325 -0.05230000   1.008000   ; qtot 0.074200
  326         c3     13    bbb     C4    326 0.51680000  12.010000   ; qtot 0.591000
  327         h1     13    bbb     H7    327 -0.05230000   1.008000   ; qtot 0.538700
  328         h1     13    bbb     H8    328 -0.05230000   1.008000   ; qtot 0.486400
  329         c3     13    bbb     C5    329 -0.60390000  12.010000   ; qtot -0.117500
  330         hc     13    bbb     H9    330 0.16730000   1.008000   ; qtot 0.049800
  331         hc     13    bbb    H10    331 0.16730000   1.008000   ; qtot 0.217100
  332         c3     13    bbb     C6    332 -0.60390000  12.010000   ; qtot -0.386800
  333         hc     13    bbb    H11    333 0.16730000   1.008000   ; qtot -0.219500
  334         hc     13    bbb    H12    334 0.16730000   1.008000   ; qtot -0.052200
  335          c     13    bbb     C7    335 0.72110000  12.010000   ; qtot 0.668900
  336          c     13    bbb     C8    336 0.72110000  12.010000   ; qtot 1.390000
  337          o     13    bbb     O1    337 -0.61950000  16.000000   ; qtot 0.770500
  338          o     13    bbb     O2    338 -0.61950000  16.000000   ; qtot 0.151000
  339          n     13    bbb     N4    339 -0.46580000  14.010000   ; qtot -0.314800
  340         hn     13    bbb    H21    340 0.31480000   1.008000   ; qtot -0.000000
; residue   14 bbb rtp bbb q -0.0
  341         c3     14    bbb     C1    341 0.44180000  12.010000   ; qtot 0.441800
  342         h1     14    bbb     H1    342 -0.03530000   1.008000   ; qtot 0.406500
  343         h1     14    bbb     H2    343 -0.03530000   1.008000   ; qtot 0.371200
  344         c3     14    bbb     C2    344 -0.28250000  12.010000   ; qtot 0.088700
  345         h1     14    bbb     H3    345 0.15710000   1.008000   ; qtot 0.245800
  346         h1     14    bbb     H4    346 0.15710000   1.008000   ; qtot 0.402900
  347         n3     14    bbb     N1    347 -0.74090000  14.010000   ; qtot -0.338000
  348         c3     14    bbb     C3    348 0.51680000  12.010000   ; qtot 0.178800
  349         h1     14    bbb     H5    349 -0.05230000   1.008000   ; qtot 0.126500
  350         h1     14    bbb     H6    350 -0.05230000   1.008000   ; qtot 0.074200
  351         c3     14    bbb     C4    351 0.51680000  12.010000   ; qtot 0.591000
  352         h1     14    bbb     H7    352 -0.05230000   1.008000   ; qtot 0.538700
  353         h1     14    bbb     H8    353 -0.05230000   1.008000   ; qtot 0.486400
  354         c3     14    bbb     C5    354 -0.60390000  12.010000   ; qtot -0.117500
  355         hc     14    bbb     H9    355 0.16730000   1.008000   ; qtot 0.049800
  356         hc     14    bbb    H10    356 0.16730000   1.008000   ; qtot 0.217100
  357         c3     14    bbb     C6    357 -0.60390000  12.010000   ; qtot -0.386800
  358         hc     14    bbb    H11    358 0.16730000   1.008000   ; qtot -0.219500
  359         hc     14    bbb    H12    359 0.16730000   1.008000   ; qtot -0.052200
  360          c     14    bbb     C7    360 0.72110000  12.010000   ; qtot 0.668900
  361          c     14    bbb     C8    361 0.72110000  12.010000   ; qtot 1.390000
  362          o     14    bbb     O1    362 -0.61950000  16.000000   ; qtot 0.770500
  363          o     14    bbb     O2    363 -0.61950000  16.000000   ; qtot 0.151000
  364          n     14    bbb     N4    364 -0.46580000  14.010000   ; qtot -0.314800
  365         hn     14    bbb    H21    365 0.31480000   1.008000   ; qtot -0.000000
; residue   15 bbb rtp bbb q -0.0
  366         c3     15    bbb     C1    366 0.44180000  12.010000   ; qtot 0.441800
  367         h1     15    bbb     H1    367 -0.03530000   1.008000   ; qtot 0.406500
  368         h1     15    bbb     H2    368 -0.03530000   1.008000   ; qtot 0.371200
  369         c3     15    bbb     C2    369 -0.28250000  12.010000   ; qtot 0.088700
  370         h1     15    bbb     H3    370 0.15710000   1.008000   ; qtot 0.245800
  371         h1     15    bbb     H4    371 0.15710000   1.008000   ; qtot 0.402900
  372         n3     15    bbb     N1    372 -0.74090000  14.010000   ; qtot -0.338000
  373         c3     15    bbb     C3    373 0.51680000  12.010000   ; qtot 0.178800
  374         h1     15    bbb     H5    374 -0.05230000   1.008000   ; qtot 0.126500
  375         h1     15    bbb     H6    375 -0.05230000   1.008000   ; qtot 0.074200
  376         c3     15    bbb     C4    376 0.51680000  12.010000   ; qtot 0.591000
  377         h1     15    bbb     H7    377 -0.05230000   1.008000   ; qtot 0.538700
  378         h1     15    bbb     H8    378 -0.05230000   1.008000   ; qtot 0.486400
  379         c3     15    bbb     C5    379 -0.60390000  12.010000   ; qtot -0.117500
  380         hc     15    bbb     H9    380 0.16730000   1.008000   ; qtot 0.049800
  381         hc     15    bbb    H10    381 0.16730000   1.008000   ; qtot 0.217100
  382         c3     15    bbb     C6    382 -0.60390000  12.010000   ; qtot -0.386800
  383         hc     15    bbb    H11    383 0.16730000   1.008000   ; qtot -0.219500
  384         hc     15    bbb    H12    384 0.16730000   1.008000   ; qtot -0.052200
  385          c     15    bbb     C7    385 0.72110000  12.010000   ; qtot 0.668900
  386          c     15    bbb     C8    386 0.72110000  12.010000   ; qtot 1.390000
  387          o     15    bbb     O1    387 -0.61950000  16.000000   ; qtot 0.770500
  388          o     15    bbb     O2    388 -0.61950000  16.000000   ; qtot 0.151000
  389          n     15    bbb     N4    389 -0.46580000  14.010000   ; qtot -0.314800
  390         hn     15    bbb    H21    390 0.31480000   1.008000   ; qtot -0.000000
; residue   16 bbb rtp bbb q -0.0
  391         c3     16    bbb     C1    391 0.44180000  12.010000   ; qtot 0.441800
  392         h1     16    bbb     H1    392 -0.03530000   1.008000   ; qtot 0.406500
  393         h1     16    bbb     H2    393 -0.03530000   1.008000   ; qtot 0.371200
  394         c3     16    bbb     C2    394 -0.28250000  12.010000   ; qtot 0.088700
  395         h1     16    bbb     H3    395 0.15710000   1.008000   ; qtot 0.245800
  396         h1     16    bbb     H4    396 0.15710000   1.008000   ; qtot 0.402900
  397         n3     16    bbb     N1    397 -0.74090000  14.010000   ; qtot -0.338000
  398         c3     16    bbb     C3    398 0.51680000  12.010000   ; qtot 0.178800
  399         h1     16    bbb     H5    399 -0.05230000   1.008000   ; qtot 0.126500
  400         h1     16    bbb     H6    400 -0.05230000   1.008000   ; qtot 0.074200
  401         c3     16    bbb     C4    401 0.51680000  12.010000   ; qtot 0.591000
  402         h1     16    bbb     H7    402 -0.05230000   1.008000   ; qtot 0.538700
  403         h1     16    bbb     H8    403 -0.05230000   1.008000   ; qtot 0.486400
  404         c3     16    bbb     C5    404 -0.60390000  12.010000   ; qtot -0.117500
  405         hc     16    bbb     H9    405 0.16730000   1.008000   ; qtot 0.049800
  406         hc     16    bbb    H10    406 0.16730000   1.008000   ; qtot 0.217100
  407         c3     16    bbb     C6    407 -0.60390000  12.010000   ; qtot -0.386800
  408         hc     16    bbb    H11    408 0.16730000   1.008000   ; qtot -0.219500
  409         hc     16    bbb    H12    409 0.16730000   1.008000   ; qtot -0.052200
  410          c     16    bbb     C7    410 0.72110000  12.010000   ; qtot 0.668900
  411          c     16    bbb     C8    411 0.72110000  12.010000   ; qtot 1.390000
  412          o     16    bbb     O1    412 -0.61950000  16.000000   ; qtot 0.770500
  413          o     16    bbb     O2    413 -0.61950000  16.000000   ; qtot 0.151000
  414          n     16    bbb     N4    414 -0.46580000  14.010000   ; qtot -0.314800
  415         hn     16    bbb    H21    415 0.31480000   1.008000   ; qtot -0.000000
; residue   17 bbb rtp bbb q -0.0
  416         c3     17    bbb     C1    416 0.44180000  12.010000   ; qtot 0.441800
  417         h1     17    bbb     H1    417 -0.03530000   1.008000   ; qtot 0.406500
  418         h1     17    bbb     H2    418 -0.03530000   1.008000   ; qtot 0.371200
  419         c3     17    bbb     C2    419 -0.28250000  12.010000   ; qtot 0.088700
  420         h1     17    bbb     H3    420 0.15710000   1.008000   ; qtot 0.245800
  421         h1     17    bbb     H4    421 0.15710000   1.008000   ; qtot 0.402900
  422         n3     17    bbb     N1    422 -0.74090000  14.010000   ; qtot -0.338000
  423         c3     17    bbb     C3    423 0.51680000  12.010000   ; qtot 0.178800
  424         h1     17    bbb     H5    424 -0.05230000   1.008000   ; qtot 0.126500
  425         h1     17    bbb     H6    425 -0.05230000   1.008000   ; qtot 0.074200
  426         c3     17    bbb     C4    426 0.51680000  12.010000   ; qtot 0.591000
  427         h1     17    bbb     H7    427 -0.05230000   1.008000   ; qtot 0.538700
  428         h1     17    bbb     H8    428 -0.05230000   1.008000   ; qtot 0.486400
  429         c3     17    bbb     C5    429 -0.60390000  12.010000   ; qtot -0.117500
  430         hc     17    bbb     H9    430 0.16730000   1.008000   ; qtot 0.049800
  431         hc     17    bbb    H10    431 0.16730000   1.008000   ; qtot 0.217100
  432         c3     17    bbb     C6    432 -0.60390000  12.010000   ; qtot -0.386800
  433         hc     17    bbb    H11    433 0.16730000   1.008000   ; qtot -0.219500
  434         hc     17    bbb    H12    434 0.16730000   1.008000   ; qtot -0.052200
  435          c     17    bbb     C7    435 0.72110000  12.010000   ; qtot 0.668900
  436          c     17    bbb     C8    436 0.72110000  12.010000   ; qtot 1.390000
  437          o     17    bbb     O1    437 -0.61950000  16.000000   ; qtot 0.770500
  438          o     17    bbb     O2    438 -0.61950000  16.000000   ; qtot 0.151000
  439          n     17    bbb     N4    439 -0.46580000  14.010000   ; qtot -0.314800
  440         hn     17    bbb    H21    440 0.31480000   1.008000   ; qtot -0.000000
; residue   18 bbb rtp bbb q -0.0
  441         c3     18    bbb     C1    441 0.44180000  12.010000   ; qtot 0.441800
  442         h1     18    bbb     H1    442 -0.03530000   1.008000   ; qtot 0.406500
  443         h1     18    bbb     H2    443 -0.03530000   1.008000   ; qtot 0.371200
  444         c3     18    bbb     C2    444 -0.28250000  12.010000   ; qtot 0.088700
  445         h1     18    bbb     H3    445 0.15710000   1.008000   ; qtot 0.245800
  446         h1     18    bbb     H4    446 0.15710000   1.008000   ; qtot 0.402900
  447         n3     18    bbb     N1    447 -0.74090000  14.010000   ; qtot -0.338000
  448         c3     18    bbb     C3    448 0.51680000  12.010000   ; qtot 0.178800
  449         h1     18    bbb     H5    449 -0.05230000   1.008000   ; qtot 0.126500
  450         h1     18    bbb     H6    450 -0.05230000   1.008000   ; qtot 0.074200
  451         c3     18    bbb     C4    451 0.51680000  12.010000   ; qtot 0.591000
  452         h1     18    bbb     H7    452 -0.05230000   1.008000   ; qtot 0.538700
  453         h1     18    bbb     H8    453 -0.05230000   1.008000   ; qtot 0.486400
  454         c3     18    bbb     C5    454 -0.60390000  12.010000   ; qtot -0.117500
  455         hc     18    bbb     H9    455 0.16730000   1.008000   ; qtot 0.049800
  456         hc     18    bbb    H10    456 0.16730000   1.008000   ; qtot 0.217100
  457         c3     18    bbb     C6    457 -0.60390000  12.010000   ; qtot -0.386800
  458         hc     18    bbb    H11    458 0.16730000   1.008000   ; qtot -0.219500
  459         hc     18    bbb    H12    459 0.16730000   1.008000   ; qtot -0.052200
  460          c     18    bbb     C7    460 0.72110000  12.010000   ; qtot 0.668900
  461          c     18    bbb     C8    461 0.72110000  12.010000   ; qtot 1.390000
  462          o     18    bbb     O1    462 -0.61950000  16.000000   ; qtot 0.770500
  463          o     18    bbb     O2    463 -0.61950000  16.000000   ; qtot 0.151000
  464          n     18    bbb     N4    464 -0.46580000  14.010000   ; qtot -0.314800
  465         hn     18    bbb    H21    465 0.31480000   1.008000   ; qtot -0.000000
; residue   19 bbb rtp bbb q -0.0
  466         c3     19    bbb     C1    466 0.44180000  12.010000   ; qtot 0.441800
  467         h1     19    bbb     H1    467 -0.03530000   1.008000   ; qtot 0.406500
  468         h1     19    bbb     H2    468 -0.03530000   1.008000   ; qtot 0.371200
  469         c3     19    bbb     C2    469 -0.28250000  12.010000   ; qtot 0.088700
  470         h1     19    bbb     H3    470 0.15710000   1.008000   ; qtot 0.245800
  471         h1     19    bbb     H4    471 0.15710000   1.008000   ; qtot 0.402900
  472         n3     19    bbb     N1    472 -0.74090000  14.010000   ; qtot -0.338000
  473         c3     19    bbb     C3    473 0.51680000  12.010000   ; qtot 0.178800
  474         h1     19    bbb     H5    474 -0.05230000   1.008000   ; qtot 0.126500
  475         h1     19    bbb     H6    475 -0.05230000   1.008000   ; qtot 0.074200
  476         c3     19    bbb     C4    476 0.51680000  12.010000   ; qtot 0.591000
  477         h1     19    bbb     H7    477 -0.05230000   1.008000   ; qtot 0.538700
  478         h1     19    bbb     H8    478 -0.05230000   1.008000   ; qtot 0.486400
  479         c3     19    bbb     C5    479 -0.60390000  12.010000   ; qtot -0.117500
  480         hc     19    bbb     H9    480 0.16730000   1.008000   ; qtot 0.049800
  481         hc     19    bbb    H10    481 0.16730000   1.008000   ; qtot 0.217100
  482         c3     19    bbb     C6    482 -0.60390000  12.010000   ; qtot -0.386800
  483         hc     19    bbb    H11    483 0.16730000   1.008000   ; qtot -0.219500
  484         hc     19    bbb    H12    484 0.16730000   1.008000   ; qtot -0.052200
  485          c     19    bbb     C7    485 0.72110000  12.010000   ; qtot 0.668900
  486          c     19    bbb     C8    486 0.72110000  12.010000   ; qtot 1.390000
  487          o     19    bbb     O1    487 -0.61950000  16.000000   ; qtot 0.770500
  488          o     19    bbb     O2    488 -0.61950000  16.000000   ; qtot 0.151000
  489          n     19    bbb     N4    489 -0.46580000  14.010000   ; qtot -0.314800
  490         hn     19    bbb    H21    490 0.31480000   1.008000   ; qtot -0.000000
; residue   20 bbb rtp bbb q -0.0
  491         c3     20    bbb     C1    491 0.44180000  12.010000   ; qtot 0.441800
  492         h1     20    bbb     H1    492 -0.03530000   1.008000   ; qtot 0.406500
  493         h1     20    bbb     H2    493 -0.03530000   1.008000   ; qtot 0.371200
  494         c3     20    bbb     C2    494 -0.28250000  12.010000   ; qtot 0.088700
  495         h1     20    bbb     H3    495 0.15710000   1.008000   ; qtot 0.245800
  496         h1     20    bbb     H4    496 0.15710000   1.008000   ; qtot 0.402900
  497         n3     20    bbb     N1    497 -0.74090000  14.010000   ; qtot -0.338000
  498         c3     20    bbb     C3    498 0.51680000  12.010000   ; qtot 0.178800
  499         h1     20    bbb     H5    499 -0.05230000   1.008000   ; qtot 0.126500
  500         h1     20    bbb     H6    500 -0.05230000   1.008000   ; qtot 0.074200
  501         c3     20    bbb     C4    501 0.51680000  12.010000   ; qtot 0.591000
  502         h1     20    bbb     H7    502 -0.05230000   1.008000   ; qtot 0.538700
  503         h1     20    bbb     H8    503 -0.05230000   1.008000   ; qtot 0.486400
  504         c3     20    bbb     C5    504 -0.60390000  12.010000   ; qtot -0.117500
  505         hc     20    bbb     H9    505 0.16730000   1.008000   ; qtot 0.049800
  506         hc     20    bbb    H10    506 0.16730000   1.008000   ; qtot 0.217100
  507         c3     20    bbb     C6    507 -0.60390000  12.010000   ; qtot -0.386800
  508         hc     20    bbb    H11    508 0.16730000   1.008000   ; qtot -0.219500
  509         hc     20    bbb    H12    509 0.16730000   1.008000   ; qtot -0.052200
  510          c     20    bbb     C7    510 0.72110000  12.010000   ; qtot 0.668900
  511          c     20    bbb     C8    511 0.72110000  12.010000   ; qtot 1.390000
  512          o     20    bbb     O1    512 -0.61950000  16.000000   ; qtot 0.770500
  513          o     20    bbb     O2    513 -0.61950000  16.000000   ; qtot 0.151000
  514          n     20    bbb     N4    514 -0.46580000  14.010000   ; qtot -0.314800
  515         hn     20    bbb    H21    515 0.31480000   1.008000   ; qtot -0.000000
; residue   21 bbb rtp bbb q -0.0
  516         c3     21    bbb     C1    516 0.44180000  12.010000   ; qtot 0.441800
  517         h1     21    bbb     H1    517 -0.03530000   1.008000   ; qtot 0.406500
  518         h1     21    bbb     H2    518 -0.03530000   1.008000   ; qtot 0.371200
  519         c3     21    bbb     C2    519 -0.28250000  12.010000   ; qtot 0.088700
  520         h1     21    bbb     H3    520 0.15710000   1.008000   ; qtot 0.245800
  521         h1     21    bbb     H4    521 0.15710000   1.008000   ; qtot 0.402900
  522         n3     21    bbb     N1    522 -0.74090000  14.010000   ; qtot -0.338000
  523         c3     21    bbb     C3    523 0.51680000  12.010000   ; qtot 0.178800
  524         h1     21    bbb     H5    524 -0.05230000   1.008000   ; qtot 0.126500
  525         h1     21    bbb     H6    525 -0.05230000   1.008000   ; qtot 0.074200
  526         c3     21    bbb     C4    526 0.51680000  12.010000   ; qtot 0.591000
  527         h1     21    bbb     H7    527 -0.05230000   1.008000   ; qtot 0.538700
  528         h1     21    bbb     H8    528 -0.05230000   1.008000   ; qtot 0.486400
  529         c3     21    bbb     C5    529 -0.60390000  12.010000   ; qtot -0.117500
  530         hc     21    bbb     H9    530 0.16730000   1.008000   ; qtot 0.049800
  531         hc     21    bbb    H10    531 0.16730000   1.008000   ; qtot 0.217100
  532         c3     21    bbb     C6    532 -0.60390000  12.010000   ; qtot -0.386800
  533         hc     21    bbb    H11    533 0.16730000   1.008000   ; qtot -0.219500
  534         hc     21    bbb    H12    534 0.16730000   1.008000   ; qtot -0.052200
  535          c     21    bbb     C7    535 0.72110000  12.010000   ; qtot 0.668900
  536          c     21    bbb     C8    536 0.72110000  12.010000   ; qtot 1.390000
  537          o     21    bbb     O1    537 -0.61950000  16.000000   ; qtot 0.770500
  538          o     21    bbb     O2    538 -0.61950000  16.000000   ; qtot 0.151000
  539          n     21    bbb     N4    539 -0.46580000  14.010000   ; qtot -0.314800
  540         hn     21    bbb    H21    540 0.31480000   1.008000   ; qtot -0.000000
; residue   22 bbb rtp bbb q -0.0
  541         c3     22    bbb     C1    541 0.44180000  12.010000   ; qtot 0.441800
  542         h1     22    bbb     H1    542 -0.03530000   1.008000   ; qtot 0.406500
  543         h1     22    bbb     H2    543 -0.03530000   1.008000   ; qtot 0.371200
  544         c3     22    bbb     C2    544 -0.28250000  12.010000   ; qtot 0.088700
  545         h1     22    bbb     H3    545 0.15710000   1.008000   ; qtot 0.245800
  546         h1     22    bbb     H4    546 0.15710000   1.008000   ; qtot 0.402900
  547         n3     22    bbb     N1    547 -0.74090000  14.010000   ; qtot -0.338000
  548         c3     22    bbb     C3    548 0.51680000  12.010000   ; qtot 0.178800
  549         h1     22    bbb     H5    549 -0.05230000   1.008000   ; qtot 0.126500
  550         h1     22    bbb     H6    550 -0.05230000   1.008000   ; qtot 0.074200
  551         c3     22    bbb     C4    551 0.51680000  12.010000   ; qtot 0.591000
  552         h1     22    bbb     H7    552 -0.05230000   1.008000   ; qtot 0.538700
  553         h1     22    bbb     H8    553 -0.05230000   1.008000   ; qtot 0.486400
  554         c3     22    bbb     C5    554 -0.60390000  12.010000   ; qtot -0.117500
  555         hc     22    bbb     H9    555 0.16730000   1.008000   ; qtot 0.049800
  556         hc     22    bbb    H10    556 0.16730000   1.008000   ; qtot 0.217100
  557         c3     22    bbb     C6    557 -0.60390000  12.010000   ; qtot -0.386800
  558         hc     22    bbb    H11    558 0.16730000   1.008000   ; qtot -0.219500
  559         hc     22    bbb    H12    559 0.16730000   1.008000   ; qtot -0.052200
  560          c     22    bbb     C7    560 0.72110000  12.010000   ; qtot 0.668900
  561          c     22    bbb     C8    561 0.72110000  12.010000   ; qtot 1.390000
  562          o     22    bbb     O1    562 -0.61950000  16.000000   ; qtot 0.770500
  563          o     22    bbb     O2    563 -0.61950000  16.000000   ; qtot 0.151000
  564          n     22    bbb     N4    564 -0.46580000  14.010000   ; qtot -0.314800
  565         hn     22    bbb    H21    565 0.31480000   1.008000   ; qtot -0.000000
; residue   23 bbb rtp bbb q -0.0
  566         c3     23    bbb     C1    566 0.44180000  12.010000   ; qtot 0.441800
  567         h1     23    bbb     H1    567 -0.03530000   1.008000   ; qtot 0.406500
  568         h1     23    bbb     H2    568 -0.03530000   1.008000   ; qtot 0.371200
  569         c3     23    bbb     C2    569 -0.28250000  12.010000   ; qtot 0.088700
  570         h1     23    bbb     H3    570 0.15710000   1.008000   ; qtot 0.245800
  571         h1     23    bbb     H4    571 0.15710000   1.008000   ; qtot 0.402900
  572         n3     23    bbb     N1    572 -0.74090000  14.010000   ; qtot -0.338000
  573         c3     23    bbb     C3    573 0.51680000  12.010000   ; qtot 0.178800
  574         h1     23    bbb     H5    574 -0.05230000   1.008000   ; qtot 0.126500
  575         h1     23    bbb     H6    575 -0.05230000   1.008000   ; qtot 0.074200
  576         c3     23    bbb     C4    576 0.51680000  12.010000   ; qtot 0.591000
  577         h1     23    bbb     H7    577 -0.05230000   1.008000   ; qtot 0.538700
  578         h1     23    bbb     H8    578 -0.05230000   1.008000   ; qtot 0.486400
  579         c3     23    bbb     C5    579 -0.60390000  12.010000   ; qtot -0.117500
  580         hc     23    bbb     H9    580 0.16730000   1.008000   ; qtot 0.049800
  581         hc     23    bbb    H10    581 0.16730000   1.008000   ; qtot 0.217100
  582         c3     23    bbb     C6    582 -0.60390000  12.010000   ; qtot -0.386800
  583         hc     23    bbb    H11    583 0.16730000   1.008000   ; qtot -0.219500
  584         hc     23    bbb    H12    584 0.16730000   1.008000   ; qtot -0.052200
  585          c     23    bbb     C7    585 0.72110000  12.010000   ; qtot 0.668900
  586          c     23    bbb     C8    586 0.72110000  12.010000   ; qtot 1.390000
  587          o     23    bbb     O1    587 -0.61950000  16.000000   ; qtot 0.770500
  588          o     23    bbb     O2    588 -0.61950000  16.000000   ; qtot 0.151000
  589          n     23    bbb     N4    589 -0.46580000  14.010000   ; qtot -0.314800
  590         hn     23    bbb    H21    590 0.31480000   1.008000   ; qtot -0.000000
; residue   24 bbb rtp bbb q -0.0
  591         c3     24    bbb     C1    591 0.44180000  12.010000   ; qtot 0.441800
  592         h1     24    bbb     H1    592 -0.03530000   1.008000   ; qtot 0.406500
  593         h1     24    bbb     H2    593 -0.03530000   1.008000   ; qtot 0.371200
  594         c3     24    bbb     C2    594 -0.28250000  12.010000   ; qtot 0.088700
  595         h1     24    bbb     H3    595 0.15710000   1.008000   ; qtot 0.245800
  596         h1     24    bbb     H4    596 0.15710000   1.008000   ; qtot 0.402900
  597         n3     24    bbb     N1    597 -0.74090000  14.010000   ; qtot -0.338000
  598         c3     24    bbb     C3    598 0.51680000  12.010000   ; qtot 0.178800
  599         h1     24    bbb     H5    599 -0.05230000   1.008000   ; qtot 0.126500
  600         h1     24    bbb     H6    600 -0.05230000   1.008000   ; qtot 0.074200
  601         c3     24    bbb     C4    601 0.51680000  12.010000   ; qtot 0.591000
  602         h1     24    bbb     H7    602 -0.05230000   1.008000   ; qtot 0.538700
  603         h1     24    bbb     H8    603 -0.05230000   1.008000   ; qtot 0.486400
  604         c3     24    bbb     C5    604 -0.60390000  12.010000   ; qtot -0.117500
  605         hc     24    bbb     H9    605 0.16730000   1.008000   ; qtot 0.049800
  606         hc     24    bbb    H10    606 0.16730000   1.008000   ; qtot 0.217100
  607         c3     24    bbb     C6    607 -0.60390000  12.010000   ; qtot -0.386800
  608         hc     24    bbb    H11    608 0.16730000   1.008000   ; qtot -0.219500
  609         hc     24    bbb    H12    609 0.16730000   1.008000   ; qtot -0.052200
  610          c     24    bbb     C7    610 0.72110000  12.010000   ; qtot 0.668900
  611          c     24    bbb     C8    611 0.72110000  12.010000   ; qtot 1.390000
  612          o     24    bbb     O1    612 -0.61950000  16.000000   ; qtot 0.770500
  613          o     24    bbb     O2    613 -0.61950000  16.000000   ; qtot 0.151000
  614          n     24    bbb     N4    614 -0.46580000  14.010000   ; qtot -0.314800
  615         hn     24    bbb    H21    615 0.31480000   1.008000   ; qtot -0.000000
; residue   25 bbb rtp bbb q -0.0
  616         c3     25    bbb     C1    616 0.44180000  12.010000   ; qtot 0.441800
  617         h1     25    bbb     H1    617 -0.03530000   1.008000   ; qtot 0.406500
  618         h1     25    bbb     H2    618 -0.03530000   1.008000   ; qtot 0.371200
  619         c3     25    bbb     C2    619 -0.28250000  12.010000   ; qtot 0.088700
  620         h1     25    bbb     H3    620 0.15710000   1.008000   ; qtot 0.245800
  621         h1     25    bbb     H4    621 0.15710000   1.008000   ; qtot 0.402900
  622         n3     25    bbb     N1    622 -0.74090000  14.010000   ; qtot -0.338000
  623         c3     25    bbb     C3    623 0.51680000  12.010000   ; qtot 0.178800
  624         h1     25    bbb     H5    624 -0.05230000   1.008000   ; qtot 0.126500
  625         h1     25    bbb     H6    625 -0.05230000   1.008000   ; qtot 0.074200
  626         c3     25    bbb     C4    626 0.51680000  12.010000   ; qtot 0.591000
  627         h1     25    bbb     H7    627 -0.05230000   1.008000   ; qtot 0.538700
  628         h1     25    bbb     H8    628 -0.05230000   1.008000   ; qtot 0.486400
  629         c3     25    bbb     C5    629 -0.60390000  12.010000   ; qtot -0.117500
  630         hc     25    bbb     H9    630 0.16730000   1.008000   ; qtot 0.049800
  631         hc     25    bbb    H10    631 0.16730000   1.008000   ; qtot 0.217100
  632         c3     25    bbb     C6    632 -0.60390000  12.010000   ; qtot -0.386800
  633         hc     25    bbb    H11    633 0.16730000   1.008000   ; qtot -0.219500
  634         hc     25    bbb    H12    634 0.16730000   1.008000   ; qtot -0.052200
  635          c     25    bbb     C7    635 0.72110000  12.010000   ; qtot 0.668900
  636          c     25    bbb     C8    636 0.72110000  12.010000   ; qtot 1.390000
  637          o     25    bbb     O1    637 -0.61950000  16.000000   ; qtot 0.770500
  638          o     25    bbb     O2    638 -0.61950000  16.000000   ; qtot 0.151000
  639          n     25    bbb     N4    639 -0.46580000  14.010000   ; qtot -0.314800
  640         hn     25    bbb    H21    640 0.31480000   1.008000   ; qtot -0.000000
; residue   26 bbb rtp bbb q -0.0
  641         c3     26    bbb     C1    641 0.44180000  12.010000   ; qtot 0.441800
  642         h1     26    bbb     H1    642 -0.03530000   1.008000   ; qtot 0.406500
  643         h1     26    bbb     H2    643 -0.03530000   1.008000   ; qtot 0.371200
  644         c3     26    bbb     C2    644 -0.28250000  12.010000   ; qtot 0.088700
  645         h1     26    bbb     H3    645 0.15710000   1.008000   ; qtot 0.245800
  646         h1     26    bbb     H4    646 0.15710000   1.008000   ; qtot 0.402900
  647         n3     26    bbb     N1    647 -0.74090000  14.010000   ; qtot -0.338000
  648         c3     26    bbb     C3    648 0.51680000  12.010000   ; qtot 0.178800
  649         h1     26    bbb     H5    649 -0.05230000   1.008000   ; qtot 0.126500
  650         h1     26    bbb     H6    650 -0.05230000   1.008000   ; qtot 0.074200
  651         c3     26    bbb     C4    651 0.51680000  12.010000   ; qtot 0.591000
  652         h1     26    bbb     H7    652 -0.05230000   1.008000   ; qtot 0.538700
  653         h1     26    bbb     H8    653 -0.05230000   1.008000   ; qtot 0.486400
  654         c3     26    bbb     C5    654 -0.60390000  12.010000   ; qtot -0.117500
  655         hc     26    bbb     H9    655 0.16730000   1.008000   ; qtot 0.049800
  656         hc     26    bbb    H10    656 0.16730000   1.008000   ; qtot 0.217100
  657         c3     26    bbb     C6    657 -0.60390000  12.010000   ; qtot -0.386800
  658         hc     26    bbb    H11    658 0.16730000   1.008000   ; qtot -0.219500
  659         hc     26    bbb    H12    659 0.16730000   1.008000   ; qtot -0.052200
  660          c     26    bbb     C7    660 0.72110000  12.010000   ; qtot 0.668900
  661          c     26    bbb     C8    661 0.72110000  12.010000   ; qtot 1.390000
  662          o     26    bbb     O1    662 -0.61950000  16.000000   ; qtot 0.770500
  663          o     26    bbb     O2    663 -0.61950000  16.000000   ; qtot 0.151000
  664          n     26    bbb     N4    664 -0.46580000  14.010000   ; qtot -0.314800
  665         hn     26    bbb    H21    665 0.31480000   1.008000   ; qtot -0.000000
; residue   27 bbb rtp bbb q -0.0
  666         c3     27    bbb     C1    666 0.44180000  12.010000   ; qtot 0.441800
  667         h1     27    bbb     H1    667 -0.03530000   1.008000   ; qtot 0.406500
  668         h1     27    bbb     H2    668 -0.03530000   1.008000   ; qtot 0.371200
  669         c3     27    bbb     C2    669 -0.28250000  12.010000   ; qtot 0.088700
  670         h1     27    bbb     H3    670 0.15710000   1.008000   ; qtot 0.245800
  671         h1     27    bbb     H4    671 0.15710000   1.008000   ; qtot 0.402900
  672         n3     27    bbb     N1    672 -0.74090000  14.010000   ; qtot -0.338000
  673         c3     27    bbb     C3    673 0.51680000  12.010000   ; qtot 0.178800
  674         h1     27    bbb     H5    674 -0.05230000   1.008000   ; qtot 0.126500
  675         h1     27    bbb     H6    675 -0.05230000   1.008000   ; qtot 0.074200
  676         c3     27    bbb     C4    676 0.51680000  12.010000   ; qtot 0.591000
  677         h1     27    bbb     H7    677 -0.05230000   1.008000   ; qtot 0.538700
  678         h1     27    bbb     H8    678 -0.05230000   1.008000   ; qtot 0.486400
  679         c3     27    bbb     C5    679 -0.60390000  12.010000   ; qtot -0.117500
  680         hc     27    bbb     H9    680 0.16730000   1.008000   ; qtot 0.049800
  681         hc     27    bbb    H10    681 0.16730000   1.008000   ; qtot 0.217100
  682         c3     27    bbb     C6    682 -0.60390000  12.010000   ; qtot -0.386800
  683         hc     27    bbb    H11    683 0.16730000   1.008000   ; qtot -0.219500
  684         hc     27    bbb    H12    684 0.16730000   1.008000   ; qtot -0.052200
  685          c     27    bbb     C7    685 0.72110000  12.010000   ; qtot 0.668900
  686          c     27    bbb     C8    686 0.72110000  12.010000   ; qtot 1.390000
  687          o     27    bbb     O1    687 -0.61950000  16.000000   ; qtot 0.770500
  688          o     27    bbb     O2    688 -0.61950000  16.000000   ; qtot 0.151000
  689          n     27    bbb     N4    689 -0.46580000  14.010000   ; qtot -0.314800
  690         hn     27    bbb    H21    690 0.31480000   1.008000   ; qtot -0.000000
; residue   28 bbb rtp bbb q -0.0
  691         c3     28    bbb     C1    691 0.44180000  12.010000   ; qtot 0.441800
  692         h1     28    bbb     H1    692 -0.03530000   1.008000   ; qtot 0.406500
  693         h1     28    bbb     H2    693 -0.03530000   1.008000   ; qtot 0.371200
  694         c3     28    bbb     C2    694 -0.28250000  12.010000   ; qtot 0.088700
  695         h1     28    bbb     H3    695 0.15710000   1.008000   ; qtot 0.245800
  696         h1     28    bbb     H4    696 0.15710000   1.008000   ; qtot 0.402900
  697         n3     28    bbb     N1    697 -0.74090000  14.010000   ; qtot -0.338000
  698         c3     28    bbb     C3    698 0.51680000  12.010000   ; qtot 0.178800
  699         h1     28    bbb     H5    699 -0.05230000   1.008000   ; qtot 0.126500
  700         h1     28    bbb     H6    700 -0.05230000   1.008000   ; qtot 0.074200
  701         c3     28    bbb     C4    701 0.51680000  12.010000   ; qtot 0.591000
  702         h1     28    bbb     H7    702 -0.05230000   1.008000   ; qtot 0.538700
  703         h1     28    bbb     H8    703 -0.05230000   1.008000   ; qtot 0.486400
  704         c3     28    bbb     C5    704 -0.60390000  12.010000   ; qtot -0.117500
  705         hc     28    bbb     H9    705 0.16730000   1.008000   ; qtot 0.049800
  706         hc     28    bbb    H10    706 0.16730000   1.008000   ; qtot 0.217100
  707         c3     28    bbb     C6    707 -0.60390000  12.010000   ; qtot -0.386800
  708         hc     28    bbb    H11    708 0.16730000   1.008000   ; qtot -0.219500
  709         hc     28    bbb    H12    709 0.16730000   1.008000   ; qtot -0.052200
  710          c     28    bbb     C7    710 0.72110000  12.010000   ; qtot 0.668900
  711          c     28    bbb     C8    711 0.72110000  12.010000   ; qtot 1.390000
  712          o     28    bbb     O1    712 -0.61950000  16.000000   ; qtot 0.770500
  713          o     28    bbb     O2    713 -0.61950000  16.000000   ; qtot 0.151000
  714          n     28    bbb     N4    714 -0.46580000  14.010000   ; qtot -0.314800
  715         hn     28    bbb    H21    715 0.31480000   1.008000   ; qtot -0.000000
; residue   29 bbb rtp bbb q -0.0
  716         c3     29    bbb     C1    716 0.44180000  12.010000   ; qtot 0.441800
  717         h1     29    bbb     H1    717 -0.03530000   1.008000   ; qtot 0.406500
  718         h1     29    bbb     H2    718 -0.03530000   1.008000   ; qtot 0.371200
  719         c3     29    bbb     C2    719 -0.28250000  12.010000   ; qtot 0.088700
  720         h1     29    bbb     H3    720 0.15710000   1.008000   ; qtot 0.245800
  721         h1     29    bbb     H4    721 0.15710000   1.008000   ; qtot 0.402900
  722         n3     29    bbb     N1    722 -0.74090000  14.010000   ; qtot -0.338000
  723         c3     29    bbb     C3    723 0.51680000  12.010000   ; qtot 0.178800
  724         h1     29    bbb     H5    724 -0.05230000   1.008000   ; qtot 0.126500
  725         h1     29    bbb     H6    725 -0.05230000   1.008000   ; qtot 0.074200
  726         c3     29    bbb     C4    726 0.51680000  12.010000   ; qtot 0.591000
  727         h1     29    bbb     H7    727 -0.05230000   1.008000   ; qtot 0.538700
  728         h1     29    bbb     H8    728 -0.05230000   1.008000   ; qtot 0.486400
  729         c3     29    bbb     C5    729 -0.60390000  12.010000   ; qtot -0.117500
  730         hc     29    bbb     H9    730 0.16730000   1.008000   ; qtot 0.049800
  731         hc     29    bbb    H10    731 0.16730000   1.008000   ; qtot 0.217100
  732         c3     29    bbb     C6    732 -0.60390000  12.010000   ; qtot -0.386800
  733         hc     29    bbb    H11    733 0.16730000   1.008000   ; qtot -0.219500
  734         hc     29    bbb    H12    734 0.16730000   1.008000   ; qtot -0.052200
  735          c     29    bbb     C7    735 0.72110000  12.010000   ; qtot 0.668900
  736          c     29    bbb     C8    736 0.72110000  12.010000   ; qtot 1.390000
  737          o     29    bbb     O1    737 -0.61950000  16.000000   ; qtot 0.770500
  738          o     29    bbb     O2    738 -0.61950000  16.000000   ; qtot 0.151000
  739          n     29    bbb     N4    739 -0.46580000  14.010000   ; qtot -0.314800
  740         hn     29    bbb    H21    740 0.31480000   1.008000   ; qtot -0.000000
; residue   30 ccc rtp ccc q 0.0
  741          n     30    ccc     N1    741 -0.87251700  14.010000   ; qtot -0.872517
  742         hn     30    ccc     H1    742 0.46040000   1.008000   ; qtot -0.412117
  743         c3     30    ccc     C1    743 0.65477900  12.010000   ; qtot 0.242662
  744         h1     30    ccc     H2    744 -0.08959600   1.008000   ; qtot 0.153066
  745         c3     30    ccc     C2    745 0.03619700  12.010000   ; qtot 0.189263
  746         h1     30    ccc     H3    746 -0.08959600   1.008000   ; qtot 0.099667
  747         h1     30    ccc     H4    747 0.06927800   1.008000   ; qtot 0.168945
  748         h1     30    ccc     H5    748 0.06927800   1.008000   ; qtot 0.238223
  749         n3     30    ccc     N2    749 -0.61358100  14.010000   ; qtot -0.375358
  750         c3     30    ccc     C3    750 0.17944400  12.010000   ; qtot -0.195914
  751         c3     30    ccc     C4    751 0.17944400  12.010000   ; qtot -0.016470
  752         h1     30    ccc     H6    752 0.07335800   1.008000   ; qtot 0.056888
  753         c3     30    ccc     C5    753 -0.49079800  12.010000   ; qtot -0.433910
  754         h1     30    ccc     H7    754 0.07335800   1.008000   ; qtot -0.360552
  755         hc     30    ccc     H8    755 0.15101200   1.008000   ; qtot -0.209540
  756         hc     30    ccc     H9    756 0.15101200   1.008000   ; qtot -0.058528
  757          c     30    ccc     C6    757 0.558828  12.010000   ; qtot 0.943671
  758         oh     30    ccc     O1    758 -0.56822625  16.000000   ; qtot 0.170585
  759          o     30    ccc     O2    759 -0.39142825  16.000000   ; qtot -0.493753
  760         h1     30    ccc    H10    760 0.07335800   1.008000   ; qtot -0.420395
  761         h1     30    ccc    H11    761 0.07335800   1.008000   ; qtot -0.347037
  762         c3     30    ccc     C7    762 -0.49079800  12.010000   ; qtot -0.837835
  763         hc     30    ccc    H12    763 0.15101200   1.008000   ; qtot -0.686823
  764         hc     30    ccc    H13    764 0.15101200   1.008000   ; qtot -0.535811
  765          c     30    ccc     C8    765 0.558828  12.010000   ; qtot 0.466388
  766          o     30    ccc     O3    766 -0.39142825  16.000000   ; qtot -0.197950
  767         oh     30    ccc     O4    767 -0.56822625  16.000000   ; qtot -0.971036
  768         ho     30    ccc    H14    768 0.4511195   1.008000   ; qtot -0.485518
  769         ho     30    ccc    H15    769 0.4511195   1.008000   ; qtot -0.000000
; residue   31 ccc rtp ccc q 0.0
  770          n     31    ccc     N1    770 -0.87251700  14.010000   ; qtot -0.872517
  771         hn     31    ccc     H1    771 0.46040000   1.008000   ; qtot -0.412117
  772         c3     31    ccc     C1    772 0.65477900  12.010000   ; qtot 0.242662
  773         h1     31    ccc     H2    773 -0.08959600   1.008000   ; qtot 0.153066
  774         c3     31    ccc     C2    774 0.03619700  12.010000   ; qtot 0.189263
  775         h1     31    ccc     H3    775 -0.08959600   1.008000   ; qtot 0.099667
  776         h1     31    ccc     H4    776 0.06927800   1.008000   ; qtot 0.168945
  777         h1     31    ccc     H5    777 0.06927800   1.008000   ; qtot 0.238223
  778         n3     31    ccc     N2    778 -0.61358100  14.010000   ; qtot -0.375358
  779         c3     31    ccc     C3    779 0.17944400  12.010000   ; qtot -0.195914
  780         c3     31    ccc     C4    780 0.17944400  12.010000   ; qtot -0.016470
  781         h1     31    ccc     H6    781 0.07335800   1.008000   ; qtot 0.056888
  782         c3     31    ccc     C5    782 -0.49079800  12.010000   ; qtot -0.433910
  783         h1     31    ccc     H7    783 0.07335800   1.008000   ; qtot -0.360552
  784         hc     31    ccc     H8    784 0.15101200   1.008000   ; qtot -0.209540
  785         hc     31    ccc     H9    785 0.15101200   1.008000   ; qtot -0.058528
  786          c     31    ccc     C6    786 0.558828  12.010000   ; qtot 0.943671
  787         oh     31    ccc     O1    787 -0.56822625  16.000000   ; qtot 0.170585
  788          o     31    ccc     O2    788 -0.39142825  16.000000   ; qtot -0.493753
  789         h1     31    ccc    H10    789 0.07335800   1.008000   ; qtot -0.420395
  790         h1     31    ccc    H11    790 0.07335800   1.008000   ; qtot -0.347037
  791         c3     31    ccc     C7    791 -0.49079800  12.010000   ; qtot -0.837835
  792         hc     31    ccc    H12    792 0.15101200   1.008000   ; qtot -0.686823
  793         hc     31    ccc    H13    793 0.15101200   1.008000   ; qtot -0.535811
  794          c     31    ccc     C8    794 0.558828  12.010000   ; qtot 0.466388
  795          o     31    ccc     O3    795 -0.39142825  16.000000   ; qtot -0.197950
  796         oh     31    ccc     O4    796 -0.56822625  16.000000   ; qtot -0.971036
  797         ho     31    ccc    H14    797 0.4511195   1.008000   ; qtot -0.485518
  798         ho     31    ccc    H15    798 0.4511195   1.008000   ; qtot -0.000000
; residue   32 ccc rtp ccc q 0.0
  799          n     32    ccc     N1    799 -0.87251700  14.010000   ; qtot -0.872517
  800         hn     32    ccc     H1    800 0.46040000   1.008000   ; qtot -0.412117
  801         c3     32    ccc     C1    801 0.65477900  12.010000   ; qtot 0.242662
  802         h1     32    ccc     H2    802 -0.08959600   1.008000   ; qtot 0.153066
  803         c3     32    ccc     C2    803 0.03619700  12.010000   ; qtot 0.189263
  804         h1     32    ccc     H3    804 -0.08959600   1.008000   ; qtot 0.099667
  805         h1     32    ccc     H4    805 0.06927800   1.008000   ; qtot 0.168945
  806         h1     32    ccc     H5    806 0.06927800   1.008000   ; qtot 0.238223
  807         n3     32    ccc     N2    807 -0.61358100  14.010000   ; qtot -0.375358
  808         c3     32    ccc     C3    808 0.17944400  12.010000   ; qtot -0.195914
  809         c3     32    ccc     C4    809 0.17944400  12.010000   ; qtot -0.016470
  810         h1     32    ccc     H6    810 0.07335800   1.008000   ; qtot 0.056888
  811         c3     32    ccc     C5    811 -0.49079800  12.010000   ; qtot -0.433910
  812         h1     32    ccc     H7    812 0.07335800   1.008000   ; qtot -0.360552
  813         hc     32    ccc     H8    813 0.15101200   1.008000   ; qtot -0.209540
  814         hc     32    ccc     H9    814 0.15101200   1.008000   ; qtot -0.058528
  815          c     32    ccc     C6    815 0.558828  12.010000   ; qtot 0.943671
  816         oh     32    ccc     O1    816 -0.56822625  16.000000   ; qtot 0.170585
  817          o     32    ccc     O2    817 -0.39142825  16.000000   ; qtot -0.493753
  818         h1     32    ccc    H10    818 0.07335800   1.008000   ; qtot -0.420395
  819         h1     32    ccc    H11    819 0.07335800   1.008000   ; qtot -0.347037
  820         c3     32    ccc     C7    820 -0.49079800  12.010000   ; qtot -0.837835
  821         hc     32    ccc    H12    821 0.15101200   1.008000   ; qtot -0.686823
  822         hc     32    ccc    H13    822 0.15101200   1.008000   ; qtot -0.535811
  823          c     32    ccc     C8    823 0.558828  12.010000   ; qtot 0.466388
  824          o     32    ccc     O3    824 -0.39142825  16.000000   ; qtot -0.197950
  825         oh     32    ccc     O4    825 -0.56822625  16.000000   ; qtot -0.971036
  826         ho     32    ccc    H14    826 0.4511195   1.008000   ; qtot -0.485518
  827         ho     32    ccc    H15    827 0.4511195   1.008000   ; qtot -0.000000
; residue   33 ccc rtp ccc q 0.0
  828          n     33    ccc     N1    828 -0.87251700  14.010000   ; qtot -0.872517
  829         hn     33    ccc     H1    829 0.46040000   1.008000   ; qtot -0.412117
  830         c3     33    ccc     C1    830 0.65477900  12.010000   ; qtot 0.242662
  831         h1     33    ccc     H2    831 -0.08959600   1.008000   ; qtot 0.153066
  832         c3     33    ccc     C2    832 0.03619700  12.010000   ; qtot 0.189263
  833         h1     33    ccc     H3    833 -0.08959600   1.008000   ; qtot 0.099667
  834         h1     33    ccc     H4    834 0.06927800   1.008000   ; qtot 0.168945
  835         h1     33    ccc     H5    835 0.06927800   1.008000   ; qtot 0.238223
  836         n3     33    ccc     N2    836 -0.61358100  14.010000   ; qtot -0.375358
  837         c3     33    ccc     C3    837 0.17944400  12.010000   ; qtot -0.195914
  838         c3     33    ccc     C4    838 0.17944400  12.010000   ; qtot -0.016470
  839         h1     33    ccc     H6    839 0.07335800   1.008000   ; qtot 0.056888
  840         c3     33    ccc     C5    840 -0.49079800  12.010000   ; qtot -0.433910
  841         h1     33    ccc     H7    841 0.07335800   1.008000   ; qtot -0.360552
  842         hc     33    ccc     H8    842 0.15101200   1.008000   ; qtot -0.209540
  843         hc     33    ccc     H9    843 0.15101200   1.008000   ; qtot -0.058528
  844          c     33    ccc     C6    844 0.558828  12.010000   ; qtot 0.943671
  845         oh     33    ccc     O1    845 -0.56822625  16.000000   ; qtot 0.170585
  846          o     33    ccc     O2    846 -0.39142825  16.000000   ; qtot -0.493753
  847         h1     33    ccc    H10    847 0.07335800   1.008000   ; qtot -0.420395
  848         h1     33    ccc    H11    848 0.07335800   1.008000   ; qtot -0.347037
  849         c3     33    ccc     C7    849 -0.49079800  12.010000   ; qtot -0.837835
  850         hc     33    ccc    H12    850 0.15101200   1.008000   ; qtot -0.686823
  851         hc     33    ccc    H13    851 0.15101200   1.008000   ; qtot -0.535811
  852          c     33    ccc     C8    852 0.558828  12.010000   ; qtot 0.466388
  853          o     33    ccc     O3    853 -0.39142825  16.000000   ; qtot -0.197950
  854         oh     33    ccc     O4    854 -0.56822625  16.000000   ; qtot -0.971036
  855         ho     33    ccc    H14    855 0.4511195   1.008000   ; qtot -0.485518
  856         ho     33    ccc    H15    856 0.4511195   1.008000   ; qtot -0.000000
; residue   34 ccc rtp ccc q 0.0
  857          n     34    ccc     N1    857 -0.87251700  14.010000   ; qtot -0.872517
  858         hn     34    ccc     H1    858 0.46040000   1.008000   ; qtot -0.412117
  859         c3     34    ccc     C1    859 0.65477900  12.010000   ; qtot 0.242662
  860         h1     34    ccc     H2    860 -0.08959600   1.008000   ; qtot 0.153066
  861         c3     34    ccc     C2    861 0.03619700  12.010000   ; qtot 0.189263
  862         h1     34    ccc     H3    862 -0.08959600   1.008000   ; qtot 0.099667
  863         h1     34    ccc     H4    863 0.06927800   1.008000   ; qtot 0.168945
  864         h1     34    ccc     H5    864 0.06927800   1.008000   ; qtot 0.238223
  865         n3     34    ccc     N2    865 -0.61358100  14.010000   ; qtot -0.375358
  866         c3     34    ccc     C3    866 0.17944400  12.010000   ; qtot -0.195914
  867         c3     34    ccc     C4    867 0.17944400  12.010000   ; qtot -0.016470
  868         h1     34    ccc     H6    868 0.07335800   1.008000   ; qtot 0.056888
  869         c3     34    ccc     C5    869 -0.49079800  12.010000   ; qtot -0.433910
  870         h1     34    ccc     H7    870 0.07335800   1.008000   ; qtot -0.360552
  871         hc     34    ccc     H8    871 0.15101200   1.008000   ; qtot -0.209540
  872         hc     34    ccc     H9    872 0.15101200   1.008000   ; qtot -0.058528
  873          c     34    ccc     C6    873 0.558828  12.010000   ; qtot 0.943671
  874         oh     34    ccc     O1    874 -0.56822625  16.000000   ; qtot 0.170585
  875          o     34    ccc     O2    875 -0.39142825  16.000000   ; qtot -0.493753
  876         h1     34    ccc    H10    876 0.07335800   1.008000   ; qtot -0.420395
  877         h1     34    ccc    H11    877 0.07335800   1.008000   ; qtot -0.347037
  878         c3     34    ccc     C7    878 -0.49079800  12.010000   ; qtot -0.837835
  879         hc     34    ccc    H12    879 0.15101200   1.008000   ; qtot -0.686823
  880         hc     34    ccc    H13    880 0.15101200   1.008000   ; qtot -0.535811
  881          c     34    ccc     C8    881 0.558828  12.010000   ; qtot 0.466388
  882          o     34    ccc     O3    882 -0.39142825  16.000000   ; qtot -0.197950
  883         oh     34    ccc     O4    883 -0.56822625  16.000000   ; qtot -0.971036
  884         ho     34    ccc    H14    884 0.4511195   1.008000   ; qtot -0.485518
  885         ho     34    ccc    H15    885 0.4511195   1.008000   ; qtot -0.000000
; residue   35 ccc rtp ccc q 0.0
  886          n     35    ccc     N1    886 -0.87251700  14.010000   ; qtot -0.872517
  887         hn     35    ccc     H1    887 0.46040000   1.008000   ; qtot -0.412117
  888         c3     35    ccc     C1    888 0.65477900  12.010000   ; qtot 0.242662
  889         h1     35    ccc     H2    889 -0.08959600   1.008000   ; qtot 0.153066
  890         c3     35    ccc     C2    890 0.03619700  12.010000   ; qtot 0.189263
  891         h1     35    ccc     H3    891 -0.08959600   1.008000   ; qtot 0.099667
  892         h1     35    ccc     H4    892 0.06927800   1.008000   ; qtot 0.168945
  893         h1     35    ccc     H5    893 0.06927800   1.008000   ; qtot 0.238223
  894         n3     35    ccc     N2    894 -0.61358100  14.010000   ; qtot -0.375358
  895         c3     35    ccc     C3    895 0.17944400  12.010000   ; qtot -0.195914
  896         c3     35    ccc     C4    896 0.17944400  12.010000   ; qtot -0.016470
  897         h1     35    ccc     H6    897 0.07335800   1.008000   ; qtot 0.056888
  898         c3     35    ccc     C5    898 -0.49079800  12.010000   ; qtot -0.433910
  899         h1     35    ccc     H7    899 0.07335800   1.008000   ; qtot -0.360552
  900         hc     35    ccc     H8    900 0.15101200   1.008000   ; qtot -0.209540
  901         hc     35    ccc     H9    901 0.15101200   1.008000   ; qtot -0.058528
  902          c     35    ccc     C6    902 0.558828  12.010000   ; qtot 0.943671
  903         oh     35    ccc     O1    903 -0.56822625  16.000000   ; qtot 0.170585
  904          o     35    ccc     O2    904 -0.39142825  16.000000   ; qtot -0.493753
  905         h1     35    ccc    H10    905 0.07335800   1.008000   ; qtot -0.420395
  906         h1     35    ccc    H11    906 0.07335800   1.008000   ; qtot -0.347037
  907         c3     35    ccc     C7    907 -0.49079800  12.010000   ; qtot -0.837835
  908         hc     35    ccc    H12    908 0.15101200   1.008000   ; qtot -0.686823
  909         hc     35    ccc    H13    909 0.15101200   1.008000   ; qtot -0.535811
  910          c     35    ccc     C8    910 0.558828  12.010000   ; qtot 0.466388
  911          o     35    ccc     O3    911 -0.39142825  16.000000   ; qtot -0.197950
  912         oh     35    ccc     O4    912 -0.56822625  16.000000   ; qtot -0.971036
  913         ho     35    ccc    H14    913 0.4511195   1.008000   ; qtot -0.485518
  914         ho     35    ccc    H15    914 0.4511195   1.008000   ; qtot -0.000000
; residue   36 ccc rtp ccc q 0.0
  915          n     36    ccc     N1    915 -0.87251700  14.010000   ; qtot -0.872517
  916         hn     36    ccc     H1    916 0.46040000   1.008000   ; qtot -0.412117
  917         c3     36    ccc     C1    917 0.65477900  12.010000   ; qtot 0.242662
  918         h1     36    ccc     H2    918 -0.08959600   1.008000   ; qtot 0.153066
  919         c3     36    ccc     C2    919 0.03619700  12.010000   ; qtot 0.189263
  920         h1     36    ccc     H3    920 -0.08959600   1.008000   ; qtot 0.099667
  921         h1     36    ccc     H4    921 0.06927800   1.008000   ; qtot 0.168945
  922         h1     36    ccc     H5    922 0.06927800   1.008000   ; qtot 0.238223
  923         n3     36    ccc     N2    923 -0.61358100  14.010000   ; qtot -0.375358
  924         c3     36    ccc     C3    924 0.17944400  12.010000   ; qtot -0.195914
  925         c3     36    ccc     C4    925 0.17944400  12.010000   ; qtot -0.016470
  926         h1     36    ccc     H6    926 0.07335800   1.008000   ; qtot 0.056888
  927         c3     36    ccc     C5    927 -0.49079800  12.010000   ; qtot -0.433910
  928         h1     36    ccc     H7    928 0.07335800   1.008000   ; qtot -0.360552
  929         hc     36    ccc     H8    929 0.15101200   1.008000   ; qtot -0.209540
  930         hc     36    ccc     H9    930 0.15101200   1.008000   ; qtot -0.058528
  931          c     36    ccc     C6    931 0.558828  12.010000   ; qtot 0.943671
  932         oh     36    ccc     O1    932 -0.56822625  16.000000   ; qtot 0.170585
  933          o     36    ccc     O2    933 -0.39142825  16.000000   ; qtot -0.493753
  934         h1     36    ccc    H10    934 0.07335800   1.008000   ; qtot -0.420395
  935         h1     36    ccc    H11    935 0.07335800   1.008000   ; qtot -0.347037
  936         c3     36    ccc     C7    936 -0.49079800  12.010000   ; qtot -0.837835
  937         hc     36    ccc    H12    937 0.15101200   1.008000   ; qtot -0.686823
  938         hc     36    ccc    H13    938 0.15101200   1.008000   ; qtot -0.535811
  939          c     36    ccc     C8    939 0.558828  12.010000   ; qtot 0.466388
  940          o     36    ccc     O3    940 -0.39142825  16.000000   ; qtot -0.197950
  941         oh     36    ccc     O4    941 -0.56822625  16.000000   ; qtot -0.971036
  942         ho     36    ccc    H14    942 0.4511195   1.008000   ; qtot -0.485518
  943         ho     36    ccc    H15    943 0.4511195   1.008000   ; qtot -0.000000
; residue   37 ccc rtp ccc q 0.0
  944          n     37    ccc     N1    944 -0.87251700  14.010000   ; qtot -0.872517
  945         hn     37    ccc     H1    945 0.46040000   1.008000   ; qtot -0.412117
  946         c3     37    ccc     C1    946 0.65477900  12.010000   ; qtot 0.242662
  947         h1     37    ccc     H2    947 -0.08959600   1.008000   ; qtot 0.153066
  948         c3     37    ccc     C2    948 0.03619700  12.010000   ; qtot 0.189263
  949         h1     37    ccc     H3    949 -0.08959600   1.008000   ; qtot 0.099667
  950         h1     37    ccc     H4    950 0.06927800   1.008000   ; qtot 0.168945
  951         h1     37    ccc     H5    951 0.06927800   1.008000   ; qtot 0.238223
  952         n3     37    ccc     N2    952 -0.61358100  14.010000   ; qtot -0.375358
  953         c3     37    ccc     C3    953 0.17944400  12.010000   ; qtot -0.195914
  954         c3     37    ccc     C4    954 0.17944400  12.010000   ; qtot -0.016470
  955         h1     37    ccc     H6    955 0.07335800   1.008000   ; qtot 0.056888
  956         c3     37    ccc     C5    956 -0.49079800  12.010000   ; qtot -0.433910
  957         h1     37    ccc     H7    957 0.07335800   1.008000   ; qtot -0.360552
  958         hc     37    ccc     H8    958 0.15101200   1.008000   ; qtot -0.209540
  959         hc     37    ccc     H9    959 0.15101200   1.008000   ; qtot -0.058528
  960          c     37    ccc     C6    960 0.558828  12.010000   ; qtot 0.943671
  961         oh     37    ccc     O1    961 -0.56822625  16.000000   ; qtot 0.170585
  962          o     37    ccc     O2    962 -0.39142825  16.000000   ; qtot -0.493753
  963         h1     37    ccc    H10    963 0.07335800   1.008000   ; qtot -0.420395
  964         h1     37    ccc    H11    964 0.07335800   1.008000   ; qtot -0.347037
  965         c3     37    ccc     C7    965 -0.49079800  12.010000   ; qtot -0.837835
  966         hc     37    ccc    H12    966 0.15101200   1.008000   ; qtot -0.686823
  967         hc     37    ccc    H13    967 0.15101200   1.008000   ; qtot -0.535811
  968          c     37    ccc     C8    968 0.558828  12.010000   ; qtot 0.466388
  969          o     37    ccc     O3    969 -0.39142825  16.000000   ; qtot -0.197950
  970         oh     37    ccc     O4    970 -0.56822625  16.000000   ; qtot -0.971036
  971         ho     37    ccc    H14    971 0.4511195   1.008000   ; qtot -0.485518
  972         ho     37    ccc    H15    972 0.4511195   1.008000   ; qtot -0.000000
; residue   38 ccc rtp ccc q 0.0
  973          n     38    ccc     N1    973 -0.87251700  14.010000   ; qtot -0.872517
  974         hn     38    ccc     H1    974 0.46040000   1.008000   ; qtot -0.412117
  975         c3     38    ccc     C1    975 0.65477900  12.010000   ; qtot 0.242662
  976         h1     38    ccc     H2    976 -0.08959600   1.008000   ; qtot 0.153066
  977         c3     38    ccc     C2    977 0.03619700  12.010000   ; qtot 0.189263
  978         h1     38    ccc     H3    978 -0.08959600   1.008000   ; qtot 0.099667
  979         h1     38    ccc     H4    979 0.06927800   1.008000   ; qtot 0.168945
  980         h1     38    ccc     H5    980 0.06927800   1.008000   ; qtot 0.238223
  981         n3     38    ccc     N2    981 -0.61358100  14.010000   ; qtot -0.375358
  982         c3     38    ccc     C3    982 0.17944400  12.010000   ; qtot -0.195914
  983         c3     38    ccc     C4    983 0.17944400  12.010000   ; qtot -0.016470
  984         h1     38    ccc     H6    984 0.07335800   1.008000   ; qtot 0.056888
  985         c3     38    ccc     C5    985 -0.49079800  12.010000   ; qtot -0.433910
  986         h1     38    ccc     H7    986 0.07335800   1.008000   ; qtot -0.360552
  987         hc     38    ccc     H8    987 0.15101200   1.008000   ; qtot -0.209540
  988         hc     38    ccc     H9    988 0.15101200   1.008000   ; qtot -0.058528
  989          c     38    ccc     C6    989 0.558828  12.010000   ; qtot 0.943671
  990         oh     38    ccc     O1    990 -0.56822625  16.000000   ; qtot 0.170585
  991          o     38    ccc     O2    991 -0.39142825  16.000000   ; qtot -0.493753
  992         h1     38    ccc    H10    992 0.07335800   1.008000   ; qtot -0.420395
  993         h1     38    ccc    H11    993 0.07335800   1.008000   ; qtot -0.347037
  994         c3     38    ccc     C7    994 -0.49079800  12.010000   ; qtot -0.837835
  995         hc     38    ccc    H12    995 0.15101200   1.008000   ; qtot -0.686823
  996         hc     38    ccc    H13    996 0.15101200   1.008000   ; qtot -0.535811
  997          c     38    ccc     C8    997 0.558828  12.010000   ; qtot 0.466388
  998          o     38    ccc     O3    998 -0.39142825  16.000000   ; qtot -0.197950
  999         oh     38    ccc     O4    999 -0.56822625  16.000000   ; qtot -0.971036
 1000         ho     38    ccc    H14   1000 0.4511195   1.008000   ; qtot -0.485518
 1001         ho     38    ccc    H15   1001 0.4511195   1.008000   ; qtot -0.000000
; residue   39 ccc rtp ccc q 0.0
 1002          n     39    ccc     N1   1002 -0.87251700  14.010000   ; qtot -0.872517
 1003         hn     39    ccc     H1   1003 0.46040000   1.008000   ; qtot -0.412117
 1004         c3     39    ccc     C1   1004 0.65477900  12.010000   ; qtot 0.242662
 1005         h1     39    ccc     H2   1005 -0.08959600   1.008000   ; qtot 0.153066
 1006         c3     39    ccc     C2   1006 0.03619700  12.010000   ; qtot 0.189263
 1007         h1     39    ccc     H3   1007 -0.08959600   1.008000   ; qtot 0.099667
 1008         h1     39    ccc     H4   1008 0.06927800   1.008000   ; qtot 0.168945
 1009         h1     39    ccc     H5   1009 0.06927800   1.008000   ; qtot 0.238223
 1010         n3     39    ccc     N2   1010 -0.61358100  14.010000   ; qtot -0.375358
 1011         c3     39    ccc     C3   1011 0.17944400  12.010000   ; qtot -0.195914
 1012         c3     39    ccc     C4   1012 0.17944400  12.010000   ; qtot -0.016470
 1013         h1     39    ccc     H6   1013 0.07335800   1.008000   ; qtot 0.056888
 1014         c3     39    ccc     C5   1014 -0.49079800  12.010000   ; qtot -0.433910
 1015         h1     39    ccc     H7   1015 0.07335800   1.008000   ; qtot -0.360552
 1016         hc     39    ccc     H8   1016 0.15101200   1.008000   ; qtot -0.209540
 1017         hc     39    ccc     H9   1017 0.15101200   1.008000   ; qtot -0.058528
 1018          c     39    ccc     C6   1018 0.558828  12.010000   ; qtot 0.943671
 1019         oh     39    ccc     O1   1019 -0.56822625  16.000000   ; qtot 0.170585
 1020          o     39    ccc     O2   1020 -0.39142825  16.000000   ; qtot -0.493753
 1021         h1     39    ccc    H10   1021 0.07335800   1.008000   ; qtot -0.420395
 1022         h1     39    ccc    H11   1022 0.07335800   1.008000   ; qtot -0.347037
 1023         c3     39    ccc     C7   1023 -0.49079800  12.010000   ; qtot -0.837835
 1024         hc     39    ccc    H12   1024 0.15101200   1.008000   ; qtot -0.686823
 1025         hc     39    ccc    H13   1025 0.15101200   1.008000   ; qtot -0.535811
 1026          c     39    ccc     C8   1026 0.558828  12.010000   ; qtot 0.466388
 1027          o     39    ccc     O3   1027 -0.39142825  16.000000   ; qtot -0.197950
 1028         oh     39    ccc     O4   1028 -0.56822625  16.000000   ; qtot -0.971036
 1029         ho     39    ccc    H14   1029 0.4511195   1.008000   ; qtot -0.485518
 1030         ho     39    ccc    H15   1030 0.4511195   1.008000   ; qtot -0.000000
; residue   40 ccc rtp ccc q 0.0
 1031          n     40    ccc     N1   1031 -0.87251700  14.010000   ; qtot -0.872517
 1032         hn     40    ccc     H1   1032 0.46040000   1.008000   ; qtot -0.412117
 1033         c3     40    ccc     C1   1033 0.65477900  12.010000   ; qtot 0.242662
 1034         h1     40    ccc     H2   1034 -0.08959600   1.008000   ; qtot 0.153066
 1035         c3     40    ccc     C2   1035 0.03619700  12.010000   ; qtot 0.189263
 1036         h1     40    ccc     H3   1036 -0.08959600   1.008000   ; qtot 0.099667
 1037         h1     40    ccc     H4   1037 0.06927800   1.008000   ; qtot 0.168945
 1038         h1     40    ccc     H5   1038 0.06927800   1.008000   ; qtot 0.238223
 1039         n3     40    ccc     N2   1039 -0.61358100  14.010000   ; qtot -0.375358
 1040         c3     40    ccc     C3   1040 0.17944400  12.010000   ; qtot -0.195914
 1041         c3     40    ccc     C4   1041 0.17944400  12.010000   ; qtot -0.016470
 1042         h1     40    ccc     H6   1042 0.07335800   1.008000   ; qtot 0.056888
 1043         c3     40    ccc     C5   1043 -0.49079800  12.010000   ; qtot -0.433910
 1044         h1     40    ccc     H7   1044 0.07335800   1.008000   ; qtot -0.360552
 1045         hc     40    ccc     H8   1045 0.15101200   1.008000   ; qtot -0.209540
 1046         hc     40    ccc     H9   1046 0.15101200   1.008000   ; qtot -0.058528
 1047          c     40    ccc     C6   1047 0.558828  12.010000   ; qtot 0.943671
 1048         oh     40    ccc     O1   1048 -0.56822625  16.000000   ; qtot 0.170585
 1049          o     40    ccc     O2   1049 -0.39142825  16.000000   ; qtot -0.493753
 1050         h1     40    ccc    H10   1050 0.07335800   1.008000   ; qtot -0.420395
 1051         h1     40    ccc    H11   1051 0.07335800   1.008000   ; qtot -0.347037
 1052         c3     40    ccc     C7   1052 -0.49079800  12.010000   ; qtot -0.837835
 1053         hc     40    ccc    H12   1053 0.15101200   1.008000   ; qtot -0.686823
 1054         hc     40    ccc    H13   1054 0.15101200   1.008000   ; qtot -0.535811
 1055          c     40    ccc     C8   1055 0.558828  12.010000   ; qtot 0.466388
 1056          o     40    ccc     O3   1056 -0.39142825  16.000000   ; qtot -0.197950
 1057         oh     40    ccc     O4   1057 -0.56822625  16.000000   ; qtot -0.971036
 1058         ho     40    ccc    H14   1058 0.4511195   1.008000   ; qtot -0.485518
 1059         ho     40    ccc    H15   1059 0.4511195   1.008000   ; qtot -0.000000
; residue   41 ccc rtp ccc q 0.0
 1060          n     41    ccc     N1   1060 -0.87251700  14.010000   ; qtot -0.872517
 1061         hn     41    ccc     H1   1061 0.46040000   1.008000   ; qtot -0.412117
 1062         c3     41    ccc     C1   1062 0.65477900  12.010000   ; qtot 0.242662
 1063         h1     41    ccc     H2   1063 -0.08959600   1.008000   ; qtot 0.153066
 1064         c3     41    ccc     C2   1064 0.03619700  12.010000   ; qtot 0.189263
 1065         h1     41    ccc     H3   1065 -0.08959600   1.008000   ; qtot 0.099667
 1066         h1     41    ccc     H4   1066 0.06927800   1.008000   ; qtot 0.168945
 1067         h1     41    ccc     H5   1067 0.06927800   1.008000   ; qtot 0.238223
 1068         n3     41    ccc     N2   1068 -0.61358100  14.010000   ; qtot -0.375358
 1069         c3     41    ccc     C3   1069 0.17944400  12.010000   ; qtot -0.195914
 1070         c3     41    ccc     C4   1070 0.17944400  12.010000   ; qtot -0.016470
 1071         h1     41    ccc     H6   1071 0.07335800   1.008000   ; qtot 0.056888
 1072         c3     41    ccc     C5   1072 -0.49079800  12.010000   ; qtot -0.433910
 1073         h1     41    ccc     H7   1073 0.07335800   1.008000   ; qtot -0.360552
 1074         hc     41    ccc     H8   1074 0.15101200   1.008000   ; qtot -0.209540
 1075         hc     41    ccc     H9   1075 0.15101200   1.008000   ; qtot -0.058528
 1076          c     41    ccc     C6   1076 0.558828  12.010000   ; qtot 0.943671
 1077         oh     41    ccc     O1   1077 -0.56822625  16.000000   ; qtot 0.170585
 1078          o     41    ccc     O2   1078 -0.39142825  16.000000   ; qtot -0.493753
 1079         h1     41    ccc    H10   1079 0.07335800   1.008000   ; qtot -0.420395
 1080         h1     41    ccc    H11   1080 0.07335800   1.008000   ; qtot -0.347037
 1081         c3     41    ccc     C7   1081 -0.49079800  12.010000   ; qtot -0.837835
 1082         hc     41    ccc    H12   1082 0.15101200   1.008000   ; qtot -0.686823
 1083         hc     41    ccc    H13   1083 0.15101200   1.008000   ; qtot -0.535811
 1084          c     41    ccc     C8   1084 0.558828  12.010000   ; qtot 0.466388
 1085          o     41    ccc     O3   1085 -0.39142825  16.000000   ; qtot -0.197950
 1086         oh     41    ccc     O4   1086 -0.56822625  16.000000   ; qtot -0.971036
 1087         ho     41    ccc    H14   1087 0.4511195   1.008000   ; qtot -0.485518
 1088         ho     41    ccc    H15   1088 0.4511195   1.008000   ; qtot -0.000000
; residue   42 ccc rtp ccc q 0.0
 1089          n     42    ccc     N1   1089 -0.87251700  14.010000   ; qtot -0.872517
 1090         hn     42    ccc     H1   1090 0.46040000   1.008000   ; qtot -0.412117
 1091         c3     42    ccc     C1   1091 0.65477900  12.010000   ; qtot 0.242662
 1092         h1     42    ccc     H2   1092 -0.08959600   1.008000   ; qtot 0.153066
 1093         c3     42    ccc     C2   1093 0.03619700  12.010000   ; qtot 0.189263
 1094         h1     42    ccc     H3   1094 -0.08959600   1.008000   ; qtot 0.099667
 1095         h1     42    ccc     H4   1095 0.06927800   1.008000   ; qtot 0.168945
 1096         h1     42    ccc     H5   1096 0.06927800   1.008000   ; qtot 0.238223
 1097         n3     42    ccc     N2   1097 -0.61358100  14.010000   ; qtot -0.375358
 1098         c3     42    ccc     C3   1098 0.17944400  12.010000   ; qtot -0.195914
 1099         c3     42    ccc     C4   1099 0.17944400  12.010000   ; qtot -0.016470
 1100         h1     42    ccc     H6   1100 0.07335800   1.008000   ; qtot 0.056888
 1101         c3     42    ccc     C5   1101 -0.49079800  12.010000   ; qtot -0.433910
 1102         h1     42    ccc     H7   1102 0.07335800   1.008000   ; qtot -0.360552
 1103         hc     42    ccc     H8   1103 0.15101200   1.008000   ; qtot -0.209540
 1104         hc     42    ccc     H9   1104 0.15101200   1.008000   ; qtot -0.058528
 1105          c     42    ccc     C6   1105 0.558828  12.010000   ; qtot 0.943671
 1106         oh     42    ccc     O1   1106 -0.56822625  16.000000   ; qtot 0.170585
 1107          o     42    ccc     O2   1107 -0.39142825  16.000000   ; qtot -0.493753
 1108         h1     42    ccc    H10   1108 0.07335800   1.008000   ; qtot -0.420395
 1109         h1     42    ccc    H11   1109 0.07335800   1.008000   ; qtot -0.347037
 1110         c3     42    ccc     C7   1110 -0.49079800  12.010000   ; qtot -0.837835
 1111         hc     42    ccc    H12   1111 0.15101200   1.008000   ; qtot -0.686823
 1112         hc     42    ccc    H13   1112 0.15101200   1.008000   ; qtot -0.535811
 1113          c     42    ccc     C8   1113 0.558828  12.010000   ; qtot 0.466388
 1114          o     42    ccc     O3   1114 -0.39142825  16.000000   ; qtot -0.197950
 1115         oh     42    ccc     O4   1115 -0.56822625  16.000000   ; qtot -0.971036
 1116         ho     42    ccc    H14   1116 0.4511195   1.008000   ; qtot -0.485518
 1117         ho     42    ccc    H15   1117 0.4511195   1.008000   ; qtot -0.000000
; residue   43 ccc rtp ccc q 0.0
 1118          n     43    ccc     N1   1118 -0.87251700  14.010000   ; qtot -0.872517
 1119         hn     43    ccc     H1   1119 0.46040000   1.008000   ; qtot -0.412117
 1120         c3     43    ccc     C1   1120 0.65477900  12.010000   ; qtot 0.242662
 1121         h1     43    ccc     H2   1121 -0.08959600   1.008000   ; qtot 0.153066
 1122         c3     43    ccc     C2   1122 0.03619700  12.010000   ; qtot 0.189263
 1123         h1     43    ccc     H3   1123 -0.08959600   1.008000   ; qtot 0.099667
 1124         h1     43    ccc     H4   1124 0.06927800   1.008000   ; qtot 0.168945
 1125         h1     43    ccc     H5   1125 0.06927800   1.008000   ; qtot 0.238223
 1126         n3     43    ccc     N2   1126 -0.61358100  14.010000   ; qtot -0.375358
 1127         c3     43    ccc     C3   1127 0.17944400  12.010000   ; qtot -0.195914
 1128         c3     43    ccc     C4   1128 0.17944400  12.010000   ; qtot -0.016470
 1129         h1     43    ccc     H6   1129 0.07335800   1.008000   ; qtot 0.056888
 1130         c3     43    ccc     C5   1130 -0.49079800  12.010000   ; qtot -0.433910
 1131         h1     43    ccc     H7   1131 0.07335800   1.008000   ; qtot -0.360552
 1132         hc     43    ccc     H8   1132 0.15101200   1.008000   ; qtot -0.209540
 1133         hc     43    ccc     H9   1133 0.15101200   1.008000   ; qtot -0.058528
 1134          c     43    ccc     C6   1134 0.558828  12.010000   ; qtot 0.943671
 1135         oh     43    ccc     O1   1135 -0.56822625  16.000000   ; qtot 0.170585
 1136          o     43    ccc     O2   1136 -0.39142825  16.000000   ; qtot -0.493753
 1137         h1     43    ccc    H10   1137 0.07335800   1.008000   ; qtot -0.420395
 1138         h1     43    ccc    H11   1138 0.07335800   1.008000   ; qtot -0.347037
 1139         c3     43    ccc     C7   1139 -0.49079800  12.010000   ; qtot -0.837835
 1140         hc     43    ccc    H12   1140 0.15101200   1.008000   ; qtot -0.686823
 1141         hc     43    ccc    H13   1141 0.15101200   1.008000   ; qtot -0.535811
 1142          c     43    ccc     C8   1142 0.558828  12.010000   ; qtot 0.466388
 1143          o     43    ccc     O3   1143 -0.39142825  16.000000   ; qtot -0.197950
 1144         oh     43    ccc     O4   1144 -0.56822625  16.000000   ; qtot -0.971036
 1145         ho     43    ccc    H14   1145 0.4511195   1.008000   ; qtot -0.485518
 1146         ho     43    ccc    H15   1146 0.4511195   1.008000   ; qtot -0.000000
; residue   44 ccc rtp ccc q 0.0
 1147          n     44    ccc     N1   1147 -0.87251700  14.010000   ; qtot -0.872517
 1148         hn     44    ccc     H1   1148 0.46040000   1.008000   ; qtot -0.412117
 1149         c3     44    ccc     C1   1149 0.65477900  12.010000   ; qtot 0.242662
 1150         h1     44    ccc     H2   1150 -0.08959600   1.008000   ; qtot 0.153066
 1151         c3     44    ccc     C2   1151 0.03619700  12.010000   ; qtot 0.189263
 1152         h1     44    ccc     H3   1152 -0.08959600   1.008000   ; qtot 0.099667
 1153         h1     44    ccc     H4   1153 0.06927800   1.008000   ; qtot 0.168945
 1154         h1     44    ccc     H5   1154 0.06927800   1.008000   ; qtot 0.238223
 1155         n3     44    ccc     N2   1155 -0.61358100  14.010000   ; qtot -0.375358
 1156         c3     44    ccc     C3   1156 0.17944400  12.010000   ; qtot -0.195914
 1157         c3     44    ccc     C4   1157 0.17944400  12.010000   ; qtot -0.016470
 1158         h1     44    ccc     H6   1158 0.07335800   1.008000   ; qtot 0.056888
 1159         c3     44    ccc     C5   1159 -0.49079800  12.010000   ; qtot -0.433910
 1160         h1     44    ccc     H7   1160 0.07335800   1.008000   ; qtot -0.360552
 1161         hc     44    ccc     H8   1161 0.15101200   1.008000   ; qtot -0.209540
 1162         hc     44    ccc     H9   1162 0.15101200   1.008000   ; qtot -0.058528
 1163          c     44    ccc     C6   1163 0.558828  12.010000   ; qtot 0.943671
 1164         oh     44    ccc     O1   1164 -0.56822625  16.000000   ; qtot 0.170585
 1165          o     44    ccc     O2   1165 -0.39142825  16.000000   ; qtot -0.493753
 1166         h1     44    ccc    H10   1166 0.07335800   1.008000   ; qtot -0.420395
 1167         h1     44    ccc    H11   1167 0.07335800   1.008000   ; qtot -0.347037
 1168         c3     44    ccc     C7   1168 -0.49079800  12.010000   ; qtot -0.837835
 1169         hc     44    ccc    H12   1169 0.15101200   1.008000   ; qtot -0.686823
 1170         hc     44    ccc    H13   1170 0.15101200   1.008000   ; qtot -0.535811
 1171          c     44    ccc     C8   1171 0.558828  12.010000   ; qtot 0.466388
 1172          o     44    ccc     O3   1172 -0.39142825  16.000000   ; qtot -0.197950
 1173         oh     44    ccc     O4   1173 -0.56822625  16.000000   ; qtot -0.971036
 1174         ho     44    ccc    H14   1174 0.4511195   1.008000   ; qtot -0.485518
 1175         ho     44    ccc    H15   1175 0.4511195   1.008000   ; qtot -0.000000
; residue   45 ccc rtp ccc q 0.0
 1176          n     45    ccc     N1   1176 -0.87251700  14.010000   ; qtot -0.872517
 1177         hn     45    ccc     H1   1177 0.46040000   1.008000   ; qtot -0.412117
 1178         c3     45    ccc     C1   1178 0.65477900  12.010000   ; qtot 0.242662
 1179         h1     45    ccc     H2   1179 -0.08959600   1.008000   ; qtot 0.153066
 1180         c3     45    ccc     C2   1180 0.03619700  12.010000   ; qtot 0.189263
 1181         h1     45    ccc     H3   1181 -0.08959600   1.008000   ; qtot 0.099667
 1182         h1     45    ccc     H4   1182 0.06927800   1.008000   ; qtot 0.168945
 1183         h1     45    ccc     H5   1183 0.06927800   1.008000   ; qtot 0.238223
 1184         n3     45    ccc     N2   1184 -0.61358100  14.010000   ; qtot -0.375358
 1185         c3     45    ccc     C3   1185 0.17944400  12.010000   ; qtot -0.195914
 1186         c3     45    ccc     C4   1186 0.17944400  12.010000   ; qtot -0.016470
 1187         h1     45    ccc     H6   1187 0.07335800   1.008000   ; qtot 0.056888
 1188         c3     45    ccc     C5   1188 -0.49079800  12.010000   ; qtot -0.433910
 1189         h1     45    ccc     H7   1189 0.07335800   1.008000   ; qtot -0.360552
 1190         hc     45    ccc     H8   1190 0.15101200   1.008000   ; qtot -0.209540
 1191         hc     45    ccc     H9   1191 0.15101200   1.008000   ; qtot -0.058528
 1192          c     45    ccc     C6   1192 0.558828  12.010000   ; qtot 0.943671
 1193         oh     45    ccc     O1   1193 -0.56822625  16.000000   ; qtot 0.170585
 1194          o     45    ccc     O2   1194 -0.39142825  16.000000   ; qtot -0.493753
 1195         h1     45    ccc    H10   1195 0.07335800   1.008000   ; qtot -0.420395
 1196         h1     45    ccc    H11   1196 0.07335800   1.008000   ; qtot -0.347037
 1197         c3     45    ccc     C7   1197 -0.49079800  12.010000   ; qtot -0.837835
 1198         hc     45    ccc    H12   1198 0.15101200   1.008000   ; qtot -0.686823
 1199         hc     45    ccc    H13   1199 0.15101200   1.008000   ; qtot -0.535811
 1200          c     45    ccc     C8   1200 0.558828  12.010000   ; qtot 0.466388
 1201          o     45    ccc     O3   1201 -0.39142825  16.000000   ; qtot -0.197950
 1202         oh     45    ccc     O4   1202 -0.56822625  16.000000   ; qtot -0.971036
 1203         ho     45    ccc    H14   1203 0.4511195   1.008000   ; qtot -0.485518
 1204         ho     45    ccc    H15   1204 0.4511195   1.008000   ; qtot -0.000000
; residue   46 ccc rtp ccc q 0.0
 1205          n     46    ccc     N1   1205 -0.87251700  14.010000   ; qtot -0.872517
 1206         hn     46    ccc     H1   1206 0.46040000   1.008000   ; qtot -0.412117
 1207         c3     46    ccc     C1   1207 0.65477900  12.010000   ; qtot 0.242662
 1208         h1     46    ccc     H2   1208 -0.08959600   1.008000   ; qtot 0.153066
 1209         c3     46    ccc     C2   1209 0.03619700  12.010000   ; qtot 0.189263
 1210         h1     46    ccc     H3   1210 -0.08959600   1.008000   ; qtot 0.099667
 1211         h1     46    ccc     H4   1211 0.06927800   1.008000   ; qtot 0.168945
 1212         h1     46    ccc     H5   1212 0.06927800   1.008000   ; qtot 0.238223
 1213         n3     46    ccc     N2   1213 -0.61358100  14.010000   ; qtot -0.375358
 1214         c3     46    ccc     C3   1214 0.17944400  12.010000   ; qtot -0.195914
 1215         c3     46    ccc     C4   1215 0.17944400  12.010000   ; qtot -0.016470
 1216         h1     46    ccc     H6   1216 0.07335800   1.008000   ; qtot 0.056888
 1217         c3     46    ccc     C5   1217 -0.49079800  12.010000   ; qtot -0.433910
 1218         h1     46    ccc     H7   1218 0.07335800   1.008000   ; qtot -0.360552
 1219         hc     46    ccc     H8   1219 0.15101200   1.008000   ; qtot -0.209540
 1220         hc     46    ccc     H9   1220 0.15101200   1.008000   ; qtot -0.058528
 1221          c     46    ccc     C6   1221 0.558828  12.010000   ; qtot 0.943671
 1222         oh     46    ccc     O1   1222 -0.56822625  16.000000   ; qtot 0.170585
 1223          o     46    ccc     O2   1223 -0.39142825  16.000000   ; qtot -0.493753
 1224         h1     46    ccc    H10   1224 0.07335800   1.008000   ; qtot -0.420395
 1225         h1     46    ccc    H11   1225 0.07335800   1.008000   ; qtot -0.347037
 1226         c3     46    ccc     C7   1226 -0.49079800  12.010000   ; qtot -0.837835
 1227         hc     46    ccc    H12   1227 0.15101200   1.008000   ; qtot -0.686823
 1228         hc     46    ccc    H13   1228 0.15101200   1.008000   ; qtot -0.535811
 1229          c     46    ccc     C8   1229 0.558828  12.010000   ; qtot 0.466388
 1230          o     46    ccc     O3   1230 -0.39142825  16.000000   ; qtot -0.197950
 1231         oh     46    ccc     O4   1231 -0.56822625  16.000000   ; qtot -0.971036
 1232         ho     46    ccc    H14   1232 0.4511195   1.008000   ; qtot -0.485518
 1233         ho     46    ccc    H15   1233 0.4511195   1.008000   ; qtot -0.000000
; residue   47 ccc rtp ccc q 0.0
 1234          n     47    ccc     N1   1234 -0.87251700  14.010000   ; qtot -0.872517
 1235         hn     47    ccc     H1   1235 0.46040000   1.008000   ; qtot -0.412117
 1236         c3     47    ccc     C1   1236 0.65477900  12.010000   ; qtot 0.242662
 1237         h1     47    ccc     H2   1237 -0.08959600   1.008000   ; qtot 0.153066
 1238         c3     47    ccc     C2   1238 0.03619700  12.010000   ; qtot 0.189263
 1239         h1     47    ccc     H3   1239 -0.08959600   1.008000   ; qtot 0.099667
 1240         h1     47    ccc     H4   1240 0.06927800   1.008000   ; qtot 0.168945
 1241         h1     47    ccc     H5   1241 0.06927800   1.008000   ; qtot 0.238223
 1242         n3     47    ccc     N2   1242 -0.61358100  14.010000   ; qtot -0.375358
 1243         c3     47    ccc     C3   1243 0.17944400  12.010000   ; qtot -0.195914
 1244         c3     47    ccc     C4   1244 0.17944400  12.010000   ; qtot -0.016470
 1245         h1     47    ccc     H6   1245 0.07335800   1.008000   ; qtot 0.056888
 1246         c3     47    ccc     C5   1246 -0.49079800  12.010000   ; qtot -0.433910
 1247         h1     47    ccc     H7   1247 0.07335800   1.008000   ; qtot -0.360552
 1248         hc     47    ccc     H8   1248 0.15101200   1.008000   ; qtot -0.209540
 1249         hc     47    ccc     H9   1249 0.15101200   1.008000   ; qtot -0.058528
 1250          c     47    ccc     C6   1250 0.558828  12.010000   ; qtot 0.943671
 1251         oh     47    ccc     O1   1251 -0.56822625  16.000000   ; qtot 0.170585
 1252          o     47    ccc     O2   1252 -0.39142825  16.000000   ; qtot -0.493753
 1253         h1     47    ccc    H10   1253 0.07335800   1.008000   ; qtot -0.420395
 1254         h1     47    ccc    H11   1254 0.07335800   1.008000   ; qtot -0.347037
 1255         c3     47    ccc     C7   1255 -0.49079800  12.010000   ; qtot -0.837835
 1256         hc     47    ccc    H12   1256 0.15101200   1.008000   ; qtot -0.686823
 1257         hc     47    ccc    H13   1257 0.15101200   1.008000   ; qtot -0.535811
 1258          c     47    ccc     C8   1258 0.558828  12.010000   ; qtot 0.466388
 1259          o     47    ccc     O3   1259 -0.39142825  16.000000   ; qtot -0.197950
 1260         oh     47    ccc     O4   1260 -0.56822625  16.000000   ; qtot -0.971036
 1261         ho     47    ccc    H14   1261 0.4511195   1.008000   ; qtot -0.485518
 1262         ho     47    ccc    H15   1262 0.4511195   1.008000   ; qtot -0.000000
; residue   48 ccc rtp ccc q 0.0
 1263          n     48    ccc     N1   1263 -0.87251700  14.010000   ; qtot -0.872517
 1264         hn     48    ccc     H1   1264 0.46040000   1.008000   ; qtot -0.412117
 1265         c3     48    ccc     C1   1265 0.65477900  12.010000   ; qtot 0.242662
 1266         h1     48    ccc     H2   1266 -0.08959600   1.008000   ; qtot 0.153066
 1267         c3     48    ccc     C2   1267 0.03619700  12.010000   ; qtot 0.189263
 1268         h1     48    ccc     H3   1268 -0.08959600   1.008000   ; qtot 0.099667
 1269         h1     48    ccc     H4   1269 0.06927800   1.008000   ; qtot 0.168945
 1270         h1     48    ccc     H5   1270 0.06927800   1.008000   ; qtot 0.238223
 1271         n3     48    ccc     N2   1271 -0.61358100  14.010000   ; qtot -0.375358
 1272         c3     48    ccc     C3   1272 0.17944400  12.010000   ; qtot -0.195914
 1273         c3     48    ccc     C4   1273 0.17944400  12.010000   ; qtot -0.016470
 1274         h1     48    ccc     H6   1274 0.07335800   1.008000   ; qtot 0.056888
 1275         c3     48    ccc     C5   1275 -0.49079800  12.010000   ; qtot -0.433910
 1276         h1     48    ccc     H7   1276 0.07335800   1.008000   ; qtot -0.360552
 1277         hc     48    ccc     H8   1277 0.15101200   1.008000   ; qtot -0.209540
 1278         hc     48    ccc     H9   1278 0.15101200   1.008000   ; qtot -0.058528
 1279          c     48    ccc     C6   1279 0.558828  12.010000   ; qtot 0.943671
 1280         oh     48    ccc     O1   1280 -0.56822625  16.000000   ; qtot 0.170585
 1281          o     48    ccc     O2   1281 -0.39142825  16.000000   ; qtot -0.493753
 1282         h1     48    ccc    H10   1282 0.07335800   1.008000   ; qtot -0.420395
 1283         h1     48    ccc    H11   1283 0.07335800   1.008000   ; qtot -0.347037
 1284         c3     48    ccc     C7   1284 -0.49079800  12.010000   ; qtot -0.837835
 1285         hc     48    ccc    H12   1285 0.15101200   1.008000   ; qtot -0.686823
 1286         hc     48    ccc    H13   1286 0.15101200   1.008000   ; qtot -0.535811
 1287          c     48    ccc     C8   1287 0.558828  12.010000   ; qtot 0.466388
 1288          o     48    ccc     O3   1288 -0.39142825  16.000000   ; qtot -0.197950
 1289         oh     48    ccc     O4   1289 -0.56822625  16.000000   ; qtot -0.971036
 1290         ho     48    ccc    H14   1290 0.4511195   1.008000   ; qtot -0.485518
 1291         ho     48    ccc    H15   1291 0.4511195   1.008000   ; qtot -0.000000
; residue   49 ccc rtp ccc q 0.0
 1292          n     49    ccc     N1   1292 -0.87251700  14.010000   ; qtot -0.872517
 1293         hn     49    ccc     H1   1293 0.46040000   1.008000   ; qtot -0.412117
 1294         c3     49    ccc     C1   1294 0.65477900  12.010000   ; qtot 0.242662
 1295         h1     49    ccc     H2   1295 -0.08959600   1.008000   ; qtot 0.153066
 1296         c3     49    ccc     C2   1296 0.03619700  12.010000   ; qtot 0.189263
 1297         h1     49    ccc     H3   1297 -0.08959600   1.008000   ; qtot 0.099667
 1298         h1     49    ccc     H4   1298 0.06927800   1.008000   ; qtot 0.168945
 1299         h1     49    ccc     H5   1299 0.06927800   1.008000   ; qtot 0.238223
 1300         n3     49    ccc     N2   1300 -0.61358100  14.010000   ; qtot -0.375358
 1301         c3     49    ccc     C3   1301 0.17944400  12.010000   ; qtot -0.195914
 1302         c3     49    ccc     C4   1302 0.17944400  12.010000   ; qtot -0.016470
 1303         h1     49    ccc     H6   1303 0.07335800   1.008000   ; qtot 0.056888
 1304         c3     49    ccc     C5   1304 -0.49079800  12.010000   ; qtot -0.433910
 1305         h1     49    ccc     H7   1305 0.07335800   1.008000   ; qtot -0.360552
 1306         hc     49    ccc     H8   1306 0.15101200   1.008000   ; qtot -0.209540
 1307         hc     49    ccc     H9   1307 0.15101200   1.008000   ; qtot -0.058528
 1308          c     49    ccc     C6   1308 0.558828  12.010000   ; qtot 0.943671
 1309         oh     49    ccc     O1   1309 -0.56822625  16.000000   ; qtot 0.170585
 1310          o     49    ccc     O2   1310 -0.39142825  16.000000   ; qtot -0.493753
 1311         h1     49    ccc    H10   1311 0.07335800   1.008000   ; qtot -0.420395
 1312         h1     49    ccc    H11   1312 0.07335800   1.008000   ; qtot -0.347037
 1313         c3     49    ccc     C7   1313 -0.49079800  12.010000   ; qtot -0.837835
 1314         hc     49    ccc    H12   1314 0.15101200   1.008000   ; qtot -0.686823
 1315         hc     49    ccc    H13   1315 0.15101200   1.008000   ; qtot -0.535811
 1316          c     49    ccc     C8   1316 0.558828  12.010000   ; qtot 0.466388
 1317          o     49    ccc     O3   1317 -0.39142825  16.000000   ; qtot -0.197950
 1318         oh     49    ccc     O4   1318 -0.56822625  16.000000   ; qtot -0.971036
 1319         ho     49    ccc    H14   1319 0.4511195   1.008000   ; qtot -0.485518
 1320         ho     49    ccc    H15   1320 0.4511195   1.008000   ; qtot -0.000000
; residue   50 ccc rtp ccc q 0.0
 1321          n     50    ccc     N1   1321 -0.87251700  14.010000   ; qtot -0.872517
 1322         hn     50    ccc     H1   1322 0.46040000   1.008000   ; qtot -0.412117
 1323         c3     50    ccc     C1   1323 0.65477900  12.010000   ; qtot 0.242662
 1324         h1     50    ccc     H2   1324 -0.08959600   1.008000   ; qtot 0.153066
 1325         c3     50    ccc     C2   1325 0.03619700  12.010000   ; qtot 0.189263
 1326         h1     50    ccc     H3   1326 -0.08959600   1.008000   ; qtot 0.099667
 1327         h1     50    ccc     H4   1327 0.06927800   1.008000   ; qtot 0.168945
 1328         h1     50    ccc     H5   1328 0.06927800   1.008000   ; qtot 0.238223
 1329         n3     50    ccc     N2   1329 -0.61358100  14.010000   ; qtot -0.375358
 1330         c3     50    ccc     C3   1330 0.17944400  12.010000   ; qtot -0.195914
 1331         c3     50    ccc     C4   1331 0.17944400  12.010000   ; qtot -0.016470
 1332         h1     50    ccc     H6   1332 0.07335800   1.008000   ; qtot 0.056888
 1333         c3     50    ccc     C5   1333 -0.49079800  12.010000   ; qtot -0.433910
 1334         h1     50    ccc     H7   1334 0.07335800   1.008000   ; qtot -0.360552
 1335         hc     50    ccc     H8   1335 0.15101200   1.008000   ; qtot -0.209540
 1336         hc     50    ccc     H9   1336 0.15101200   1.008000   ; qtot -0.058528
 1337          c     50    ccc     C6   1337 0.558828  12.010000   ; qtot 0.943671
 1338         oh     50    ccc     O1   1338 -0.56822625  16.000000   ; qtot 0.170585
 1339          o     50    ccc     O2   1339 -0.39142825  16.000000   ; qtot -0.493753
 1340         h1     50    ccc    H10   1340 0.07335800   1.008000   ; qtot -0.420395
 1341         h1     50    ccc    H11   1341 0.07335800   1.008000   ; qtot -0.347037
 1342         c3     50    ccc     C7   1342 -0.49079800  12.010000   ; qtot -0.837835
 1343         hc     50    ccc    H12   1343 0.15101200   1.008000   ; qtot -0.686823
 1344         hc     50    ccc    H13   1344 0.15101200   1.008000   ; qtot -0.535811
 1345          c     50    ccc     C8   1345 0.558828  12.010000   ; qtot 0.466388
 1346          o     50    ccc     O3   1346 -0.39142825  16.000000   ; qtot -0.197950
 1347         oh     50    ccc     O4   1347 -0.56822625  16.000000   ; qtot -0.971036
 1348         ho     50    ccc    H14   1348 0.4511195   1.008000   ; qtot -0.485518
 1349         ho     50    ccc    H15   1349 0.4511195   1.008000   ; qtot -0.000000
; residue   51 ccc rtp ccc q 0.0
 1350          n     51    ccc     N1   1350 -0.87251700  14.010000   ; qtot -0.872517
 1351         hn     51    ccc     H1   1351 0.46040000   1.008000   ; qtot -0.412117
 1352         c3     51    ccc     C1   1352 0.65477900  12.010000   ; qtot 0.242662
 1353         h1     51    ccc     H2   1353 -0.08959600   1.008000   ; qtot 0.153066
 1354         c3     51    ccc     C2   1354 0.03619700  12.010000   ; qtot 0.189263
 1355         h1     51    ccc     H3   1355 -0.08959600   1.008000   ; qtot 0.099667
 1356         h1     51    ccc     H4   1356 0.06927800   1.008000   ; qtot 0.168945
 1357         h1     51    ccc     H5   1357 0.06927800   1.008000   ; qtot 0.238223
 1358         n3     51    ccc     N2   1358 -0.61358100  14.010000   ; qtot -0.375358
 1359         c3     51    ccc     C3   1359 0.17944400  12.010000   ; qtot -0.195914
 1360         c3     51    ccc     C4   1360 0.17944400  12.010000   ; qtot -0.016470
 1361         h1     51    ccc     H6   1361 0.07335800   1.008000   ; qtot 0.056888
 1362         c3     51    ccc     C5   1362 -0.49079800  12.010000   ; qtot -0.433910
 1363         h1     51    ccc     H7   1363 0.07335800   1.008000   ; qtot -0.360552
 1364         hc     51    ccc     H8   1364 0.15101200   1.008000   ; qtot -0.209540
 1365         hc     51    ccc     H9   1365 0.15101200   1.008000   ; qtot -0.058528
 1366          c     51    ccc     C6   1366 0.558828  12.010000   ; qtot 0.943671
 1367         oh     51    ccc     O1   1367 -0.56822625  16.000000   ; qtot 0.170585
 1368          o     51    ccc     O2   1368 -0.39142825  16.000000   ; qtot -0.493753
 1369         h1     51    ccc    H10   1369 0.07335800   1.008000   ; qtot -0.420395
 1370         h1     51    ccc    H11   1370 0.07335800   1.008000   ; qtot -0.347037
 1371         c3     51    ccc     C7   1371 -0.49079800  12.010000   ; qtot -0.837835
 1372         hc     51    ccc    H12   1372 0.15101200   1.008000   ; qtot -0.686823
 1373         hc     51    ccc    H13   1373 0.15101200   1.008000   ; qtot -0.535811
 1374          c     51    ccc     C8   1374 0.558828  12.010000   ; qtot 0.466388
 1375          o     51    ccc     O3   1375 -0.39142825  16.000000   ; qtot -0.197950
 1376         oh     51    ccc     O4   1376 -0.56822625  16.000000   ; qtot -0.971036
 1377         ho     51    ccc    H14   1377 0.4511195   1.008000   ; qtot -0.485518
 1378         ho     51    ccc    H15   1378 0.4511195   1.008000   ; qtot -0.000000
; residue   52 ccc rtp ccc q 0.0
 1379          n     52    ccc     N1   1379 -0.87251700  14.010000   ; qtot -0.872517
 1380         hn     52    ccc     H1   1380 0.46040000   1.008000   ; qtot -0.412117
 1381         c3     52    ccc     C1   1381 0.65477900  12.010000   ; qtot 0.242662
 1382         h1     52    ccc     H2   1382 -0.08959600   1.008000   ; qtot 0.153066
 1383         c3     52    ccc     C2   1383 0.03619700  12.010000   ; qtot 0.189263
 1384         h1     52    ccc     H3   1384 -0.08959600   1.008000   ; qtot 0.099667
 1385         h1     52    ccc     H4   1385 0.06927800   1.008000   ; qtot 0.168945
 1386         h1     52    ccc     H5   1386 0.06927800   1.008000   ; qtot 0.238223
 1387         n3     52    ccc     N2   1387 -0.61358100  14.010000   ; qtot -0.375358
 1388         c3     52    ccc     C3   1388 0.17944400  12.010000   ; qtot -0.195914
 1389         c3     52    ccc     C4   1389 0.17944400  12.010000   ; qtot -0.016470
 1390         h1     52    ccc     H6   1390 0.07335800   1.008000   ; qtot 0.056888
 1391         c3     52    ccc     C5   1391 -0.49079800  12.010000   ; qtot -0.433910
 1392         h1     52    ccc     H7   1392 0.07335800   1.008000   ; qtot -0.360552
 1393         hc     52    ccc     H8   1393 0.15101200   1.008000   ; qtot -0.209540
 1394         hc     52    ccc     H9   1394 0.15101200   1.008000   ; qtot -0.058528
 1395          c     52    ccc     C6   1395 0.558828  12.010000   ; qtot 0.943671
 1396         oh     52    ccc     O1   1396 -0.56822625  16.000000   ; qtot 0.170585
 1397          o     52    ccc     O2   1397 -0.39142825  16.000000   ; qtot -0.493753
 1398         h1     52    ccc    H10   1398 0.07335800   1.008000   ; qtot -0.420395
 1399         h1     52    ccc    H11   1399 0.07335800   1.008000   ; qtot -0.347037
 1400         c3     52    ccc     C7   1400 -0.49079800  12.010000   ; qtot -0.837835
 1401         hc     52    ccc    H12   1401 0.15101200   1.008000   ; qtot -0.686823
 1402         hc     52    ccc    H13   1402 0.15101200   1.008000   ; qtot -0.535811
 1403          c     52    ccc     C8   1403 0.558828  12.010000   ; qtot 0.466388
 1404          o     52    ccc     O3   1404 -0.39142825  16.000000   ; qtot -0.197950
 1405         oh     52    ccc     O4   1405 -0.56822625  16.000000   ; qtot -0.971036
 1406         ho     52    ccc    H14   1406 0.4511195   1.008000   ; qtot -0.485518
 1407         ho     52    ccc    H15   1407 0.4511195   1.008000   ; qtot -0.000000
; residue   53 ccc rtp ccc q 0.0
 1408          n     53    ccc     N1   1408 -0.87251700  14.010000   ; qtot -0.872517
 1409         hn     53    ccc     H1   1409 0.46040000   1.008000   ; qtot -0.412117
 1410         c3     53    ccc     C1   1410 0.65477900  12.010000   ; qtot 0.242662
 1411         h1     53    ccc     H2   1411 -0.08959600   1.008000   ; qtot 0.153066
 1412         c3     53    ccc     C2   1412 0.03619700  12.010000   ; qtot 0.189263
 1413         h1     53    ccc     H3   1413 -0.08959600   1.008000   ; qtot 0.099667
 1414         h1     53    ccc     H4   1414 0.06927800   1.008000   ; qtot 0.168945
 1415         h1     53    ccc     H5   1415 0.06927800   1.008000   ; qtot 0.238223
 1416         n3     53    ccc     N2   1416 -0.61358100  14.010000   ; qtot -0.375358
 1417         c3     53    ccc     C3   1417 0.17944400  12.010000   ; qtot -0.195914
 1418         c3     53    ccc     C4   1418 0.17944400  12.010000   ; qtot -0.016470
 1419         h1     53    ccc     H6   1419 0.07335800   1.008000   ; qtot 0.056888
 1420         c3     53    ccc     C5   1420 -0.49079800  12.010000   ; qtot -0.433910
 1421         h1     53    ccc     H7   1421 0.07335800   1.008000   ; qtot -0.360552
 1422         hc     53    ccc     H8   1422 0.15101200   1.008000   ; qtot -0.209540
 1423         hc     53    ccc     H9   1423 0.15101200   1.008000   ; qtot -0.058528
 1424          c     53    ccc     C6   1424 0.558828  12.010000   ; qtot 0.943671
 1425         oh     53    ccc     O1   1425 -0.56822625  16.000000   ; qtot 0.170585
 1426          o     53    ccc     O2   1426 -0.39142825  16.000000   ; qtot -0.493753
 1427         h1     53    ccc    H10   1427 0.07335800   1.008000   ; qtot -0.420395
 1428         h1     53    ccc    H11   1428 0.07335800   1.008000   ; qtot -0.347037
 1429         c3     53    ccc     C7   1429 -0.49079800  12.010000   ; qtot -0.837835
 1430         hc     53    ccc    H12   1430 0.15101200   1.008000   ; qtot -0.686823
 1431         hc     53    ccc    H13   1431 0.15101200   1.008000   ; qtot -0.535811
 1432          c     53    ccc     C8   1432 0.558828  12.010000   ; qtot 0.466388
 1433          o     53    ccc     O3   1433 -0.39142825  16.000000   ; qtot -0.197950
 1434         oh     53    ccc     O4   1434 -0.56822625  16.000000   ; qtot -0.971036
 1435         ho     53    ccc    H14   1435 0.4511195   1.008000   ; qtot -0.485518
 1436         ho     53    ccc    H15   1436 0.4511195   1.008000   ; qtot -0.000000
; residue   54 ccc rtp ccc q 0.0
 1437          n     54    ccc     N1   1437 -0.87251700  14.010000   ; qtot -0.872517
 1438         hn     54    ccc     H1   1438 0.46040000   1.008000   ; qtot -0.412117
 1439         c3     54    ccc     C1   1439 0.65477900  12.010000   ; qtot 0.242662
 1440         h1     54    ccc     H2   1440 -0.08959600   1.008000   ; qtot 0.153066
 1441         c3     54    ccc     C2   1441 0.03619700  12.010000   ; qtot 0.189263
 1442         h1     54    ccc     H3   1442 -0.08959600   1.008000   ; qtot 0.099667
 1443         h1     54    ccc     H4   1443 0.06927800   1.008000   ; qtot 0.168945
 1444         h1     54    ccc     H5   1444 0.06927800   1.008000   ; qtot 0.238223
 1445         n3     54    ccc     N2   1445 -0.61358100  14.010000   ; qtot -0.375358
 1446         c3     54    ccc     C3   1446 0.17944400  12.010000   ; qtot -0.195914
 1447         c3     54    ccc     C4   1447 0.17944400  12.010000   ; qtot -0.016470
 1448         h1     54    ccc     H6   1448 0.07335800   1.008000   ; qtot 0.056888
 1449         c3     54    ccc     C5   1449 -0.49079800  12.010000   ; qtot -0.433910
 1450         h1     54    ccc     H7   1450 0.07335800   1.008000   ; qtot -0.360552
 1451         hc     54    ccc     H8   1451 0.15101200   1.008000   ; qtot -0.209540
 1452         hc     54    ccc     H9   1452 0.15101200   1.008000   ; qtot -0.058528
 1453          c     54    ccc     C6   1453 0.558828  12.010000   ; qtot 0.943671
 1454         oh     54    ccc     O1   1454 -0.56822625  16.000000   ; qtot 0.170585
 1455          o     54    ccc     O2   1455 -0.39142825  16.000000   ; qtot -0.493753
 1456         h1     54    ccc    H10   1456 0.07335800   1.008000   ; qtot -0.420395
 1457         h1     54    ccc    H11   1457 0.07335800   1.008000   ; qtot -0.347037
 1458         c3     54    ccc     C7   1458 -0.49079800  12.010000   ; qtot -0.837835
 1459         hc     54    ccc    H12   1459 0.15101200   1.008000   ; qtot -0.686823
 1460         hc     54    ccc    H13   1460 0.15101200   1.008000   ; qtot -0.535811
 1461          c     54    ccc     C8   1461 0.558828  12.010000   ; qtot 0.466388
 1462          o     54    ccc     O3   1462 -0.39142825  16.000000   ; qtot -0.197950
 1463         oh     54    ccc     O4   1463 -0.56822625  16.000000   ; qtot -0.971036
 1464         ho     54    ccc    H14   1464 0.4511195   1.008000   ; qtot -0.485518
 1465         ho     54    ccc    H15   1465 0.4511195   1.008000   ; qtot -0.000000
; residue   55 ccc rtp ccc q 0.0
 1466          n     55    ccc     N1   1466 -0.87251700  14.010000   ; qtot -0.872517
 1467         hn     55    ccc     H1   1467 0.46040000   1.008000   ; qtot -0.412117
 1468         c3     55    ccc     C1   1468 0.65477900  12.010000   ; qtot 0.242662
 1469         h1     55    ccc     H2   1469 -0.08959600   1.008000   ; qtot 0.153066
 1470         c3     55    ccc     C2   1470 0.03619700  12.010000   ; qtot 0.189263
 1471         h1     55    ccc     H3   1471 -0.08959600   1.008000   ; qtot 0.099667
 1472         h1     55    ccc     H4   1472 0.06927800   1.008000   ; qtot 0.168945
 1473         h1     55    ccc     H5   1473 0.06927800   1.008000   ; qtot 0.238223
 1474         n3     55    ccc     N2   1474 -0.61358100  14.010000   ; qtot -0.375358
 1475         c3     55    ccc     C3   1475 0.17944400  12.010000   ; qtot -0.195914
 1476         c3     55    ccc     C4   1476 0.17944400  12.010000   ; qtot -0.016470
 1477         h1     55    ccc     H6   1477 0.07335800   1.008000   ; qtot 0.056888
 1478         c3     55    ccc     C5   1478 -0.49079800  12.010000   ; qtot -0.433910
 1479         h1     55    ccc     H7   1479 0.07335800   1.008000   ; qtot -0.360552
 1480         hc     55    ccc     H8   1480 0.15101200   1.008000   ; qtot -0.209540
 1481         hc     55    ccc     H9   1481 0.15101200   1.008000   ; qtot -0.058528
 1482          c     55    ccc     C6   1482 0.558828  12.010000   ; qtot 0.943671
 1483         oh     55    ccc     O1   1483 -0.56822625  16.000000   ; qtot 0.170585
 1484          o     55    ccc     O2   1484 -0.39142825  16.000000   ; qtot -0.493753
 1485         h1     55    ccc    H10   1485 0.07335800   1.008000   ; qtot -0.420395
 1486         h1     55    ccc    H11   1486 0.07335800   1.008000   ; qtot -0.347037
 1487         c3     55    ccc     C7   1487 -0.49079800  12.010000   ; qtot -0.837835
 1488         hc     55    ccc    H12   1488 0.15101200   1.008000   ; qtot -0.686823
 1489         hc     55    ccc    H13   1489 0.15101200   1.008000   ; qtot -0.535811
 1490          c     55    ccc     C8   1490 0.558828  12.010000   ; qtot 0.466388
 1491          o     55    ccc     O3   1491 -0.39142825  16.000000   ; qtot -0.197950
 1492         oh     55    ccc     O4   1492 -0.56822625  16.000000   ; qtot -0.971036
 1493         ho     55    ccc    H14   1493 0.4511195   1.008000   ; qtot -0.485518
 1494         ho     55    ccc    H15   1494 0.4511195   1.008000   ; qtot -0.000000
; residue   56 ccc rtp ccc q 0.0
 1495          n     56    ccc     N1   1495 -0.87251700  14.010000   ; qtot -0.872517
 1496         hn     56    ccc     H1   1496 0.46040000   1.008000   ; qtot -0.412117
 1497         c3     56    ccc     C1   1497 0.65477900  12.010000   ; qtot 0.242662
 1498         h1     56    ccc     H2   1498 -0.08959600   1.008000   ; qtot 0.153066
 1499         c3     56    ccc     C2   1499 0.03619700  12.010000   ; qtot 0.189263
 1500         h1     56    ccc     H3   1500 -0.08959600   1.008000   ; qtot 0.099667
 1501         h1     56    ccc     H4   1501 0.06927800   1.008000   ; qtot 0.168945
 1502         h1     56    ccc     H5   1502 0.06927800   1.008000   ; qtot 0.238223
 1503         n3     56    ccc     N2   1503 -0.61358100  14.010000   ; qtot -0.375358
 1504         c3     56    ccc     C3   1504 0.17944400  12.010000   ; qtot -0.195914
 1505         c3     56    ccc     C4   1505 0.17944400  12.010000   ; qtot -0.016470
 1506         h1     56    ccc     H6   1506 0.07335800   1.008000   ; qtot 0.056888
 1507         c3     56    ccc     C5   1507 -0.49079800  12.010000   ; qtot -0.433910
 1508         h1     56    ccc     H7   1508 0.07335800   1.008000   ; qtot -0.360552
 1509         hc     56    ccc     H8   1509 0.15101200   1.008000   ; qtot -0.209540
 1510         hc     56    ccc     H9   1510 0.15101200   1.008000   ; qtot -0.058528
 1511          c     56    ccc     C6   1511 0.558828  12.010000   ; qtot 0.943671
 1512         oh     56    ccc     O1   1512 -0.56822625  16.000000   ; qtot 0.170585
 1513          o     56    ccc     O2   1513 -0.39142825  16.000000   ; qtot -0.493753
 1514         h1     56    ccc    H10   1514 0.07335800   1.008000   ; qtot -0.420395
 1515         h1     56    ccc    H11   1515 0.07335800   1.008000   ; qtot -0.347037
 1516         c3     56    ccc     C7   1516 -0.49079800  12.010000   ; qtot -0.837835
 1517         hc     56    ccc    H12   1517 0.15101200   1.008000   ; qtot -0.686823
 1518         hc     56    ccc    H13   1518 0.15101200   1.008000   ; qtot -0.535811
 1519          c     56    ccc     C8   1519 0.558828  12.010000   ; qtot 0.466388
 1520          o     56    ccc     O3   1520 -0.39142825  16.000000   ; qtot -0.197950
 1521         oh     56    ccc     O4   1521 -0.56822625  16.000000   ; qtot -0.971036
 1522         ho     56    ccc    H14   1522 0.4511195   1.008000   ; qtot -0.485518
 1523         ho     56    ccc    H15   1523 0.4511195   1.008000   ; qtot -0.000000
; residue   57 ccc rtp ccc q 0.0
 1524          n     57    ccc     N1   1524 -0.87251700  14.010000   ; qtot -0.872517
 1525         hn     57    ccc     H1   1525 0.46040000   1.008000   ; qtot -0.412117
 1526         c3     57    ccc     C1   1526 0.65477900  12.010000   ; qtot 0.242662
 1527         h1     57    ccc     H2   1527 -0.08959600   1.008000   ; qtot 0.153066
 1528         c3     57    ccc     C2   1528 0.03619700  12.010000   ; qtot 0.189263
 1529         h1     57    ccc     H3   1529 -0.08959600   1.008000   ; qtot 0.099667
 1530         h1     57    ccc     H4   1530 0.06927800   1.008000   ; qtot 0.168945
 1531         h1     57    ccc     H5   1531 0.06927800   1.008000   ; qtot 0.238223
 1532         n3     57    ccc     N2   1532 -0.61358100  14.010000   ; qtot -0.375358
 1533         c3     57    ccc     C3   1533 0.17944400  12.010000   ; qtot -0.195914
 1534         c3     57    ccc     C4   1534 0.17944400  12.010000   ; qtot -0.016470
 1535         h1     57    ccc     H6   1535 0.07335800   1.008000   ; qtot 0.056888
 1536         c3     57    ccc     C5   1536 -0.49079800  12.010000   ; qtot -0.433910
 1537         h1     57    ccc     H7   1537 0.07335800   1.008000   ; qtot -0.360552
 1538         hc     57    ccc     H8   1538 0.15101200   1.008000   ; qtot -0.209540
 1539         hc     57    ccc     H9   1539 0.15101200   1.008000   ; qtot -0.058528
 1540          c     57    ccc     C6   1540 0.558828  12.010000   ; qtot 0.943671
 1541         oh     57    ccc     O1   1541 -0.56822625  16.000000   ; qtot 0.170585
 1542          o     57    ccc     O2   1542 -0.39142825  16.000000   ; qtot -0.493753
 1543         h1     57    ccc    H10   1543 0.07335800   1.008000   ; qtot -0.420395
 1544         h1     57    ccc    H11   1544 0.07335800   1.008000   ; qtot -0.347037
 1545         c3     57    ccc     C7   1545 -0.49079800  12.010000   ; qtot -0.837835
 1546         hc     57    ccc    H12   1546 0.15101200   1.008000   ; qtot -0.686823
 1547         hc     57    ccc    H13   1547 0.15101200   1.008000   ; qtot -0.535811
 1548          c     57    ccc     C8   1548 0.558828  12.010000   ; qtot 0.466388
 1549          o     57    ccc     O3   1549 -0.39142825  16.000000   ; qtot -0.197950
 1550         oh     57    ccc     O4   1550 -0.56822625  16.000000   ; qtot -0.971036
 1551         ho     57    ccc    H14   1551 0.4511195   1.008000   ; qtot -0.485518
 1552         ho     57    ccc    H15   1552 0.4511195   1.008000   ; qtot -0.000000
; residue   58 ccc rtp ccc q 0.0
 1553          n     58    ccc     N1   1553 -0.87251700  14.010000   ; qtot -0.872517
 1554         hn     58    ccc     H1   1554 0.46040000   1.008000   ; qtot -0.412117
 1555         c3     58    ccc     C1   1555 0.65477900  12.010000   ; qtot 0.242662
 1556         h1     58    ccc     H2   1556 -0.08959600   1.008000   ; qtot 0.153066
 1557         c3     58    ccc     C2   1557 0.03619700  12.010000   ; qtot 0.189263
 1558         h1     58    ccc     H3   1558 -0.08959600   1.008000   ; qtot 0.099667
 1559         h1     58    ccc     H4   1559 0.06927800   1.008000   ; qtot 0.168945
 1560         h1     58    ccc     H5   1560 0.06927800   1.008000   ; qtot 0.238223
 1561         n3     58    ccc     N2   1561 -0.61358100  14.010000   ; qtot -0.375358
 1562         c3     58    ccc     C3   1562 0.17944400  12.010000   ; qtot -0.195914
 1563         c3     58    ccc     C4   1563 0.17944400  12.010000   ; qtot -0.016470
 1564         h1     58    ccc     H6   1564 0.07335800   1.008000   ; qtot 0.056888
 1565         c3     58    ccc     C5   1565 -0.49079800  12.010000   ; qtot -0.433910
 1566         h1     58    ccc     H7   1566 0.07335800   1.008000   ; qtot -0.360552
 1567         hc     58    ccc     H8   1567 0.15101200   1.008000   ; qtot -0.209540
 1568         hc     58    ccc     H9   1568 0.15101200   1.008000   ; qtot -0.058528
 1569          c     58    ccc     C6   1569 0.558828  12.010000   ; qtot 0.943671
 1570         oh     58    ccc     O1   1570 -0.56822625  16.000000   ; qtot 0.170585
 1571          o     58    ccc     O2   1571 -0.39142825  16.000000   ; qtot -0.493753
 1572         h1     58    ccc    H10   1572 0.07335800   1.008000   ; qtot -0.420395
 1573         h1     58    ccc    H11   1573 0.07335800   1.008000   ; qtot -0.347037
 1574         c3     58    ccc     C7   1574 -0.49079800  12.010000   ; qtot -0.837835
 1575         hc     58    ccc    H12   1575 0.15101200   1.008000   ; qtot -0.686823
 1576         hc     58    ccc    H13   1576 0.15101200   1.008000   ; qtot -0.535811
 1577          c     58    ccc     C8   1577 0.558828  12.010000   ; qtot 0.466388
 1578          o     58    ccc     O3   1578 -0.39142825  16.000000   ; qtot -0.197950
 1579         oh     58    ccc     O4   1579 -0.56822625  16.000000   ; qtot -0.971036
 1580         ho     58    ccc    H14   1580 0.4511195   1.008000   ; qtot -0.485518
 1581         ho     58    ccc    H15   1581 0.4511195   1.008000   ; qtot -0.000000
; residue   59 ccc rtp ccc q 0.0
 1582          n     59    ccc     N1   1582 -0.87251700  14.010000   ; qtot -0.872517
 1583         hn     59    ccc     H1   1583 0.46040000   1.008000   ; qtot -0.412117
 1584         c3     59    ccc     C1   1584 0.65477900  12.010000   ; qtot 0.242662
 1585         h1     59    ccc     H2   1585 -0.08959600   1.008000   ; qtot 0.153066
 1586         c3     59    ccc     C2   1586 0.03619700  12.010000   ; qtot 0.189263
 1587         h1     59    ccc     H3   1587 -0.08959600   1.008000   ; qtot 0.099667
 1588         h1     59    ccc     H4   1588 0.06927800   1.008000   ; qtot 0.168945
 1589         h1     59    ccc     H5   1589 0.06927800   1.008000   ; qtot 0.238223
 1590         n3     59    ccc     N2   1590 -0.61358100  14.010000   ; qtot -0.375358
 1591         c3     59    ccc     C3   1591 0.17944400  12.010000   ; qtot -0.195914
 1592         c3     59    ccc     C4   1592 0.17944400  12.010000   ; qtot -0.016470
 1593         h1     59    ccc     H6   1593 0.07335800   1.008000   ; qtot 0.056888
 1594         c3     59    ccc     C5   1594 -0.49079800  12.010000   ; qtot -0.433910
 1595         h1     59    ccc     H7   1595 0.07335800   1.008000   ; qtot -0.360552
 1596         hc     59    ccc     H8   1596 0.15101200   1.008000   ; qtot -0.209540
 1597         hc     59    ccc     H9   1597 0.15101200   1.008000   ; qtot -0.058528
 1598          c     59    ccc     C6   1598 0.558828  12.010000   ; qtot 0.943671
 1599         oh     59    ccc     O1   1599 -0.56822625  16.000000   ; qtot 0.170585
 1600          o     59    ccc     O2   1600 -0.39142825  16.000000   ; qtot -0.493753
 1601         h1     59    ccc    H10   1601 0.07335800   1.008000   ; qtot -0.420395
 1602         h1     59    ccc    H11   1602 0.07335800   1.008000   ; qtot -0.347037
 1603         c3     59    ccc     C7   1603 -0.49079800  12.010000   ; qtot -0.837835
 1604         hc     59    ccc    H12   1604 0.15101200   1.008000   ; qtot -0.686823
 1605         hc     59    ccc    H13   1605 0.15101200   1.008000   ; qtot -0.535811
 1606          c     59    ccc     C8   1606 0.558828  12.010000   ; qtot 0.466388
 1607          o     59    ccc     O3   1607 -0.39142825  16.000000   ; qtot -0.197950
 1608         oh     59    ccc     O4   1608 -0.56822625  16.000000   ; qtot -0.971036
 1609         ho     59    ccc    H14   1609 0.4511195   1.008000   ; qtot -0.485518
 1610         ho     59    ccc    H15   1610 0.4511195   1.008000   ; qtot -0.000000
; residue   60 ccc rtp ccc q 0.0
 1611          n     60    ccc     N1   1611 -0.87251700  14.010000   ; qtot -0.872517
 1612         hn     60    ccc     H1   1612 0.46040000   1.008000   ; qtot -0.412117
 1613         c3     60    ccc     C1   1613 0.65477900  12.010000   ; qtot 0.242662
 1614         h1     60    ccc     H2   1614 -0.08959600   1.008000   ; qtot 0.153066
 1615         c3     60    ccc     C2   1615 0.03619700  12.010000   ; qtot 0.189263
 1616         h1     60    ccc     H3   1616 -0.08959600   1.008000   ; qtot 0.099667
 1617         h1     60    ccc     H4   1617 0.06927800   1.008000   ; qtot 0.168945
 1618         h1     60    ccc     H5   1618 0.06927800   1.008000   ; qtot 0.238223
 1619         n3     60    ccc     N2   1619 -0.61358100  14.010000   ; qtot -0.375358
 1620         c3     60    ccc     C3   1620 0.17944400  12.010000   ; qtot -0.195914
 1621         c3     60    ccc     C4   1621 0.17944400  12.010000   ; qtot -0.016470
 1622         h1     60    ccc     H6   1622 0.07335800   1.008000   ; qtot 0.056888
 1623         c3     60    ccc     C5   1623 -0.49079800  12.010000   ; qtot -0.433910
 1624         h1     60    ccc     H7   1624 0.07335800   1.008000   ; qtot -0.360552
 1625         hc     60    ccc     H8   1625 0.15101200   1.008000   ; qtot -0.209540
 1626         hc     60    ccc     H9   1626 0.15101200   1.008000   ; qtot -0.058528
 1627          c     60    ccc     C6   1627 0.558828  12.010000   ; qtot 0.943671
 1628         oh     60    ccc     O1   1628 -0.56822625  16.000000   ; qtot 0.170585
 1629          o     60    ccc     O2   1629 -0.39142825  16.000000   ; qtot -0.493753
 1630         h1     60    ccc    H10   1630 0.07335800   1.008000   ; qtot -0.420395
 1631         h1     60    ccc    H11   1631 0.07335800   1.008000   ; qtot -0.347037
 1632         c3     60    ccc     C7   1632 -0.49079800  12.010000   ; qtot -0.837835
 1633         hc     60    ccc    H12   1633 0.15101200   1.008000   ; qtot -0.686823
 1634         hc     60    ccc    H13   1634 0.15101200   1.008000   ; qtot -0.535811
 1635          c     60    ccc     C8   1635 0.558828  12.010000   ; qtot 0.466388
 1636          o     60    ccc     O3   1636 -0.39142825  16.000000   ; qtot -0.197950
 1637         oh     60    ccc     O4   1637 -0.56822625  16.000000   ; qtot -0.971036
 1638         ho     60    ccc    H14   1638 0.4511195   1.008000   ; qtot -0.485518
 1639         ho     60    ccc    H15   1639 0.4511195   1.008000   ; qtot -0.000000
; residue   61 ccc rtp ccc q 0.0
 1640          n     61    ccc     N1   1640 -0.87251700  14.010000   ; qtot -0.872517
 1641         hn     61    ccc     H1   1641 0.46040000   1.008000   ; qtot -0.412117
 1642         c3     61    ccc     C1   1642 0.65477900  12.010000   ; qtot 0.242662
 1643         h1     61    ccc     H2   1643 -0.08959600   1.008000   ; qtot 0.153066
 1644         c3     61    ccc     C2   1644 0.03619700  12.010000   ; qtot 0.189263
 1645         h1     61    ccc     H3   1645 -0.08959600   1.008000   ; qtot 0.099667
 1646         h1     61    ccc     H4   1646 0.06927800   1.008000   ; qtot 0.168945
 1647         h1     61    ccc     H5   1647 0.06927800   1.008000   ; qtot 0.238223
 1648         n3     61    ccc     N2   1648 -0.61358100  14.010000   ; qtot -0.375358
 1649         c3     61    ccc     C3   1649 0.17944400  12.010000   ; qtot -0.195914
 1650         c3     61    ccc     C4   1650 0.17944400  12.010000   ; qtot -0.016470
 1651         h1     61    ccc     H6   1651 0.07335800   1.008000   ; qtot 0.056888
 1652         c3     61    ccc     C5   1652 -0.49079800  12.010000   ; qtot -0.433910
 1653         h1     61    ccc     H7   1653 0.07335800   1.008000   ; qtot -0.360552
 1654         hc     61    ccc     H8   1654 0.15101200   1.008000   ; qtot -0.209540
 1655         hc     61    ccc     H9   1655 0.15101200   1.008000   ; qtot -0.058528
 1656          c     61    ccc     C6   1656 0.558828  12.010000   ; qtot 0.943671
 1657         oh     61    ccc     O1   1657 -0.56822625  16.000000   ; qtot 0.170585
 1658          o     61    ccc     O2   1658 -0.39142825  16.000000   ; qtot -0.493753
 1659         h1     61    ccc    H10   1659 0.07335800   1.008000   ; qtot -0.420395
 1660         h1     61    ccc    H11   1660 0.07335800   1.008000   ; qtot -0.347037
 1661         c3     61    ccc     C7   1661 -0.49079800  12.010000   ; qtot -0.837835
 1662         hc     61    ccc    H12   1662 0.15101200   1.008000   ; qtot -0.686823
 1663         hc     61    ccc    H13   1663 0.15101200   1.008000   ; qtot -0.535811
 1664          c     61    ccc     C8   1664 0.558828  12.010000   ; qtot 0.466388
 1665          o     61    ccc     O3   1665 -0.39142825  16.000000   ; qtot -0.197950
 1666         oh     61    ccc     O4   1666 -0.56822625  16.000000   ; qtot -0.971036
 1667         ho     61    ccc    H14   1667 0.4511195   1.008000   ; qtot -0.485518
 1668         ho     61    ccc    H15   1668 0.4511195   1.008000   ; qtot -0.000000

[ bonds ]
;    ai     aj funct         c0         c1         c2         c3
      1      4     1   0.15375 251793.120000
      1      8     1   0.14647 272713.120000
      4      7     1   0.14647 272713.120000
      7     15     1   0.14647 272713.120000
      7     18     1   0.14647 272713.120000
      8      9     1   0.14647 272713.120000
      8     12     1   0.14647 272713.120000
      9     30     1   0.15375 251793.120000
     12     27     1   0.15375 251793.120000
     15     21     1   0.15375 251793.120000
     18     24     1   0.15375 251793.120000
     21     35     1   0.15241 261918.400000
     24     36     1   0.15241 261918.400000
     27     33     1   0.15241 261918.400000
     30     34     1   0.15241 261918.400000
     33     37     1   0.12183 533627.360000
     33     64     1   0.13789 357815.680000
     34     40     1   0.12183 533627.360000
     34     89     1   0.13789 357815.680000
     35     38     1   0.12183 533627.360000
     35    114     1   0.13789 357815.680000
     36     39     1   0.12183 533627.360000
     36    139     1   0.13789 357815.680000
     41     44     1   0.15375 251793.120000
     41     47     1   0.14647 272713.120000
     44     64     1   0.14619 275056.160000
     47     48     1   0.14647 272713.120000
     47     51     1   0.14647 272713.120000
     48     57     1   0.15375 251793.120000
     51     54     1   0.15375 251793.120000
     54     60     1   0.15241 261918.400000
     57     61     1   0.15241 261918.400000
     60     62     1   0.12183 533627.360000
     60    164     1   0.13789 357815.680000
     61     63     1   0.12183 533627.360000
     61    189     1   0.13789 357815.680000
     66     69     1   0.15375 251793.120000
     66     72     1   0.14647 272713.120000
     69     89     1   0.14619 275056.160000
     72     73     1   0.14647 272713.120000
     72     76     1   0.14647 272713.120000
     73     82     1   0.15375 251793.120000
     76     79     1   0.15375 251793.120000
     79     85     1   0.15241 261918.400000
     82     86     1   0.15241 261918.400000
     85     87     1   0.12183 533627.360000
     85    214     1   0.13789 357815.680000
     86     88     1   0.12183 533627.360000
     86    239     1   0.13789 357815.680000
     91     94     1   0.15375 251793.120000
     91     97     1   0.14647 272713.120000
     94    114     1   0.14619 275056.160000
     97     98     1   0.14647 272713.120000
     97    101     1   0.14647 272713.120000
     98    107     1   0.15375 251793.120000
    101    104     1   0.15375 251793.120000
    104    110     1   0.15241 261918.400000
    107    111     1   0.15241 261918.400000
    110    112     1   0.12183 533627.360000
    110    264     1   0.13789 357815.680000
    111    113     1   0.12183 533627.360000
    111    289     1   0.13789 357815.680000
    116    119     1   0.15375 251793.120000
    116    122     1   0.14647 272713.120000
    119    139     1   0.14619 275056.160000
    122    123     1   0.14647 272713.120000
    122    126     1   0.14647 272713.120000
    123    132     1   0.15375 251793.120000
    126    129     1   0.15375 251793.120000
    129    135     1   0.15241 261918.400000
    132    136     1   0.15241 261918.400000
    135    137     1   0.12183 533627.360000
    135    314     1   0.13789 357815.680000
    136    138     1   0.12183 533627.360000
    136    339     1   0.13789 357815.680000
    141    144     1   0.15375 251793.120000
    141    147     1   0.14647 272713.120000
    144    164     1   0.14619 275056.160000
    147    148     1   0.14647 272713.120000
    147    151     1   0.14647 272713.120000
    148    157     1   0.15375 251793.120000
    151    154     1   0.15375 251793.120000
    154    160     1   0.15241 261918.400000
    157    161     1   0.15241 261918.400000
    160    162     1   0.12183 533627.360000
    160    364     1   0.13789 357815.680000
    161    163     1   0.12183 533627.360000
    161    389     1   0.13789 357815.680000
    166    169     1   0.15375 251793.120000
    166    172     1   0.14647 272713.120000
    169    189     1   0.14619 275056.160000
    172    173     1   0.14647 272713.120000
    172    176     1   0.14647 272713.120000
    173    182     1   0.15375 251793.120000
    176    179     1   0.15375 251793.120000
    179    185     1   0.15241 261918.400000
    182    186     1   0.15241 261918.400000
    185    187     1   0.12183 533627.360000
    185    414     1   0.13789 357815.680000
    186    188     1   0.12183 533627.360000
    186    439     1   0.13789 357815.680000
    191    194     1   0.15375 251793.120000
    191    197     1   0.14647 272713.120000
    194    214     1   0.14619 275056.160000
    197    198     1   0.14647 272713.120000
    197    201     1   0.14647 272713.120000
    198    207     1   0.15375 251793.120000
    201    204     1   0.15375 251793.120000
    204    210     1   0.15241 261918.400000
    207    211     1   0.15241 261918.400000
    210    212     1   0.12183 533627.360000
    210    464     1   0.13789 357815.680000
    211    213     1   0.12183 533627.360000
    211    489     1   0.13789 357815.680000
    216    219     1   0.15375 251793.120000
    216    222     1   0.14647 272713.120000
    219    239     1   0.14619 275056.160000
    222    223     1   0.14647 272713.120000
    222    226     1   0.14647 272713.120000
    223    232     1   0.15375 251793.120000
    226    229     1   0.15375 251793.120000
    229    235     1   0.15241 261918.400000
    232    236     1   0.15241 261918.400000
    235    237     1   0.12183 533627.360000
    235    514     1   0.13789 357815.680000
    236    238     1   0.12183 533627.360000
    236    539     1   0.13789 357815.680000
    241    244     1   0.15375 251793.120000
    241    247     1   0.14647 272713.120000
    244    264     1   0.14619 275056.160000
    247    248     1   0.14647 272713.120000
    247    251     1   0.14647 272713.120000
    248    257     1   0.15375 251793.120000
    251    254     1   0.15375 251793.120000
    254    260     1   0.15241 261918.400000
    257    261     1   0.15241 261918.400000
    260    262     1   0.12183 533627.360000
    260    564     1   0.13789 357815.680000
    261    263     1   0.12183 533627.360000
    261    589     1   0.13789 357815.680000
    266    269     1   0.15375 251793.120000
    266    272     1   0.14647 272713.120000
    269    289     1   0.14619 275056.160000
    272    273     1   0.14647 272713.120000
    272    276     1   0.14647 272713.120000
    273    282     1   0.15375 251793.120000
    276    279     1   0.15375 251793.120000
    279    285     1   0.15241 261918.400000
    282    286     1   0.15241 261918.400000
    285    287     1   0.12183 533627.360000
    285    614     1   0.13789 357815.680000
    286    288     1   0.12183 533627.360000
    286    639     1   0.13789 357815.680000
    291    294     1   0.15375 251793.120000
    291    297     1   0.14647 272713.120000
    294    314     1   0.14619 275056.160000
    297    298     1   0.14647 272713.120000
    297    301     1   0.14647 272713.120000
    298    307     1   0.15375 251793.120000
    301    304     1   0.15375 251793.120000
    304    310     1   0.15241 261918.400000
    307    311     1   0.15241 261918.400000
    310    312     1   0.12183 533627.360000
    310    664     1   0.13789 357815.680000
    311    313     1   0.12183 533627.360000
    311    689     1   0.13789 357815.680000
    316    319     1   0.15375 251793.120000
    316    322     1   0.14647 272713.120000
    319    339     1   0.14619 275056.160000
    322    323     1   0.14647 272713.120000
    322    326     1   0.14647 272713.120000
    323    332     1   0.15375 251793.120000
    326    329     1   0.15375 251793.120000
    329    335     1   0.15241 261918.400000
    332    336     1   0.15241 261918.400000
    335    337     1   0.12183 533627.360000
    335    714     1   0.13789 357815.680000
    336    338     1   0.12183 533627.360000
    336    739     1   0.13789 357815.680000
    341    344     1   0.15375 251793.120000
    341    347     1   0.14647 272713.120000
    344    364     1   0.14619 275056.160000
    347    348     1   0.14647 272713.120000
    347    351     1   0.14647 272713.120000
    348    357     1   0.15375 251793.120000
    351    354     1   0.15375 251793.120000
    354    360     1   0.15241 261918.400000
    357    361     1   0.15241 261918.400000
    360    741     1   0.13789 357815.680000
    360    362     1   0.12183 533627.360000
    361    363     1   0.12183 533627.360000
    361    770     1   0.13789 357815.680000
    366    369     1   0.15375 251793.120000
    366    372     1   0.14647 272713.120000
    369    389     1   0.14619 275056.160000
    372    373     1   0.14647 272713.120000
    372    376     1   0.14647 272713.120000
    373    382     1   0.15375 251793.120000
    376    379     1   0.15375 251793.120000
    379    385     1   0.15241 261918.400000
    382    386     1   0.15241 261918.400000
    385    799     1   0.13789 357815.680000
    385    387     1   0.12183 533627.360000
    386    388     1   0.12183 533627.360000
    386    828     1   0.13789 357815.680000
    391    394     1   0.15375 251793.120000
    391    397     1   0.14647 272713.120000
    394    414     1   0.14619 275056.160000
    397    398     1   0.14647 272713.120000
    397    401     1   0.14647 272713.120000
    398    407     1   0.15375 251793.120000
    401    404     1   0.15375 251793.120000
    404    410     1   0.15241 261918.400000
    407    411     1   0.15241 261918.400000
    410    857     1   0.13789 357815.680000
    410    412     1   0.12183 533627.360000
    411    413     1   0.12183 533627.360000
    411    886     1   0.13789 357815.680000
    416    419     1   0.15375 251793.120000
    416    422     1   0.14647 272713.120000
    419    439     1   0.14619 275056.160000
    422    423     1   0.14647 272713.120000
    422    426     1   0.14647 272713.120000
    423    432     1   0.15375 251793.120000
    426    429     1   0.15375 251793.120000
    429    435     1   0.15241 261918.400000
    432    436     1   0.15241 261918.400000
    435    915     1   0.13789 357815.680000
    435    437     1   0.12183 533627.360000
    436    438     1   0.12183 533627.360000
    436    944     1   0.13789 357815.680000
    441    444     1   0.15375 251793.120000
    441    447     1   0.14647 272713.120000
    444    464     1   0.14619 275056.160000
    447    448     1   0.14647 272713.120000
    447    451     1   0.14647 272713.120000
    448    457     1   0.15375 251793.120000
    451    454     1   0.15375 251793.120000
    454    460     1   0.15241 261918.400000
    457    461     1   0.15241 261918.400000
    460    973     1   0.13789 357815.680000
    460    462     1   0.12183 533627.360000
    461    463     1   0.12183 533627.360000
    461   1002     1   0.13789 357815.680000
    466    469     1   0.15375 251793.120000
    466    472     1   0.14647 272713.120000
    469    489     1   0.14619 275056.160000
    472    473     1   0.14647 272713.120000
    472    476     1   0.14647 272713.120000
    473    482     1   0.15375 251793.120000
    476    479     1   0.15375 251793.120000
    479    485     1   0.15241 261918.400000
    482    486     1   0.15241 261918.400000
    485   1031     1   0.13789 357815.680000
    485    487     1   0.12183 533627.360000
    486    488     1   0.12183 533627.360000
    486   1060     1   0.13789 357815.680000
    491    494     1   0.15375 251793.120000
    491    497     1   0.14647 272713.120000
    494    514     1   0.14619 275056.160000
    497    498     1   0.14647 272713.120000
    497    501     1   0.14647 272713.120000
    498    507     1   0.15375 251793.120000
    501    504     1   0.15375 251793.120000
    504    510     1   0.15241 261918.400000
    507    511     1   0.15241 261918.400000
    510   1089     1   0.13789 357815.680000
    510    512     1   0.12183 533627.360000
    511    513     1   0.12183 533627.360000
    511   1118     1   0.13789 357815.680000
    516    519     1   0.15375 251793.120000
    516    522     1   0.14647 272713.120000
    519    539     1   0.14619 275056.160000
    522    523     1   0.14647 272713.120000
    522    526     1   0.14647 272713.120000
    523    532     1   0.15375 251793.120000
    526    529     1   0.15375 251793.120000
    529    535     1   0.15241 261918.400000
    532    536     1   0.15241 261918.400000
    535   1147     1   0.13789 357815.680000
    535    537     1   0.12183 533627.360000
    536    538     1   0.12183 533627.360000
    536   1176     1   0.13789 357815.680000
    541    544     1   0.15375 251793.120000
    541    547     1   0.14647 272713.120000
    544    564     1   0.14619 275056.160000
    547    548     1   0.14647 272713.120000
    547    551     1   0.14647 272713.120000
    548    557     1   0.15375 251793.120000
    551    554     1   0.15375 251793.120000
    554    560     1   0.15241 261918.400000
    557    561     1   0.15241 261918.400000
    560   1205     1   0.13789 357815.680000
    560    562     1   0.12183 533627.360000
    561    563     1   0.12183 533627.360000
    561   1234     1   0.13789 357815.680000
    566    569     1   0.15375 251793.120000
    566    572     1   0.14647 272713.120000
    569    589     1   0.14619 275056.160000
    572    573     1   0.14647 272713.120000
    572    576     1   0.14647 272713.120000
    573    582     1   0.15375 251793.120000
    576    579     1   0.15375 251793.120000
    579    585     1   0.15241 261918.400000
    582    586     1   0.15241 261918.400000
    585   1263     1   0.13789 357815.680000
    585    587     1   0.12183 533627.360000
    586    588     1   0.12183 533627.360000
    586   1292     1   0.13789 357815.680000
    591    594     1   0.15375 251793.120000
    591    597     1   0.14647 272713.120000
    594    614     1   0.14619 275056.160000
    597    598     1   0.14647 272713.120000
    597    601     1   0.14647 272713.120000
    598    607     1   0.15375 251793.120000
    601    604     1   0.15375 251793.120000
    604    610     1   0.15241 261918.400000
    607    611     1   0.15241 261918.400000
    610   1321     1   0.13789 357815.680000
    610    612     1   0.12183 533627.360000
    611    613     1   0.12183 533627.360000
    611   1350     1   0.13789 357815.680000
    616    619     1   0.15375 251793.120000
    616    622     1   0.14647 272713.120000
    619    639     1   0.14619 275056.160000
    622    623     1   0.14647 272713.120000
    622    626     1   0.14647 272713.120000
    623    632     1   0.15375 251793.120000
    626    629     1   0.15375 251793.120000
    629    635     1   0.15241 261918.400000
    632    636     1   0.15241 261918.400000
    635   1379     1   0.13789 357815.680000
    635    637     1   0.12183 533627.360000
    636    638     1   0.12183 533627.360000
    636   1408     1   0.13789 357815.680000
    641    644     1   0.15375 251793.120000
    641    647     1   0.14647 272713.120000
    644    664     1   0.14619 275056.160000
    647    648     1   0.14647 272713.120000
    647    651     1   0.14647 272713.120000
    648    657     1   0.15375 251793.120000
    651    654     1   0.15375 251793.120000
    654    660     1   0.15241 261918.400000
    657    661     1   0.15241 261918.400000
    660   1437     1   0.13789 357815.680000
    660    662     1   0.12183 533627.360000
    661    663     1   0.12183 533627.360000
    661   1466     1   0.13789 357815.680000
    666    669     1   0.15375 251793.120000
    666    672     1   0.14647 272713.120000
    669    689     1   0.14619 275056.160000
    672    673     1   0.14647 272713.120000
    672    676     1   0.14647 272713.120000
    673    682     1   0.15375 251793.120000
    676    679     1   0.15375 251793.120000
    679    685     1   0.15241 261918.400000
    682    686     1   0.15241 261918.400000
    685   1495     1   0.13789 357815.680000
    685    687     1   0.12183 533627.360000
    686    688     1   0.12183 533627.360000
    686   1524     1   0.13789 357815.680000
    691    694     1   0.15375 251793.120000
    691    697     1   0.14647 272713.120000
    694    714     1   0.14619 275056.160000
    697    698     1   0.14647 272713.120000
    697    701     1   0.14647 272713.120000
    698    707     1   0.15375 251793.120000
    701    704     1   0.15375 251793.120000
    704    710     1   0.15241 261918.400000
    707    711     1   0.15241 261918.400000
    710   1553     1   0.13789 357815.680000
    710    712     1   0.12183 533627.360000
    711    713     1   0.12183 533627.360000
    711   1582     1   0.13789 357815.680000
    716    719     1   0.15375 251793.120000
    716    722     1   0.14647 272713.120000
    719    739     1   0.14619 275056.160000
    722    723     1   0.14647 272713.120000
    722    726     1   0.14647 272713.120000
    723    732     1   0.15375 251793.120000
    726    729     1   0.15375 251793.120000
    729    735     1   0.15241 261918.400000
    732    736     1   0.15241 261918.400000
    735   1611     1   0.13789 357815.680000
    735    737     1   0.12183 533627.360000
    736   1640     1   0.13789 357815.680000
    736    738     1   0.12183 533627.360000
    741    743     1   0.14619 275056.160000
    743    745     1   0.15375 251793.120000
    745    749     1   0.14647 272713.120000
    749    750     1   0.14647 272713.120000
    749    751     1   0.14647 272713.120000
    750    762     1   0.15375 251793.120000
    751    753     1   0.15375 251793.120000
    753    757     1   0.15241 261918.400000
    757    758     1   0.13513 334803.680000
    757    759     1   0.12183 533627.360000
    762    765     1   0.15241 261918.400000
    765    766     1   0.12183 533627.360000
    765    767     1   0.13513 334803.680000
    770    772     1   0.14619 275056.160000
    772    774     1   0.15375 251793.120000
    774    778     1   0.14647 272713.120000
    778    779     1   0.14647 272713.120000
    778    780     1   0.14647 272713.120000
    779    791     1   0.15375 251793.120000
    780    782     1   0.15375 251793.120000
    782    786     1   0.15241 261918.400000
    786    787     1   0.13513 334803.680000
    786    788     1   0.12183 533627.360000
    791    794     1   0.15241 261918.400000
    794    795     1   0.12183 533627.360000
    794    796     1   0.13513 334803.680000
    799    801     1   0.14619 275056.160000
    801    803     1   0.15375 251793.120000
    803    807     1   0.14647 272713.120000
    807    808     1   0.14647 272713.120000
    807    809     1   0.14647 272713.120000
    808    820     1   0.15375 251793.120000
    809    811     1   0.15375 251793.120000
    811    815     1   0.15241 261918.400000
    815    816     1   0.13513 334803.680000
    815    817     1   0.12183 533627.360000
    820    823     1   0.15241 261918.400000
    823    824     1   0.12183 533627.360000
    823    825     1   0.13513 334803.680000
    828    830     1   0.14619 275056.160000
    830    832     1   0.15375 251793.120000
    832    836     1   0.14647 272713.120000
    836    837     1   0.14647 272713.120000
    836    838     1   0.14647 272713.120000
    837    849     1   0.15375 251793.120000
    838    840     1   0.15375 251793.120000
    840    844     1   0.15241 261918.400000
    844    845     1   0.13513 334803.680000
    844    846     1   0.12183 533627.360000
    849    852     1   0.15241 261918.400000
    852    853     1   0.12183 533627.360000
    852    854     1   0.13513 334803.680000
    857    859     1   0.14619 275056.160000
    859    861     1   0.15375 251793.120000
    861    865     1   0.14647 272713.120000
    865    866     1   0.14647 272713.120000
    865    867     1   0.14647 272713.120000
    866    878     1   0.15375 251793.120000
    867    869     1   0.15375 251793.120000
    869    873     1   0.15241 261918.400000
    873    874     1   0.13513 334803.680000
    873    875     1   0.12183 533627.360000
    878    881     1   0.15241 261918.400000
    881    882     1   0.12183 533627.360000
    881    883     1   0.13513 334803.680000
    886    888     1   0.14619 275056.160000
    888    890     1   0.15375 251793.120000
    890    894     1   0.14647 272713.120000
    894    895     1   0.14647 272713.120000
    894    896     1   0.14647 272713.120000
    895    907     1   0.15375 251793.120000
    896    898     1   0.15375 251793.120000
    898    902     1   0.15241 261918.400000
    902    903     1   0.13513 334803.680000
    902    904     1   0.12183 533627.360000
    907    910     1   0.15241 261918.400000
    910    911     1   0.12183 533627.360000
    910    912     1   0.13513 334803.680000
    915    917     1   0.14619 275056.160000
    917    919     1   0.15375 251793.120000
    919    923     1   0.14647 272713.120000
    923    924     1   0.14647 272713.120000
    923    925     1   0.14647 272713.120000
    924    936     1   0.15375 251793.120000
    925    927     1   0.15375 251793.120000
    927    931     1   0.15241 261918.400000
    931    932     1   0.13513 334803.680000
    931    933     1   0.12183 533627.360000
    936    939     1   0.15241 261918.400000
    939    940     1   0.12183 533627.360000
    939    941     1   0.13513 334803.680000
    944    946     1   0.14619 275056.160000
    946    948     1   0.15375 251793.120000
    948    952     1   0.14647 272713.120000
    952    953     1   0.14647 272713.120000
    952    954     1   0.14647 272713.120000
    953    965     1   0.15375 251793.120000
    954    956     1   0.15375 251793.120000
    956    960     1   0.15241 261918.400000
    960    961     1   0.13513 334803.680000
    960    962     1   0.12183 533627.360000
    965    968     1   0.15241 261918.400000
    968    969     1   0.12183 533627.360000
    968    970     1   0.13513 334803.680000
    973    975     1   0.14619 275056.160000
    975    977     1   0.15375 251793.120000
    977    981     1   0.14647 272713.120000
    981    982     1   0.14647 272713.120000
    981    983     1   0.14647 272713.120000
    982    994     1   0.15375 251793.120000
    983    985     1   0.15375 251793.120000
    985    989     1   0.15241 261918.400000
    989    990     1   0.13513 334803.680000
    989    991     1   0.12183 533627.360000
    994    997     1   0.15241 261918.400000
    997    998     1   0.12183 533627.360000
    997    999     1   0.13513 334803.680000
   1002   1004     1   0.14619 275056.160000
   1004   1006     1   0.15375 251793.120000
   1006   1010     1   0.14647 272713.120000
   1010   1011     1   0.14647 272713.120000
   1010   1012     1   0.14647 272713.120000
   1011   1023     1   0.15375 251793.120000
   1012   1014     1   0.15375 251793.120000
   1014   1018     1   0.15241 261918.400000
   1018   1019     1   0.13513 334803.680000
   1018   1020     1   0.12183 533627.360000
   1023   1026     1   0.15241 261918.400000
   1026   1027     1   0.12183 533627.360000
   1026   1028     1   0.13513 334803.680000
   1031   1033     1   0.14619 275056.160000
   1033   1035     1   0.15375 251793.120000
   1035   1039     1   0.14647 272713.120000
   1039   1040     1   0.14647 272713.120000
   1039   1041     1   0.14647 272713.120000
   1040   1052     1   0.15375 251793.120000
   1041   1043     1   0.15375 251793.120000
   1043   1047     1   0.15241 261918.400000
   1047   1048     1   0.13513 334803.680000
   1047   1049     1   0.12183 533627.360000
   1052   1055     1   0.15241 261918.400000
   1055   1056     1   0.12183 533627.360000
   1055   1057     1   0.13513 334803.680000
   1060   1062     1   0.14619 275056.160000
   1062   1064     1   0.15375 251793.120000
   1064   1068     1   0.14647 272713.120000
   1068   1069     1   0.14647 272713.120000
   1068   1070     1   0.14647 272713.120000
   1069   1081     1   0.15375 251793.120000
   1070   1072     1   0.15375 251793.120000
   1072   1076     1   0.15241 261918.400000
   1076   1077     1   0.13513 334803.680000
   1076   1078     1   0.12183 533627.360000
   1081   1084     1   0.15241 261918.400000
   1084   1085     1   0.12183 533627.360000
   1084   1086     1   0.13513 334803.680000
   1089   1091     1   0.14619 275056.160000
   1091   1093     1   0.15375 251793.120000
   1093   1097     1   0.14647 272713.120000
   1097   1098     1   0.14647 272713.120000
   1097   1099     1   0.14647 272713.120000
   1098   1110     1   0.15375 251793.120000
   1099   1101     1   0.15375 251793.120000
   1101   1105     1   0.15241 261918.400000
   1105   1106     1   0.13513 334803.680000
   1105   1107     1   0.12183 533627.360000
   1110   1113     1   0.15241 261918.400000
   1113   1114     1   0.12183 533627.360000
   1113   1115     1   0.13513 334803.680000
   1118   1120     1   0.14619 275056.160000
   1120   1122     1   0.15375 251793.120000
   1122   1126     1   0.14647 272713.120000
   1126   1127     1   0.14647 272713.120000
   1126   1128     1   0.14647 272713.120000
   1127   1139     1   0.15375 251793.120000
   1128   1130     1   0.15375 251793.120000
   1130   1134     1   0.15241 261918.400000
   1134   1135     1   0.13513 334803.680000
   1134   1136     1   0.12183 533627.360000
   1139   1142     1   0.15241 261918.400000
   1142   1143     1   0.12183 533627.360000
   1142   1144     1   0.13513 334803.680000
   1147   1149     1   0.14619 275056.160000
   1149   1151     1   0.15375 251793.120000
   1151   1155     1   0.14647 272713.120000
   1155   1156     1   0.14647 272713.120000
   1155   1157     1   0.14647 272713.120000
   1156   1168     1   0.15375 251793.120000
   1157   1159     1   0.15375 251793.120000
   1159   1163     1   0.15241 261918.400000
   1163   1164     1   0.13513 334803.680000
   1163   1165     1   0.12183 533627.360000
   1168   1171     1   0.15241 261918.400000
   1171   1172     1   0.12183 533627.360000
   1171   1173     1   0.13513 334803.680000
   1176   1178     1   0.14619 275056.160000
   1178   1180     1   0.15375 251793.120000
   1180   1184     1   0.14647 272713.120000
   1184   1185     1   0.14647 272713.120000
   1184   1186     1   0.14647 272713.120000
   1185   1197     1   0.15375 251793.120000
   1186   1188     1   0.15375 251793.120000
   1188   1192     1   0.15241 261918.400000
   1192   1193     1   0.13513 334803.680000
   1192   1194     1   0.12183 533627.360000
   1197   1200     1   0.15241 261918.400000
   1200   1201     1   0.12183 533627.360000
   1200   1202     1   0.13513 334803.680000
   1205   1207     1   0.14619 275056.160000
   1207   1209     1   0.15375 251793.120000
   1209   1213     1   0.14647 272713.120000
   1213   1214     1   0.14647 272713.120000
   1213   1215     1   0.14647 272713.120000
   1214   1226     1   0.15375 251793.120000
   1215   1217     1   0.15375 251793.120000
   1217   1221     1   0.15241 261918.400000
   1221   1222     1   0.13513 334803.680000
   1221   1223     1   0.12183 533627.360000
   1226   1229     1   0.15241 261918.400000
   1229   1230     1   0.12183 533627.360000
   1229   1231     1   0.13513 334803.680000
   1234   1236     1   0.14619 275056.160000
   1236   1238     1   0.15375 251793.120000
   1238   1242     1   0.14647 272713.120000
   1242   1243     1   0.14647 272713.120000
   1242   1244     1   0.14647 272713.120000
   1243   1255     1   0.15375 251793.120000
   1244   1246     1   0.15375 251793.120000
   1246   1250     1   0.15241 261918.400000
   1250   1251     1   0.13513 334803.680000
   1250   1252     1   0.12183 533627.360000
   1255   1258     1   0.15241 261918.400000
   1258   1259     1   0.12183 533627.360000
   1258   1260     1   0.13513 334803.680000
   1263   1265     1   0.14619 275056.160000
   1265   1267     1   0.15375 251793.120000
   1267   1271     1   0.14647 272713.120000
   1271   1272     1   0.14647 272713.120000
   1271   1273     1   0.14647 272713.120000
   1272   1284     1   0.15375 251793.120000
   1273   1275     1   0.15375 251793.120000
   1275   1279     1   0.15241 261918.400000
   1279   1280     1   0.13513 334803.680000
   1279   1281     1   0.12183 533627.360000
   1284   1287     1   0.15241 261918.400000
   1287   1288     1   0.12183 533627.360000
   1287   1289     1   0.13513 334803.680000
   1292   1294     1   0.14619 275056.160000
   1294   1296     1   0.15375 251793.120000
   1296   1300     1   0.14647 272713.120000
   1300   1301     1   0.14647 272713.120000
   1300   1302     1   0.14647 272713.120000
   1301   1313     1   0.15375 251793.120000
   1302   1304     1   0.15375 251793.120000
   1304   1308     1   0.15241 261918.400000
   1308   1309     1   0.13513 334803.680000
   1308   1310     1   0.12183 533627.360000
   1313   1316     1   0.15241 261918.400000
   1316   1317     1   0.12183 533627.360000
   1316   1318     1   0.13513 334803.680000
   1321   1323     1   0.14619 275056.160000
   1323   1325     1   0.15375 251793.120000
   1325   1329     1   0.14647 272713.120000
   1329   1330     1   0.14647 272713.120000
   1329   1331     1   0.14647 272713.120000
   1330   1342     1   0.15375 251793.120000
   1331   1333     1   0.15375 251793.120000
   1333   1337     1   0.15241 261918.400000
   1337   1338     1   0.13513 334803.680000
   1337   1339     1   0.12183 533627.360000
   1342   1345     1   0.15241 261918.400000
   1345   1346     1   0.12183 533627.360000
   1345   1347     1   0.13513 334803.680000
   1350   1352     1   0.14619 275056.160000
   1352   1354     1   0.15375 251793.120000
   1354   1358     1   0.14647 272713.120000
   1358   1359     1   0.14647 272713.120000
   1358   1360     1   0.14647 272713.120000
   1359   1371     1   0.15375 251793.120000
   1360   1362     1   0.15375 251793.120000
   1362   1366     1   0.15241 261918.400000
   1366   1367     1   0.13513 334803.680000
   1366   1368     1   0.12183 533627.360000
   1371   1374     1   0.15241 261918.400000
   1374   1375     1   0.12183 533627.360000
   1374   1376     1   0.13513 334803.680000
   1379   1381     1   0.14619 275056.160000
   1381   1383     1   0.15375 251793.120000
   1383   1387     1   0.14647 272713.120000
   1387   1388     1   0.14647 272713.120000
   1387   1389     1   0.14647 272713.120000
   1388   1400     1   0.15375 251793.120000
   1389   1391     1   0.15375 251793.120000
   1391   1395     1   0.15241 261918.400000
   1395   1396     1   0.13513 334803.680000
   1395   1397     1   0.12183 533627.360000
   1400   1403     1   0.15241 261918.400000
   1403   1404     1   0.12183 533627.360000
   1403   1405     1   0.13513 334803.680000
   1408   1410     1   0.14619 275056.160000
   1410   1412     1   0.15375 251793.120000
   1412   1416     1   0.14647 272713.120000
   1416   1417     1   0.14647 272713.120000
   1416   1418     1   0.14647 272713.120000
   1417   1429     1   0.15375 251793.120000
   1418   1420     1   0.15375 251793.120000
   1420   1424     1   0.15241 261918.400000
   1424   1425     1   0.13513 334803.680000
   1424   1426     1   0.12183 533627.360000
   1429   1432     1   0.15241 261918.400000
   1432   1433     1   0.12183 533627.360000
   1432   1434     1   0.13513 334803.680000
   1437   1439     1   0.14619 275056.160000
   1439   1441     1   0.15375 251793.120000
   1441   1445     1   0.14647 272713.120000
   1445   1446     1   0.14647 272713.120000
   1445   1447     1   0.14647 272713.120000
   1446   1458     1   0.15375 251793.120000
   1447   1449     1   0.15375 251793.120000
   1449   1453     1   0.15241 261918.400000
   1453   1454     1   0.13513 334803.680000
   1453   1455     1   0.12183 533627.360000
   1458   1461     1   0.15241 261918.400000
   1461   1462     1   0.12183 533627.360000
   1461   1463     1   0.13513 334803.680000
   1466   1468     1   0.14619 275056.160000
   1468   1470     1   0.15375 251793.120000
   1470   1474     1   0.14647 272713.120000
   1474   1475     1   0.14647 272713.120000
   1474   1476     1   0.14647 272713.120000
   1475   1487     1   0.15375 251793.120000
   1476   1478     1   0.15375 251793.120000
   1478   1482     1   0.15241 261918.400000
   1482   1483     1   0.13513 334803.680000
   1482   1484     1   0.12183 533627.360000
   1487   1490     1   0.15241 261918.400000
   1490   1491     1   0.12183 533627.360000
   1490   1492     1   0.13513 334803.680000
   1495   1497     1   0.14619 275056.160000
   1497   1499     1   0.15375 251793.120000
   1499   1503     1   0.14647 272713.120000
   1503   1504     1   0.14647 272713.120000
   1503   1505     1   0.14647 272713.120000
   1504   1516     1   0.15375 251793.120000
   1505   1507     1   0.15375 251793.120000
   1507   1511     1   0.15241 261918.400000
   1511   1512     1   0.13513 334803.680000
   1511   1513     1   0.12183 533627.360000
   1516   1519     1   0.15241 261918.400000
   1519   1520     1   0.12183 533627.360000
   1519   1521     1   0.13513 334803.680000
   1524   1526     1   0.14619 275056.160000
   1526   1528     1   0.15375 251793.120000
   1528   1532     1   0.14647 272713.120000
   1532   1533     1   0.14647 272713.120000
   1532   1534     1   0.14647 272713.120000
   1533   1545     1   0.15375 251793.120000
   1534   1536     1   0.15375 251793.120000
   1536   1540     1   0.15241 261918.400000
   1540   1541     1   0.13513 334803.680000
   1540   1542     1   0.12183 533627.360000
   1545   1548     1   0.15241 261918.400000
   1548   1549     1   0.12183 533627.360000
   1548   1550     1   0.13513 334803.680000
   1553   1555     1   0.14619 275056.160000
   1555   1557     1   0.15375 251793.120000
   1557   1561     1   0.14647 272713.120000
   1561   1562     1   0.14647 272713.120000
   1561   1563     1   0.14647 272713.120000
   1562   1574     1   0.15375 251793.120000
   1563   1565     1   0.15375 251793.120000
   1565   1569     1   0.15241 261918.400000
   1569   1570     1   0.13513 334803.680000
   1569   1571     1   0.12183 533627.360000
   1574   1577     1   0.15241 261918.400000
   1577   1578     1   0.12183 533627.360000
   1577   1579     1   0.13513 334803.680000
   1582   1584     1   0.14619 275056.160000
   1584   1586     1   0.15375 251793.120000
   1586   1590     1   0.14647 272713.120000
   1590   1591     1   0.14647 272713.120000
   1590   1592     1   0.14647 272713.120000
   1591   1603     1   0.15375 251793.120000
   1592   1594     1   0.15375 251793.120000
   1594   1598     1   0.15241 261918.400000
   1598   1599     1   0.13513 334803.680000
   1598   1600     1   0.12183 533627.360000
   1603   1606     1   0.15241 261918.400000
   1606   1607     1   0.12183 533627.360000
   1606   1608     1   0.13513 334803.680000
   1611   1613     1   0.14619 275056.160000
   1613   1615     1   0.15375 251793.120000
   1615   1619     1   0.14647 272713.120000
   1619   1620     1   0.14647 272713.120000
   1619   1621     1   0.14647 272713.120000
   1620   1632     1   0.15375 251793.120000
   1621   1623     1   0.15375 251793.120000
   1623   1627     1   0.15241 261918.400000
   1627   1628     1   0.13513 334803.680000
   1627   1629     1   0.12183 533627.360000
   1632   1635     1   0.15241 261918.400000
   1635   1636     1   0.12183 533627.360000
   1635   1637     1   0.13513 334803.680000
   1640   1642     1   0.14619 275056.160000
   1642   1644     1   0.15375 251793.120000
   1644   1648     1   0.14647 272713.120000
   1648   1649     1   0.14647 272713.120000
   1648   1650     1   0.14647 272713.120000
   1649   1661     1   0.15375 251793.120000
   1650   1652     1   0.15375 251793.120000
   1652   1656     1   0.15241 261918.400000
   1656   1657     1   0.13513 334803.680000
   1656   1658     1   0.12183 533627.360000
   1661   1664     1   0.15241 261918.400000
   1664   1665     1   0.12183 533627.360000
   1664   1666     1   0.13513 334803.680000
      1      2     1   0.10969 276646.080000
      1      3     1   0.10969 276646.080000
      4      5     1   0.10969 276646.080000
      4      6     1   0.10969 276646.080000
      9     10     1   0.10969 276646.080000
      9     11     1   0.10969 276646.080000
     12     13     1   0.10969 276646.080000
     12     14     1   0.10969 276646.080000
     15     16     1   0.10969 276646.080000
     15     17     1   0.10969 276646.080000
     18     19     1   0.10969 276646.080000
     18     20     1   0.10969 276646.080000
     21     22     1   0.10969 276646.080000
     21     23     1   0.10969 276646.080000
     24     25     1   0.10969 276646.080000
     24     26     1   0.10969 276646.080000
     27     28     1   0.10969 276646.080000
     27     29     1   0.10969 276646.080000
     30     31     1   0.10969 276646.080000
     30     32     1   0.10969 276646.080000
     41     42     1   0.10969 276646.080000
     41     43     1   0.10969 276646.080000
     44     45     1   0.10969 276646.080000
     44     46     1   0.10969 276646.080000
     48     49     1   0.10969 276646.080000
     48     50     1   0.10969 276646.080000
     51     52     1   0.10969 276646.080000
     51     53     1   0.10969 276646.080000
     54     55     1   0.10969 276646.080000
     54     56     1   0.10969 276646.080000
     57     58     1   0.10969 276646.080000
     57     59     1   0.10969 276646.080000
     64     65     1   0.10129 337397.760000
     66     67     1   0.10969 276646.080000
     66     68     1   0.10969 276646.080000
     69     70     1   0.10969 276646.080000
     69     71     1   0.10969 276646.080000
     73     74     1   0.10969 276646.080000
     73     75     1   0.10969 276646.080000
     76     77     1   0.10969 276646.080000
     76     78     1   0.10969 276646.080000
     79     80     1   0.10969 276646.080000
     79     81     1   0.10969 276646.080000
     82     83     1   0.10969 276646.080000
     82     84     1   0.10969 276646.080000
     89     90     1   0.10129 337397.760000
     91     92     1   0.10969 276646.080000
     91     93     1   0.10969 276646.080000
     94     95     1   0.10969 276646.080000
     94     96     1   0.10969 276646.080000
     98     99     1   0.10969 276646.080000
     98    100     1   0.10969 276646.080000
    101    102     1   0.10969 276646.080000
    101    103     1   0.10969 276646.080000
    104    105     1   0.10969 276646.080000
    104    106     1   0.10969 276646.080000
    107    108     1   0.10969 276646.080000
    107    109     1   0.10969 276646.080000
    114    115     1   0.10129 337397.760000
    116    117     1   0.10969 276646.080000
    116    118     1   0.10969 276646.080000
    119    120     1   0.10969 276646.080000
    119    121     1   0.10969 276646.080000
    123    124     1   0.10969 276646.080000
    123    125     1   0.10969 276646.080000
    126    127     1   0.10969 276646.080000
    126    128     1   0.10969 276646.080000
    129    130     1   0.10969 276646.080000
    129    131     1   0.10969 276646.080000
    132    133     1   0.10969 276646.080000
    132    134     1   0.10969 276646.080000
    139    140     1   0.10129 337397.760000
    141    142     1   0.10969 276646.080000
    141    143     1   0.10969 276646.080000
    144    145     1   0.10969 276646.080000
    144    146     1   0.10969 276646.080000
    148    149     1   0.10969 276646.080000
    148    150     1   0.10969 276646.080000
    151    152     1   0.10969 276646.080000
    151    153     1   0.10969 276646.080000
    154    155     1   0.10969 276646.080000
    154    156     1   0.10969 276646.080000
    157    158     1   0.10969 276646.080000
    157    159     1   0.10969 276646.080000
    164    165     1   0.10129 337397.760000
    166    167     1   0.10969 276646.080000
    166    168     1   0.10969 276646.080000
    169    170     1   0.10969 276646.080000
    169    171     1   0.10969 276646.080000
    173    174     1   0.10969 276646.080000
    173    175     1   0.10969 276646.080000
    176    177     1   0.10969 276646.080000
    176    178     1   0.10969 276646.080000
    179    180     1   0.10969 276646.080000
    179    181     1   0.10969 276646.080000
    182    183     1   0.10969 276646.080000
    182    184     1   0.10969 276646.080000
    189    190     1   0.10129 337397.760000
    191    192     1   0.10969 276646.080000
    191    193     1   0.10969 276646.080000
    194    195     1   0.10969 276646.080000
    194    196     1   0.10969 276646.080000
    198    199     1   0.10969 276646.080000
    198    200     1   0.10969 276646.080000
    201    202     1   0.10969 276646.080000
    201    203     1   0.10969 276646.080000
    204    205     1   0.10969 276646.080000
    204    206     1   0.10969 276646.080000
    207    208     1   0.10969 276646.080000
    207    209     1   0.10969 276646.080000
    214    215     1   0.10129 337397.760000
    216    217     1   0.10969 276646.080000
    216    218     1   0.10969 276646.080000
    219    220     1   0.10969 276646.080000
    219    221     1   0.10969 276646.080000
    223    224     1   0.10969 276646.080000
    223    225     1   0.10969 276646.080000
    226    227     1   0.10969 276646.080000
    226    228     1   0.10969 276646.080000
    229    230     1   0.10969 276646.080000
    229    231     1   0.10969 276646.080000
    232    233     1   0.10969 276646.080000
    232    234     1   0.10969 276646.080000
    239    240     1   0.10129 337397.760000
    241    242     1   0.10969 276646.080000
    241    243     1   0.10969 276646.080000
    244    245     1   0.10969 276646.080000
    244    246     1   0.10969 276646.080000
    248    249     1   0.10969 276646.080000
    248    250     1   0.10969 276646.080000
    251    252     1   0.10969 276646.080000
    251    253     1   0.10969 276646.080000
    254    255     1   0.10969 276646.080000
    254    256     1   0.10969 276646.080000
    257    258     1   0.10969 276646.080000
    257    259     1   0.10969 276646.080000
    264    265     1   0.10129 337397.760000
    266    267     1   0.10969 276646.080000
    266    268     1   0.10969 276646.080000
    269    270     1   0.10969 276646.080000
    269    271     1   0.10969 276646.080000
    273    274     1   0.10969 276646.080000
    273    275     1   0.10969 276646.080000
    276    277     1   0.10969 276646.080000
    276    278     1   0.10969 276646.080000
    279    280     1   0.10969 276646.080000
    279    281     1   0.10969 276646.080000
    282    283     1   0.10969 276646.080000
    282    284     1   0.10969 276646.080000
    289    290     1   0.10129 337397.760000
    291    292     1   0.10969 276646.080000
    291    293     1   0.10969 276646.080000
    294    295     1   0.10969 276646.080000
    294    296     1   0.10969 276646.080000
    298    299     1   0.10969 276646.080000
    298    300     1   0.10969 276646.080000
    301    302     1   0.10969 276646.080000
    301    303     1   0.10969 276646.080000
    304    305     1   0.10969 276646.080000
    304    306     1   0.10969 276646.080000
    307    308     1   0.10969 276646.080000
    307    309     1   0.10969 276646.080000
    314    315     1   0.10129 337397.760000
    316    317     1   0.10969 276646.080000
    316    318     1   0.10969 276646.080000
    319    320     1   0.10969 276646.080000
    319    321     1   0.10969 276646.080000
    323    324     1   0.10969 276646.080000
    323    325     1   0.10969 276646.080000
    326    327     1   0.10969 276646.080000
    326    328     1   0.10969 276646.080000
    329    330     1   0.10969 276646.080000
    329    331     1   0.10969 276646.080000
    332    333     1   0.10969 276646.080000
    332    334     1   0.10969 276646.080000
    339    340     1   0.10129 337397.760000
    341    342     1   0.10969 276646.080000
    341    343     1   0.10969 276646.080000
    344    345     1   0.10969 276646.080000
    344    346     1   0.10969 276646.080000
    348    349     1   0.10969 276646.080000
    348    350     1   0.10969 276646.080000
    351    352     1   0.10969 276646.080000
    351    353     1   0.10969 276646.080000
    354    355     1   0.10969 276646.080000
    354    356     1   0.10969 276646.080000
    357    358     1   0.10969 276646.080000
    357    359     1   0.10969 276646.080000
    364    365     1   0.10129 337397.760000
    366    367     1   0.10969 276646.080000
    366    368     1   0.10969 276646.080000
    369    370     1   0.10969 276646.080000
    369    371     1   0.10969 276646.080000
    373    374     1   0.10969 276646.080000
    373    375     1   0.10969 276646.080000
    376    377     1   0.10969 276646.080000
    376    378     1   0.10969 276646.080000
    379    380     1   0.10969 276646.080000
    379    381     1   0.10969 276646.080000
    382    383     1   0.10969 276646.080000
    382    384     1   0.10969 276646.080000
    389    390     1   0.10129 337397.760000
    391    392     1   0.10969 276646.080000
    391    393     1   0.10969 276646.080000
    394    395     1   0.10969 276646.080000
    394    396     1   0.10969 276646.080000
    398    399     1   0.10969 276646.080000
    398    400     1   0.10969 276646.080000
    401    402     1   0.10969 276646.080000
    401    403     1   0.10969 276646.080000
    404    405     1   0.10969 276646.080000
    404    406     1   0.10969 276646.080000
    407    408     1   0.10969 276646.080000
    407    409     1   0.10969 276646.080000
    414    415     1   0.10129 337397.760000
    416    417     1   0.10969 276646.080000
    416    418     1   0.10969 276646.080000
    419    420     1   0.10969 276646.080000
    419    421     1   0.10969 276646.080000
    423    424     1   0.10969 276646.080000
    423    425     1   0.10969 276646.080000
    426    427     1   0.10969 276646.080000
    426    428     1   0.10969 276646.080000
    429    430     1   0.10969 276646.080000
    429    431     1   0.10969 276646.080000
    432    433     1   0.10969 276646.080000
    432    434     1   0.10969 276646.080000
    439    440     1   0.10129 337397.760000
    441    442     1   0.10969 276646.080000
    441    443     1   0.10969 276646.080000
    444    445     1   0.10969 276646.080000
    444    446     1   0.10969 276646.080000
    448    449     1   0.10969 276646.080000
    448    450     1   0.10969 276646.080000
    451    452     1   0.10969 276646.080000
    451    453     1   0.10969 276646.080000
    454    455     1   0.10969 276646.080000
    454    456     1   0.10969 276646.080000
    457    458     1   0.10969 276646.080000
    457    459     1   0.10969 276646.080000
    464    465     1   0.10129 337397.760000
    466    467     1   0.10969 276646.080000
    466    468     1   0.10969 276646.080000
    469    470     1   0.10969 276646.080000
    469    471     1   0.10969 276646.080000
    473    474     1   0.10969 276646.080000
    473    475     1   0.10969 276646.080000
    476    477     1   0.10969 276646.080000
    476    478     1   0.10969 276646.080000
    479    480     1   0.10969 276646.080000
    479    481     1   0.10969 276646.080000
    482    483     1   0.10969 276646.080000
    482    484     1   0.10969 276646.080000
    489    490     1   0.10129 337397.760000
    491    492     1   0.10969 276646.080000
    491    493     1   0.10969 276646.080000
    494    495     1   0.10969 276646.080000
    494    496     1   0.10969 276646.080000
    498    499     1   0.10969 276646.080000
    498    500     1   0.10969 276646.080000
    501    502     1   0.10969 276646.080000
    501    503     1   0.10969 276646.080000
    504    505     1   0.10969 276646.080000
    504    506     1   0.10969 276646.080000
    507    508     1   0.10969 276646.080000
    507    509     1   0.10969 276646.080000
    514    515     1   0.10129 337397.760000
    516    517     1   0.10969 276646.080000
    516    518     1   0.10969 276646.080000
    519    520     1   0.10969 276646.080000
    519    521     1   0.10969 276646.080000
    523    524     1   0.10969 276646.080000
    523    525     1   0.10969 276646.080000
    526    527     1   0.10969 276646.080000
    526    528     1   0.10969 276646.080000
    529    530     1   0.10969 276646.080000
    529    531     1   0.10969 276646.080000
    532    533     1   0.10969 276646.080000
    532    534     1   0.10969 276646.080000
    539    540     1   0.10129 337397.760000
    541    542     1   0.10969 276646.080000
    541    543     1   0.10969 276646.080000
    544    545     1   0.10969 276646.080000
    544    546     1   0.10969 276646.080000
    548    549     1   0.10969 276646.080000
    548    550     1   0.10969 276646.080000
    551    552     1   0.10969 276646.080000
    551    553     1   0.10969 276646.080000
    554    555     1   0.10969 276646.080000
    554    556     1   0.10969 276646.080000
    557    558     1   0.10969 276646.080000
    557    559     1   0.10969 276646.080000
    564    565     1   0.10129 337397.760000
    566    567     1   0.10969 276646.080000
    566    568     1   0.10969 276646.080000
    569    570     1   0.10969 276646.080000
    569    571     1   0.10969 276646.080000
    573    574     1   0.10969 276646.080000
    573    575     1   0.10969 276646.080000
    576    577     1   0.10969 276646.080000
    576    578     1   0.10969 276646.080000
    579    580     1   0.10969 276646.080000
    579    581     1   0.10969 276646.080000
    582    583     1   0.10969 276646.080000
    582    584     1   0.10969 276646.080000
    589    590     1   0.10129 337397.760000
    591    592     1   0.10969 276646.080000
    591    593     1   0.10969 276646.080000
    594    595     1   0.10969 276646.080000
    594    596     1   0.10969 276646.080000
    598    599     1   0.10969 276646.080000
    598    600     1   0.10969 276646.080000
    601    602     1   0.10969 276646.080000
    601    603     1   0.10969 276646.080000
    604    605     1   0.10969 276646.080000
    604    606     1   0.10969 276646.080000
    607    608     1   0.10969 276646.080000
    607    609     1   0.10969 276646.080000
    614    615     1   0.10129 337397.760000
    616    617     1   0.10969 276646.080000
    616    618     1   0.10969 276646.080000
    619    620     1   0.10969 276646.080000
    619    621     1   0.10969 276646.080000
    623    624     1   0.10969 276646.080000
    623    625     1   0.10969 276646.080000
    626    627     1   0.10969 276646.080000
    626    628     1   0.10969 276646.080000
    629    630     1   0.10969 276646.080000
    629    631     1   0.10969 276646.080000
    632    633     1   0.10969 276646.080000
    632    634     1   0.10969 276646.080000
    639    640     1   0.10129 337397.760000
    641    642     1   0.10969 276646.080000
    641    643     1   0.10969 276646.080000
    644    645     1   0.10969 276646.080000
    644    646     1   0.10969 276646.080000
    648    649     1   0.10969 276646.080000
    648    650     1   0.10969 276646.080000
    651    652     1   0.10969 276646.080000
    651    653     1   0.10969 276646.080000
    654    655     1   0.10969 276646.080000
    654    656     1   0.10969 276646.080000
    657    658     1   0.10969 276646.080000
    657    659     1   0.10969 276646.080000
    664    665     1   0.10129 337397.760000
    666    667     1   0.10969 276646.080000
    666    668     1   0.10969 276646.080000
    669    670     1   0.10969 276646.080000
    669    671     1   0.10969 276646.080000
    673    674     1   0.10969 276646.080000
    673    675     1   0.10969 276646.080000
    676    677     1   0.10969 276646.080000
    676    678     1   0.10969 276646.080000
    679    680     1   0.10969 276646.080000
    679    681     1   0.10969 276646.080000
    682    683     1   0.10969 276646.080000
    682    684     1   0.10969 276646.080000
    689    690     1   0.10129 337397.760000
    691    692     1   0.10969 276646.080000
    691    693     1   0.10969 276646.080000
    694    695     1   0.10969 276646.080000
    694    696     1   0.10969 276646.080000
    698    699     1   0.10969 276646.080000
    698    700     1   0.10969 276646.080000
    701    702     1   0.10969 276646.080000
    701    703     1   0.10969 276646.080000
    704    705     1   0.10969 276646.080000
    704    706     1   0.10969 276646.080000
    707    708     1   0.10969 276646.080000
    707    709     1   0.10969 276646.080000
    714    715     1   0.10129 337397.760000
    716    717     1   0.10969 276646.080000
    716    718     1   0.10969 276646.080000
    719    720     1   0.10969 276646.080000
    719    721     1   0.10969 276646.080000
    723    724     1   0.10969 276646.080000
    723    725     1   0.10969 276646.080000
    726    727     1   0.10969 276646.080000
    726    728     1   0.10969 276646.080000
    729    730     1   0.10969 276646.080000
    729    731     1   0.10969 276646.080000
    732    733     1   0.10969 276646.080000
    732    734     1   0.10969 276646.080000
    739    740     1   0.10129 337397.760000
    741    742     1   0.10129 337397.760000
    743    744     1   0.10969 276646.080000
    743    746     1   0.10969 276646.080000
    745    747     1   0.10969 276646.080000
    745    748     1   0.10969 276646.080000
    750    760     1   0.10969 276646.080000
    750    761     1   0.10969 276646.080000
    751    752     1   0.10969 276646.080000
    751    754     1   0.10969 276646.080000
    753    755     1   0.10969 276646.080000
    753    756     1   0.10969 276646.080000
    758    768     1   0.09730 310787.520000
    762    763     1   0.10969 276646.080000
    762    764     1   0.10969 276646.080000
    767    769     1   0.09730 310787.520000
    770    771     1   0.10129 337397.760000
    772    773     1   0.10969 276646.080000
    772    775     1   0.10969 276646.080000
    774    776     1   0.10969 276646.080000
    774    777     1   0.10969 276646.080000
    779    789     1   0.10969 276646.080000
    779    790     1   0.10969 276646.080000
    780    781     1   0.10969 276646.080000
    780    783     1   0.10969 276646.080000
    782    784     1   0.10969 276646.080000
    782    785     1   0.10969 276646.080000
    787    797     1   0.09730 310787.520000
    791    792     1   0.10969 276646.080000
    791    793     1   0.10969 276646.080000
    796    798     1   0.09730 310787.520000
    799    800     1   0.10129 337397.760000
    801    802     1   0.10969 276646.080000
    801    804     1   0.10969 276646.080000
    803    805     1   0.10969 276646.080000
    803    806     1   0.10969 276646.080000
    808    818     1   0.10969 276646.080000
    808    819     1   0.10969 276646.080000
    809    810     1   0.10969 276646.080000
    809    812     1   0.10969 276646.080000
    811    813     1   0.10969 276646.080000
    811    814     1   0.10969 276646.080000
    816    826     1   0.09730 310787.520000
    820    821     1   0.10969 276646.080000
    820    822     1   0.10969 276646.080000
    825    827     1   0.09730 310787.520000
    828    829     1   0.10129 337397.760000
    830    831     1   0.10969 276646.080000
    830    833     1   0.10969 276646.080000
    832    834     1   0.10969 276646.080000
    832    835     1   0.10969 276646.080000
    837    847     1   0.10969 276646.080000
    837    848     1   0.10969 276646.080000
    838    839     1   0.10969 276646.080000
    838    841     1   0.10969 276646.080000
    840    842     1   0.10969 276646.080000
    840    843     1   0.10969 276646.080000
    845    855     1   0.09730 310787.520000
    849    850     1   0.10969 276646.080000
    849    851     1   0.10969 276646.080000
    854    856     1   0.09730 310787.520000
    857    858     1   0.10129 337397.760000
    859    860     1   0.10969 276646.080000
    859    862     1   0.10969 276646.080000
    861    863     1   0.10969 276646.080000
    861    864     1   0.10969 276646.080000
    866    876     1   0.10969 276646.080000
    866    877     1   0.10969 276646.080000
    867    868     1   0.10969 276646.080000
    867    870     1   0.10969 276646.080000
    869    871     1   0.10969 276646.080000
    869    872     1   0.10969 276646.080000
    874    884     1   0.09730 310787.520000
    878    879     1   0.10969 276646.080000
    878    880     1   0.10969 276646.080000
    883    885     1   0.09730 310787.520000
    886    887     1   0.10129 337397.760000
    888    889     1   0.10969 276646.080000
    888    891     1   0.10969 276646.080000
    890    892     1   0.10969 276646.080000
    890    893     1   0.10969 276646.080000
    895    905     1   0.10969 276646.080000
    895    906     1   0.10969 276646.080000
    896    897     1   0.10969 276646.080000
    896    899     1   0.10969 276646.080000
    898    900     1   0.10969 276646.080000
    898    901     1   0.10969 276646.080000
    903    913     1   0.09730 310787.520000
    907    908     1   0.10969 276646.080000
    907    909     1   0.10969 276646.080000
    912    914     1   0.09730 310787.520000
    915    916     1   0.10129 337397.760000
    917    918     1   0.10969 276646.080000
    917    920     1   0.10969 276646.080000
    919    921     1   0.10969 276646.080000
    919    922     1   0.10969 276646.080000
    924    934     1   0.10969 276646.080000
    924    935     1   0.10969 276646.080000
    925    926     1   0.10969 276646.080000
    925    928     1   0.10969 276646.080000
    927    929     1   0.10969 276646.080000
    927    930     1   0.10969 276646.080000
    932    942     1   0.09730 310787.520000
    936    937     1   0.10969 276646.080000
    936    938     1   0.10969 276646.080000
    941    943     1   0.09730 310787.520000
    944    945     1   0.10129 337397.760000
    946    947     1   0.10969 276646.080000
    946    949     1   0.10969 276646.080000
    948    950     1   0.10969 276646.080000
    948    951     1   0.10969 276646.080000
    953    963     1   0.10969 276646.080000
    953    964     1   0.10969 276646.080000
    954    955     1   0.10969 276646.080000
    954    957     1   0.10969 276646.080000
    956    958     1   0.10969 276646.080000
    956    959     1   0.10969 276646.080000
    961    971     1   0.09730 310787.520000
    965    966     1   0.10969 276646.080000
    965    967     1   0.10969 276646.080000
    970    972     1   0.09730 310787.520000
    973    974     1   0.10129 337397.760000
    975    976     1   0.10969 276646.080000
    975    978     1   0.10969 276646.080000
    977    979     1   0.10969 276646.080000
    977    980     1   0.10969 276646.080000
    982    992     1   0.10969 276646.080000
    982    993     1   0.10969 276646.080000
    983    984     1   0.10969 276646.080000
    983    986     1   0.10969 276646.080000
    985    987     1   0.10969 276646.080000
    985    988     1   0.10969 276646.080000
    990   1000     1   0.09730 310787.520000
    994    995     1   0.10969 276646.080000
    994    996     1   0.10969 276646.080000
    999   1001     1   0.09730 310787.520000
   1002   1003     1   0.10129 337397.760000
   1004   1005     1   0.10969 276646.080000
   1004   1007     1   0.10969 276646.080000
   1006   1008     1   0.10969 276646.080000
   1006   1009     1   0.10969 276646.080000
   1011   1021     1   0.10969 276646.080000
   1011   1022     1   0.10969 276646.080000
   1012   1013     1   0.10969 276646.080000
   1012   1015     1   0.10969 276646.080000
   1014   1016     1   0.10969 276646.080000
   1014   1017     1   0.10969 276646.080000
   1019   1029     1   0.09730 310787.520000
   1023   1024     1   0.10969 276646.080000
   1023   1025     1   0.10969 276646.080000
   1028   1030     1   0.09730 310787.520000
   1031   1032     1   0.10129 337397.760000
   1033   1034     1   0.10969 276646.080000
   1033   1036     1   0.10969 276646.080000
   1035   1037     1   0.10969 276646.080000
   1035   1038     1   0.10969 276646.080000
   1040   1050     1   0.10969 276646.080000
   1040   1051     1   0.10969 276646.080000
   1041   1042     1   0.10969 276646.080000
   1041   1044     1   0.10969 276646.080000
   1043   1045     1   0.10969 276646.080000
   1043   1046     1   0.10969 276646.080000
   1048   1058     1   0.09730 310787.520000
   1052   1053     1   0.10969 276646.080000
   1052   1054     1   0.10969 276646.080000
   1057   1059     1   0.09730 310787.520000
   1060   1061     1   0.10129 337397.760000
   1062   1063     1   0.10969 276646.080000
   1062   1065     1   0.10969 276646.080000
   1064   1066     1   0.10969 276646.080000
   1064   1067     1   0.10969 276646.080000
   1069   1079     1   0.10969 276646.080000
   1069   1080     1   0.10969 276646.080000
   1070   1071     1   0.10969 276646.080000
   1070   1073     1   0.10969 276646.080000
   1072   1074     1   0.10969 276646.080000
   1072   1075     1   0.10969 276646.080000
   1077   1087     1   0.09730 310787.520000
   1081   1082     1   0.10969 276646.080000
   1081   1083     1   0.10969 276646.080000
   1086   1088     1   0.09730 310787.520000
   1089   1090     1   0.10129 337397.760000
   1091   1092     1   0.10969 276646.080000
   1091   1094     1   0.10969 276646.080000
   1093   1095     1   0.10969 276646.080000
   1093   1096     1   0.10969 276646.080000
   1098   1108     1   0.10969 276646.080000
   1098   1109     1   0.10969 276646.080000
   1099   1100     1   0.10969 276646.080000
   1099   1102     1   0.10969 276646.080000
   1101   1103     1   0.10969 276646.080000
   1101   1104     1   0.10969 276646.080000
   1106   1116     1   0.09730 310787.520000
   1110   1111     1   0.10969 276646.080000
   1110   1112     1   0.10969 276646.080000
   1115   1117     1   0.09730 310787.520000
   1118   1119     1   0.10129 337397.760000
   1120   1121     1   0.10969 276646.080000
   1120   1123     1   0.10969 276646.080000
   1122   1124     1   0.10969 276646.080000
   1122   1125     1   0.10969 276646.080000
   1127   1137     1   0.10969 276646.080000
   1127   1138     1   0.10969 276646.080000
   1128   1129     1   0.10969 276646.080000
   1128   1131     1   0.10969 276646.080000
   1130   1132     1   0.10969 276646.080000
   1130   1133     1   0.10969 276646.080000
   1135   1145     1   0.09730 310787.520000
   1139   1140     1   0.10969 276646.080000
   1139   1141     1   0.10969 276646.080000
   1144   1146     1   0.09730 310787.520000
   1147   1148     1   0.10129 337397.760000
   1149   1150     1   0.10969 276646.080000
   1149   1152     1   0.10969 276646.080000
   1151   1153     1   0.10969 276646.080000
   1151   1154     1   0.10969 276646.080000
   1156   1166     1   0.10969 276646.080000
   1156   1167     1   0.10969 276646.080000
   1157   1158     1   0.10969 276646.080000
   1157   1160     1   0.10969 276646.080000
   1159   1161     1   0.10969 276646.080000
   1159   1162     1   0.10969 276646.080000
   1164   1174     1   0.09730 310787.520000
   1168   1169     1   0.10969 276646.080000
   1168   1170     1   0.10969 276646.080000
   1173   1175     1   0.09730 310787.520000
   1176   1177     1   0.10129 337397.760000
   1178   1179     1   0.10969 276646.080000
   1178   1181     1   0.10969 276646.080000
   1180   1182     1   0.10969 276646.080000
   1180   1183     1   0.10969 276646.080000
   1185   1195     1   0.10969 276646.080000
   1185   1196     1   0.10969 276646.080000
   1186   1187     1   0.10969 276646.080000
   1186   1189     1   0.10969 276646.080000
   1188   1190     1   0.10969 276646.080000
   1188   1191     1   0.10969 276646.080000
   1193   1203     1   0.09730 310787.520000
   1197   1198     1   0.10969 276646.080000
   1197   1199     1   0.10969 276646.080000
   1202   1204     1   0.09730 310787.520000
   1205   1206     1   0.10129 337397.760000
   1207   1208     1   0.10969 276646.080000
   1207   1210     1   0.10969 276646.080000
   1209   1211     1   0.10969 276646.080000
   1209   1212     1   0.10969 276646.080000
   1214   1224     1   0.10969 276646.080000
   1214   1225     1   0.10969 276646.080000
   1215   1216     1   0.10969 276646.080000
   1215   1218     1   0.10969 276646.080000
   1217   1219     1   0.10969 276646.080000
   1217   1220     1   0.10969 276646.080000
   1222   1232     1   0.09730 310787.520000
   1226   1227     1   0.10969 276646.080000
   1226   1228     1   0.10969 276646.080000
   1231   1233     1   0.09730 310787.520000
   1234   1235     1   0.10129 337397.760000
   1236   1237     1   0.10969 276646.080000
   1236   1239     1   0.10969 276646.080000
   1238   1240     1   0.10969 276646.080000
   1238   1241     1   0.10969 276646.080000
   1243   1253     1   0.10969 276646.080000
   1243   1254     1   0.10969 276646.080000
   1244   1245     1   0.10969 276646.080000
   1244   1247     1   0.10969 276646.080000
   1246   1248     1   0.10969 276646.080000
   1246   1249     1   0.10969 276646.080000
   1251   1261     1   0.09730 310787.520000
   1255   1256     1   0.10969 276646.080000
   1255   1257     1   0.10969 276646.080000
   1260   1262     1   0.09730 310787.520000
   1263   1264     1   0.10129 337397.760000
   1265   1266     1   0.10969 276646.080000
   1265   1268     1   0.10969 276646.080000
   1267   1269     1   0.10969 276646.080000
   1267   1270     1   0.10969 276646.080000
   1272   1282     1   0.10969 276646.080000
   1272   1283     1   0.10969 276646.080000
   1273   1274     1   0.10969 276646.080000
   1273   1276     1   0.10969 276646.080000
   1275   1277     1   0.10969 276646.080000
   1275   1278     1   0.10969 276646.080000
   1280   1290     1   0.09730 310787.520000
   1284   1285     1   0.10969 276646.080000
   1284   1286     1   0.10969 276646.080000
   1289   1291     1   0.09730 310787.520000
   1292   1293     1   0.10129 337397.760000
   1294   1295     1   0.10969 276646.080000
   1294   1297     1   0.10969 276646.080000
   1296   1298     1   0.10969 276646.080000
   1296   1299     1   0.10969 276646.080000
   1301   1311     1   0.10969 276646.080000
   1301   1312     1   0.10969 276646.080000
   1302   1303     1   0.10969 276646.080000
   1302   1305     1   0.10969 276646.080000
   1304   1306     1   0.10969 276646.080000
   1304   1307     1   0.10969 276646.080000
   1309   1319     1   0.09730 310787.520000
   1313   1314     1   0.10969 276646.080000
   1313   1315     1   0.10969 276646.080000
   1318   1320     1   0.09730 310787.520000
   1321   1322     1   0.10129 337397.760000
   1323   1324     1   0.10969 276646.080000
   1323   1326     1   0.10969 276646.080000
   1325   1327     1   0.10969 276646.080000
   1325   1328     1   0.10969 276646.080000
   1330   1340     1   0.10969 276646.080000
   1330   1341     1   0.10969 276646.080000
   1331   1332     1   0.10969 276646.080000
   1331   1334     1   0.10969 276646.080000
   1333   1335     1   0.10969 276646.080000
   1333   1336     1   0.10969 276646.080000
   1338   1348     1   0.09730 310787.520000
   1342   1343     1   0.10969 276646.080000
   1342   1344     1   0.10969 276646.080000
   1347   1349     1   0.09730 310787.520000
   1350   1351     1   0.10129 337397.760000
   1352   1353     1   0.10969 276646.080000
   1352   1355     1   0.10969 276646.080000
   1354   1356     1   0.10969 276646.080000
   1354   1357     1   0.10969 276646.080000
   1359   1369     1   0.10969 276646.080000
   1359   1370     1   0.10969 276646.080000
   1360   1361     1   0.10969 276646.080000
   1360   1363     1   0.10969 276646.080000
   1362   1364     1   0.10969 276646.080000
   1362   1365     1   0.10969 276646.080000
   1367   1377     1   0.09730 310787.520000
   1371   1372     1   0.10969 276646.080000
   1371   1373     1   0.10969 276646.080000
   1376   1378     1   0.09730 310787.520000
   1379   1380     1   0.10129 337397.760000
   1381   1382     1   0.10969 276646.080000
   1381   1384     1   0.10969 276646.080000
   1383   1385     1   0.10969 276646.080000
   1383   1386     1   0.10969 276646.080000
   1388   1398     1   0.10969 276646.080000
   1388   1399     1   0.10969 276646.080000
   1389   1390     1   0.10969 276646.080000
   1389   1392     1   0.10969 276646.080000
   1391   1393     1   0.10969 276646.080000
   1391   1394     1   0.10969 276646.080000
   1396   1406     1   0.09730 310787.520000
   1400   1401     1   0.10969 276646.080000
   1400   1402     1   0.10969 276646.080000
   1405   1407     1   0.09730 310787.520000
   1408   1409     1   0.10129 337397.760000
   1410   1411     1   0.10969 276646.080000
   1410   1413     1   0.10969 276646.080000
   1412   1414     1   0.10969 276646.080000
   1412   1415     1   0.10969 276646.080000
   1417   1427     1   0.10969 276646.080000
   1417   1428     1   0.10969 276646.080000
   1418   1419     1   0.10969 276646.080000
   1418   1421     1   0.10969 276646.080000
   1420   1422     1   0.10969 276646.080000
   1420   1423     1   0.10969 276646.080000
   1425   1435     1   0.09730 310787.520000
   1429   1430     1   0.10969 276646.080000
   1429   1431     1   0.10969 276646.080000
   1434   1436     1   0.09730 310787.520000
   1437   1438     1   0.10129 337397.760000
   1439   1440     1   0.10969 276646.080000
   1439   1442     1   0.10969 276646.080000
   1441   1443     1   0.10969 276646.080000
   1441   1444     1   0.10969 276646.080000
   1446   1456     1   0.10969 276646.080000
   1446   1457     1   0.10969 276646.080000
   1447   1448     1   0.10969 276646.080000
   1447   1450     1   0.10969 276646.080000
   1449   1451     1   0.10969 276646.080000
   1449   1452     1   0.10969 276646.080000
   1454   1464     1   0.09730 310787.520000
   1458   1459     1   0.10969 276646.080000
   1458   1460     1   0.10969 276646.080000
   1463   1465     1   0.09730 310787.520000
   1466   1467     1   0.10129 337397.760000
   1468   1469     1   0.10969 276646.080000
   1468   1471     1   0.10969 276646.080000
   1470   1472     1   0.10969 276646.080000
   1470   1473     1   0.10969 276646.080000
   1475   1485     1   0.10969 276646.080000
   1475   1486     1   0.10969 276646.080000
   1476   1477     1   0.10969 276646.080000
   1476   1479     1   0.10969 276646.080000
   1478   1480     1   0.10969 276646.080000
   1478   1481     1   0.10969 276646.080000
   1483   1493     1   0.09730 310787.520000
   1487   1488     1   0.10969 276646.080000
   1487   1489     1   0.10969 276646.080000
   1492   1494     1   0.09730 310787.520000
   1495   1496     1   0.10129 337397.760000
   1497   1498     1   0.10969 276646.080000
   1497   1500     1   0.10969 276646.080000
   1499   1501     1   0.10969 276646.080000
   1499   1502     1   0.10969 276646.080000
   1504   1514     1   0.10969 276646.080000
   1504   1515     1   0.10969 276646.080000
   1505   1506     1   0.10969 276646.080000
   1505   1508     1   0.10969 276646.080000
   1507   1509     1   0.10969 276646.080000
   1507   1510     1   0.10969 276646.080000
   1512   1522     1   0.09730 310787.520000
   1516   1517     1   0.10969 276646.080000
   1516   1518     1   0.10969 276646.080000
   1521   1523     1   0.09730 310787.520000
   1524   1525     1   0.10129 337397.760000
   1526   1527     1   0.10969 276646.080000
   1526   1529     1   0.10969 276646.080000
   1528   1530     1   0.10969 276646.080000
   1528   1531     1   0.10969 276646.080000
   1533   1543     1   0.10969 276646.080000
   1533   1544     1   0.10969 276646.080000
   1534   1535     1   0.10969 276646.080000
   1534   1537     1   0.10969 276646.080000
   1536   1538     1   0.10969 276646.080000
   1536   1539     1   0.10969 276646.080000
   1541   1551     1   0.09730 310787.520000
   1545   1546     1   0.10969 276646.080000
   1545   1547     1   0.10969 276646.080000
   1550   1552     1   0.09730 310787.520000
   1553   1554     1   0.10129 337397.760000
   1555   1556     1   0.10969 276646.080000
   1555   1558     1   0.10969 276646.080000
   1557   1559     1   0.10969 276646.080000
   1557   1560     1   0.10969 276646.080000
   1562   1572     1   0.10969 276646.080000
   1562   1573     1   0.10969 276646.080000
   1563   1564     1   0.10969 276646.080000
   1563   1566     1   0.10969 276646.080000
   1565   1567     1   0.10969 276646.080000
   1565   1568     1   0.10969 276646.080000
   1570   1580     1   0.09730 310787.520000
   1574   1575     1   0.10969 276646.080000
   1574   1576     1   0.10969 276646.080000
   1579   1581     1   0.09730 310787.520000
   1582   1583     1   0.10129 337397.760000
   1584   1585     1   0.10969 276646.080000
   1584   1587     1   0.10969 276646.080000
   1586   1588     1   0.10969 276646.080000
   1586   1589     1   0.10969 276646.080000
   1591   1601     1   0.10969 276646.080000
   1591   1602     1   0.10969 276646.080000
   1592   1593     1   0.10969 276646.080000
   1592   1595     1   0.10969 276646.080000
   1594   1596     1   0.10969 276646.080000
   1594   1597     1   0.10969 276646.080000
   1599   1609     1   0.09730 310787.520000
   1603   1604     1   0.10969 276646.080000
   1603   1605     1   0.10969 276646.080000
   1608   1610     1   0.09730 310787.520000
   1611   1612     1   0.10129 337397.760000
   1613   1614     1   0.10969 276646.080000
   1613   1616     1   0.10969 276646.080000
   1615   1617     1   0.10969 276646.080000
   1615   1618     1   0.10969 276646.080000
   1620   1630     1   0.10969 276646.080000
   1620   1631     1   0.10969 276646.080000
   1621   1622     1   0.10969 276646.080000
   1621   1624     1   0.10969 276646.080000
   1623   1625     1   0.10969 276646.080000
   1623   1626     1   0.10969 276646.080000
   1628   1638     1   0.09730 310787.520000
   1632   1633     1   0.10969 276646.080000
   1632   1634     1   0.10969 276646.080000
   1637   1639     1   0.09730 310787.520000
   1640   1641     1   0.10129 337397.760000
   1642   1643     1   0.10969 276646.080000
   1642   1645     1   0.10969 276646.080000
   1644   1646     1   0.10969 276646.080000
   1644   1647     1   0.10969 276646.080000
   1649   1659     1   0.10969 276646.080000
   1649   1660     1   0.10969 276646.080000
   1650   1651     1   0.10969 276646.080000
   1650   1653     1   0.10969 276646.080000
   1652   1654     1   0.10969 276646.080000
   1652   1655     1   0.10969 276646.080000
   1657   1667     1   0.09730 310787.520000
   1661   1662     1   0.10969 276646.080000
   1661   1663     1   0.10969 276646.080000
   1666   1668     1   0.09730 310787.520000

[ pairs ]
;    ai     aj funct         c0         c1         c2         c3
      1     15     1
      1     18     1
      1     30     1
      1     27     1
      4      9     1
      4     12     1
      4     21     1
      4     24     1
      8      7     1
      7     35     1
      7     36     1
      8     34     1
      8     33     1
      9     27     1
      9     40     1
      9     89     1
     12     30     1
     12     37     1
     12     64     1
     15     24     1
     15     38     1
     15    114     1
     18     21     1
     18     39     1
     18    139     1
     21     94     1
     24    119     1
     27     44     1
     30     69     1
     33     41     1
     34     66     1
     35     91     1
     36    116     1
     37     44     1
     38     94     1
     39    119     1
     40     69     1
     41     57     1
     41     54     1
     44     48     1
     44     51     1
     47     64     1
     47     61     1
     47     60     1
     48     54     1
     48     63     1
     48    189     1
     51     57     1
     51     62     1
     51    164     1
     54    144     1
     57    169     1
     60    141     1
     61    166     1
     62    144     1
     63    169     1
     66     82     1
     66     79     1
     69     73     1
     69     76     1
     72     89     1
     72     86     1
     72     85     1
     73     79     1
     73     88     1
     73    239     1
     76     82     1
     76     87     1
     76    214     1
     79    194     1
     82    219     1
     85    191     1
     86    216     1
     87    194     1
     88    219     1
     91    107     1
     91    104     1
     94     98     1
     94    101     1
     97    114     1
     97    111     1
     97    110     1
     98    104     1
     98    113     1
     98    289     1
    101    107     1
    101    112     1
    101    264     1
    104    244     1
    107    269     1
    110    241     1
    111    266     1
    112    244     1
    113    269     1
    116    132     1
    116    129     1
    119    123     1
    119    126     1
    122    139     1
    122    136     1
    122    135     1
    123    129     1
    123    138     1
    123    339     1
    126    132     1
    126    137     1
    126    314     1
    129    294     1
    132    319     1
    135    291     1
    136    316     1
    137    294     1
    138    319     1
    141    157     1
    141    154     1
    144    148     1
    144    151     1
    147    164     1
    147    161     1
    147    160     1
    148    154     1
    148    163     1
    148    389     1
    151    157     1
    151    162     1
    151    364     1
    154    344     1
    157    369     1
    160    341     1
    161    366     1
    162    344     1
    163    369     1
    166    182     1
    166    179     1
    169    173     1
    169    176     1
    172    189     1
    172    186     1
    172    185     1
    173    179     1
    173    188     1
    173    439     1
    176    182     1
    176    187     1
    176    414     1
    179    394     1
    182    419     1
    185    391     1
    186    416     1
    187    394     1
    188    419     1
    191    207     1
    191    204     1
    194    198     1
    194    201     1
    197    214     1
    197    211     1
    197    210     1
    198    204     1
    198    213     1
    198    489     1
    201    207     1
    201    212     1
    201    464     1
    204    444     1
    207    469     1
    210    441     1
    211    466     1
    212    444     1
    213    469     1
    216    232     1
    216    229     1
    219    223     1
    219    226     1
    222    239     1
    222    236     1
    222    235     1
    223    229     1
    223    238     1
    223    539     1
    226    232     1
    226    237     1
    226    514     1
    229    494     1
    232    519     1
    235    491     1
    236    516     1
    237    494     1
    238    519     1
    241    257     1
    241    254     1
    244    248     1
    244    251     1
    247    264     1
    247    261     1
    247    260     1
    248    254     1
    248    263     1
    248    589     1
    251    257     1
    251    262     1
    251    564     1
    254    544     1
    257    569     1
    260    541     1
    261    566     1
    262    544     1
    263    569     1
    266    282     1
    266    279     1
    269    273     1
    269    276     1
    272    289     1
    272    286     1
    272    285     1
    273    279     1
    273    288     1
    273    639     1
    276    282     1
    276    287     1
    276    614     1
    279    594     1
    282    619     1
    285    591     1
    286    616     1
    287    594     1
    288    619     1
    291    307     1
    291    304     1
    294    298     1
    294    301     1
    297    314     1
    297    311     1
    297    310     1
    298    304     1
    298    313     1
    298    689     1
    301    307     1
    301    312     1
    301    664     1
    304    644     1
    307    669     1
    310    641     1
    311    666     1
    312    644     1
    313    669     1
    316    332     1
    316    329     1
    319    323     1
    319    326     1
    322    339     1
    322    336     1
    322    335     1
    323    329     1
    323    338     1
    323    739     1
    326    332     1
    326    337     1
    326    714     1
    329    694     1
    332    719     1
    335    691     1
    336    716     1
    337    694     1
    338    719     1
    341    357     1
    341    354     1
    344    348     1
    344    351     1
    347    364     1
    347    361     1
    347    360     1
    348    354     1
    348    363     1
    348    770     1
    351    357     1
    351    741     1
    351    362     1
    354    743     1
    357    772     1
    360    745     1
    361    774     1
    362    743     1
    363    772     1
    366    382     1
    366    379     1
    369    373     1
    369    376     1
    372    389     1
    372    386     1
    372    385     1
    373    379     1
    373    388     1
    373    828     1
    376    382     1
    376    799     1
    376    387     1
    379    801     1
    382    830     1
    385    803     1
    386    832     1
    387    801     1
    388    830     1
    391    407     1
    391    404     1
    394    398     1
    394    401     1
    397    414     1
    397    411     1
    397    410     1
    398    404     1
    398    413     1
    398    886     1
    401    407     1
    401    857     1
    401    412     1
    404    859     1
    407    888     1
    410    861     1
    411    890     1
    412    859     1
    413    888     1
    416    432     1
    416    429     1
    419    423     1
    419    426     1
    422    439     1
    422    436     1
    422    435     1
    423    429     1
    423    438     1
    423    944     1
    426    432     1
    426    915     1
    426    437     1
    429    917     1
    432    946     1
    435    919     1
    436    948     1
    437    917     1
    438    946     1
    441    457     1
    441    454     1
    444    448     1
    444    451     1
    447    464     1
    447    461     1
    447    460     1
    448    454     1
    448    463     1
    448   1002     1
    451    457     1
    451    973     1
    451    462     1
    454    975     1
    457   1004     1
    460    977     1
    461   1006     1
    462    975     1
    463   1004     1
    466    482     1
    466    479     1
    469    473     1
    469    476     1
    472    489     1
    472    486     1
    472    485     1
    473    479     1
    473    488     1
    473   1060     1
    476    482     1
    476   1031     1
    476    487     1
    479   1033     1
    482   1062     1
    485   1035     1
    486   1064     1
    487   1033     1
    488   1062     1
    491    507     1
    491    504     1
    494    498     1
    494    501     1
    497    514     1
    497    511     1
    497    510     1
    498    504     1
    498    513     1
    498   1118     1
    501    507     1
    501   1089     1
    501    512     1
    504   1091     1
    507   1120     1
    510   1093     1
    511   1122     1
    512   1091     1
    513   1120     1
    516    532     1
    516    529     1
    519    523     1
    519    526     1
    522    539     1
    522    536     1
    522    535     1
    523    529     1
    523    538     1
    523   1176     1
    526    532     1
    526   1147     1
    526    537     1
    529   1149     1
    532   1178     1
    535   1151     1
    536   1180     1
    537   1149     1
    538   1178     1
    541    557     1
    541    554     1
    544    548     1
    544    551     1
    547    564     1
    547    561     1
    547    560     1
    548    554     1
    548    563     1
    548   1234     1
    551    557     1
    551   1205     1
    551    562     1
    554   1207     1
    557   1236     1
    560   1209     1
    561   1238     1
    562   1207     1
    563   1236     1
    566    582     1
    566    579     1
    569    573     1
    569    576     1
    572    589     1
    572    586     1
    572    585     1
    573    579     1
    573    588     1
    573   1292     1
    576    582     1
    576   1263     1
    576    587     1
    579   1265     1
    582   1294     1
    585   1267     1
    586   1296     1
    587   1265     1
    588   1294     1
    591    607     1
    591    604     1
    594    598     1
    594    601     1
    597    614     1
    597    611     1
    597    610     1
    598    604     1
    598    613     1
    598   1350     1
    601    607     1
    601   1321     1
    601    612     1
    604   1323     1
    607   1352     1
    610   1325     1
    611   1354     1
    612   1323     1
    613   1352     1
    616    632     1
    616    629     1
    619    623     1
    619    626     1
    622    639     1
    622    636     1
    622    635     1
    623    629     1
    623    638     1
    623   1408     1
    626    632     1
    626   1379     1
    626    637     1
    629   1381     1
    632   1410     1
    635   1383     1
    636   1412     1
    637   1381     1
    638   1410     1
    641    657     1
    641    654     1
    644    648     1
    644    651     1
    647    664     1
    647    661     1
    647    660     1
    648    654     1
    648    663     1
    648   1466     1
    651    657     1
    651   1437     1
    651    662     1
    654   1439     1
    657   1468     1
    660   1441     1
    661   1470     1
    662   1439     1
    663   1468     1
    666    682     1
    666    679     1
    669    673     1
    669    676     1
    672    689     1
    672    686     1
    672    685     1
    673    679     1
    673    688     1
    673   1524     1
    676    682     1
    676   1495     1
    676    687     1
    679   1497     1
    682   1526     1
    685   1499     1
    686   1528     1
    687   1497     1
    688   1526     1
    691    707     1
    691    704     1
    694    698     1
    694    701     1
    697    714     1
    697    711     1
    697    710     1
    698    704     1
    698    713     1
    698   1582     1
    701    707     1
    701   1553     1
    701    712     1
    704   1555     1
    707   1584     1
    710   1557     1
    711   1586     1
    712   1555     1
    713   1584     1
    716    732     1
    716    729     1
    719    723     1
    719    726     1
    722    739     1
    722    736     1
    722    735     1
    723    729     1
    723   1640     1
    723    738     1
    726    732     1
    726   1611     1
    726    737     1
    729   1613     1
    732   1642     1
    735   1615     1
    736   1644     1
    737   1613     1
    738   1642     1
    741    749     1
    743    750     1
    743    751     1
    745    762     1
    745    753     1
    749    765     1
    749    757     1
    750    753     1
    750    766     1
    750    767     1
    751    762     1
    751    758     1
    751    759     1
    770    778     1
    772    779     1
    772    780     1
    774    791     1
    774    782     1
    778    794     1
    778    786     1
    779    795     1
    779    796     1
    779    782     1
    780    787     1
    780    788     1
    780    791     1
    799    807     1
    801    808     1
    801    809     1
    803    820     1
    803    811     1
    807    823     1
    807    815     1
    808    811     1
    808    824     1
    808    825     1
    809    820     1
    809    816     1
    809    817     1
    828    836     1
    830    837     1
    830    838     1
    832    849     1
    832    840     1
    836    852     1
    836    844     1
    837    853     1
    837    854     1
    837    840     1
    838    845     1
    838    846     1
    838    849     1
    857    865     1
    859    866     1
    859    867     1
    861    878     1
    861    869     1
    865    881     1
    865    873     1
    866    869     1
    866    882     1
    866    883     1
    867    878     1
    867    874     1
    867    875     1
    886    894     1
    888    895     1
    888    896     1
    890    907     1
    890    898     1
    894    910     1
    894    902     1
    895    911     1
    895    912     1
    895    898     1
    896    903     1
    896    904     1
    896    907     1
    915    923     1
    917    924     1
    917    925     1
    919    936     1
    919    927     1
    923    939     1
    923    931     1
    924    927     1
    924    940     1
    924    941     1
    925    936     1
    925    932     1
    925    933     1
    944    952     1
    946    953     1
    946    954     1
    948    965     1
    948    956     1
    952    968     1
    952    960     1
    953    969     1
    953    970     1
    953    956     1
    954    961     1
    954    962     1
    954    965     1
    973    981     1
    975    982     1
    975    983     1
    977    994     1
    977    985     1
    981    997     1
    981    989     1
    982    985     1
    982    998     1
    982    999     1
    983    994     1
    983    990     1
    983    991     1
   1002   1010     1
   1004   1011     1
   1004   1012     1
   1006   1023     1
   1006   1014     1
   1010   1026     1
   1010   1018     1
   1011   1027     1
   1011   1028     1
   1011   1014     1
   1012   1019     1
   1012   1020     1
   1012   1023     1
   1031   1039     1
   1033   1040     1
   1033   1041     1
   1035   1052     1
   1035   1043     1
   1039   1055     1
   1039   1047     1
   1040   1043     1
   1040   1056     1
   1040   1057     1
   1041   1052     1
   1041   1048     1
   1041   1049     1
   1060   1068     1
   1062   1069     1
   1062   1070     1
   1064   1081     1
   1064   1072     1
   1068   1084     1
   1068   1076     1
   1069   1085     1
   1069   1086     1
   1069   1072     1
   1070   1077     1
   1070   1078     1
   1070   1081     1
   1089   1097     1
   1091   1098     1
   1091   1099     1
   1093   1110     1
   1093   1101     1
   1097   1113     1
   1097   1105     1
   1098   1101     1
   1098   1114     1
   1098   1115     1
   1099   1110     1
   1099   1106     1
   1099   1107     1
   1118   1126     1
   1120   1127     1
   1120   1128     1
   1122   1139     1
   1122   1130     1
   1126   1142     1
   1126   1134     1
   1127   1143     1
   1127   1144     1
   1127   1130     1
   1128   1135     1
   1128   1136     1
   1128   1139     1
   1147   1155     1
   1149   1156     1
   1149   1157     1
   1151   1168     1
   1151   1159     1
   1155   1171     1
   1155   1163     1
   1156   1159     1
   1156   1172     1
   1156   1173     1
   1157   1168     1
   1157   1164     1
   1157   1165     1
   1176   1184     1
   1178   1185     1
   1178   1186     1
   1180   1197     1
   1180   1188     1
   1184   1200     1
   1184   1192     1
   1185   1201     1
   1185   1202     1
   1185   1188     1
   1186   1193     1
   1186   1194     1
   1186   1197     1
   1205   1213     1
   1207   1214     1
   1207   1215     1
   1209   1226     1
   1209   1217     1
   1213   1229     1
   1213   1221     1
   1214   1217     1
   1214   1230     1
   1214   1231     1
   1215   1226     1
   1215   1222     1
   1215   1223     1
   1234   1242     1
   1236   1243     1
   1236   1244     1
   1238   1255     1
   1238   1246     1
   1242   1258     1
   1242   1250     1
   1243   1259     1
   1243   1260     1
   1243   1246     1
   1244   1251     1
   1244   1252     1
   1244   1255     1
   1263   1271     1
   1265   1272     1
   1265   1273     1
   1267   1284     1
   1267   1275     1
   1271   1287     1
   1271   1279     1
   1272   1275     1
   1272   1288     1
   1272   1289     1
   1273   1284     1
   1273   1280     1
   1273   1281     1
   1292   1300     1
   1294   1301     1
   1294   1302     1
   1296   1313     1
   1296   1304     1
   1300   1316     1
   1300   1308     1
   1301   1317     1
   1301   1318     1
   1301   1304     1
   1302   1309     1
   1302   1310     1
   1302   1313     1
   1321   1329     1
   1323   1330     1
   1323   1331     1
   1325   1342     1
   1325   1333     1
   1329   1345     1
   1329   1337     1
   1330   1333     1
   1330   1346     1
   1330   1347     1
   1331   1342     1
   1331   1338     1
   1331   1339     1
   1350   1358     1
   1352   1359     1
   1352   1360     1
   1354   1371     1
   1354   1362     1
   1358   1374     1
   1358   1366     1
   1359   1375     1
   1359   1376     1
   1359   1362     1
   1360   1367     1
   1360   1368     1
   1360   1371     1
   1379   1387     1
   1381   1388     1
   1381   1389     1
   1383   1400     1
   1383   1391     1
   1387   1403     1
   1387   1395     1
   1388   1391     1
   1388   1404     1
   1388   1405     1
   1389   1400     1
   1389   1396     1
   1389   1397     1
   1408   1416     1
   1410   1417     1
   1410   1418     1
   1412   1429     1
   1412   1420     1
   1416   1432     1
   1416   1424     1
   1417   1433     1
   1417   1434     1
   1417   1420     1
   1418   1425     1
   1418   1426     1
   1418   1429     1
   1437   1445     1
   1439   1446     1
   1439   1447     1
   1441   1458     1
   1441   1449     1
   1445   1461     1
   1445   1453     1
   1446   1449     1
   1446   1462     1
   1446   1463     1
   1447   1458     1
   1447   1454     1
   1447   1455     1
   1466   1474     1
   1468   1475     1
   1468   1476     1
   1470   1487     1
   1470   1478     1
   1474   1490     1
   1474   1482     1
   1475   1491     1
   1475   1492     1
   1475   1478     1
   1476   1483     1
   1476   1484     1
   1476   1487     1
   1495   1503     1
   1497   1504     1
   1497   1505     1
   1499   1516     1
   1499   1507     1
   1503   1519     1
   1503   1511     1
   1504   1507     1
   1504   1520     1
   1504   1521     1
   1505   1516     1
   1505   1512     1
   1505   1513     1
   1524   1532     1
   1526   1533     1
   1526   1534     1
   1528   1545     1
   1528   1536     1
   1532   1548     1
   1532   1540     1
   1533   1549     1
   1533   1550     1
   1533   1536     1
   1534   1541     1
   1534   1542     1
   1534   1545     1
   1553   1561     1
   1555   1562     1
   1555   1563     1
   1557   1574     1
   1557   1565     1
   1561   1577     1
   1561   1569     1
   1562   1565     1
   1562   1578     1
   1562   1579     1
   1563   1574     1
   1563   1570     1
   1563   1571     1
   1582   1590     1
   1584   1591     1
   1584   1592     1
   1586   1603     1
   1586   1594     1
   1590   1606     1
   1590   1598     1
   1591   1607     1
   1591   1608     1
   1591   1594     1
   1592   1599     1
   1592   1600     1
   1592   1603     1
   1611   1619     1
   1613   1620     1
   1613   1621     1
   1615   1632     1
   1615   1623     1
   1619   1635     1
   1619   1627     1
   1620   1623     1
   1620   1636     1
   1620   1637     1
   1621   1632     1
   1621   1628     1
   1621   1629     1
   1640   1648     1
   1642   1649     1
   1642   1650     1
   1644   1661     1
   1644   1652     1
   1648   1664     1
   1648   1656     1
   1649   1665     1
   1649   1666     1
   1649   1652     1
   1650   1657     1
   1650   1658     1
   1650   1661     1
      1     10     1
      1     11     1
      1     13     1
      1     14     1
      2      7     1
      2      5     1
      2      6     1
      2      9     1
      2     12     1
      3      7     1
      3      5     1
      3      6     1
      3      9     1
      3     12     1
      4     16     1
      4     17     1
      4     19     1
      4     20     1
      8      5     1
      5     15     1
      5     18     1
      8      6     1
      6     15     1
      6     18     1
      7     22     1
      7     23     1
      7     25     1
      7     26     1
      8     31     1
      8     32     1
      8     28     1
      8     29     1
      9     13     1
      9     14     1
     10     12     1
     10     34     1
     10     31     1
     10     32     1
     11     12     1
     11     34     1
     11     31     1
     11     32     1
     13     33     1
     13     28     1
     13     29     1
     14     33     1
     14     28     1
     14     29     1
     15     19     1
     15     20     1
     16     18     1
     16     35     1
     16     22     1
     16     23     1
     17     18     1
     17     35     1
     17     22     1
     17     23     1
     19     36     1
     19     25     1
     19     26     1
     20     36     1
     20     25     1
     20     26     1
     21    115     1
     22     38     1
     22    114     1
     23     38     1
     23    114     1
     24    140     1
     25     39     1
     25    139     1
     26     39     1
     26    139     1
     27     65     1
     28     37     1
     28     64     1
     29     37     1
     29     64     1
     30     90     1
     31     40     1
     31     89     1
     32     40     1
     32     89     1
     33     45     1
     33     46     1
     34     70     1
     34     71     1
     35     95     1
     35     96     1
     36    120     1
     36    121     1
     37     65     1
     38    115     1
     39    140     1
     40     90     1
     41     65     1
     41     49     1
     41     50     1
     41     52     1
     41     53     1
     42     64     1
     42     45     1
     42     46     1
     42     48     1
     42     51     1
     43     64     1
     43     45     1
     43     46     1
     43     48     1
     43     51     1
     45     47     1
     45     65     1
     46     47     1
     46     65     1
     47     58     1
     47     59     1
     47     55     1
     47     56     1
     48     52     1
     48     53     1
     49     51     1
     49     61     1
     49     58     1
     49     59     1
     50     51     1
     50     61     1
     50     58     1
     50     59     1
     52     60     1
     52     55     1
     52     56     1
     53     60     1
     53     55     1
     53     56     1
     54    165     1
     55     62     1
     55    164     1
     56     62     1
     56    164     1
     57    190     1
     58     63     1
     58    189     1
     59     63     1
     59    189     1
     60    145     1
     60    146     1
     61    170     1
     61    171     1
     62    165     1
     63    190     1
     66     90     1
     66     74     1
     66     75     1
     66     77     1
     66     78     1
     67     89     1
     67     70     1
     67     71     1
     67     73     1
     67     76     1
     68     89     1
     68     70     1
     68     71     1
     68     73     1
     68     76     1
     70     72     1
     70     90     1
     71     72     1
     71     90     1
     72     83     1
     72     84     1
     72     80     1
     72     81     1
     73     77     1
     73     78     1
     74     76     1
     74     86     1
     74     83     1
     74     84     1
     75     76     1
     75     86     1
     75     83     1
     75     84     1
     77     85     1
     77     80     1
     77     81     1
     78     85     1
     78     80     1
     78     81     1
     79    215     1
     80     87     1
     80    214     1
     81     87     1
     81    214     1
     82    240     1
     83     88     1
     83    239     1
     84     88     1
     84    239     1
     85    195     1
     85    196     1
     86    220     1
     86    221     1
     87    215     1
     88    240     1
     91    115     1
     91     99     1
     91    100     1
     91    102     1
     91    103     1
     92    114     1
     92     95     1
     92     96     1
     92     98     1
     92    101     1
     93    114     1
     93     95     1
     93     96     1
     93     98     1
     93    101     1
     95     97     1
     95    115     1
     96     97     1
     96    115     1
     97    108     1
     97    109     1
     97    105     1
     97    106     1
     98    102     1
     98    103     1
     99    101     1
     99    111     1
     99    108     1
     99    109     1
    100    101     1
    100    111     1
    100    108     1
    100    109     1
    102    110     1
    102    105     1
    102    106     1
    103    110     1
    103    105     1
    103    106     1
    104    265     1
    105    112     1
    105    264     1
    106    112     1
    106    264     1
    107    290     1
    108    113     1
    108    289     1
    109    113     1
    109    289     1
    110    245     1
    110    246     1
    111    270     1
    111    271     1
    112    265     1
    113    290     1
    116    140     1
    116    124     1
    116    125     1
    116    127     1
    116    128     1
    117    139     1
    117    120     1
    117    121     1
    117    123     1
    117    126     1
    118    139     1
    118    120     1
    118    121     1
    118    123     1
    118    126     1
    120    122     1
    120    140     1
    121    122     1
    121    140     1
    122    133     1
    122    134     1
    122    130     1
    122    131     1
    123    127     1
    123    128     1
    124    126     1
    124    136     1
    124    133     1
    124    134     1
    125    126     1
    125    136     1
    125    133     1
    125    134     1
    127    135     1
    127    130     1
    127    131     1
    128    135     1
    128    130     1
    128    131     1
    129    315     1
    130    137     1
    130    314     1
    131    137     1
    131    314     1
    132    340     1
    133    138     1
    133    339     1
    134    138     1
    134    339     1
    135    295     1
    135    296     1
    136    320     1
    136    321     1
    137    315     1
    138    340     1
    141    165     1
    141    149     1
    141    150     1
    141    152     1
    141    153     1
    142    164     1
    142    145     1
    142    146     1
    142    148     1
    142    151     1
    143    164     1
    143    145     1
    143    146     1
    143    148     1
    143    151     1
    145    147     1
    145    165     1
    146    147     1
    146    165     1
    147    158     1
    147    159     1
    147    155     1
    147    156     1
    148    152     1
    148    153     1
    149    151     1
    149    161     1
    149    158     1
    149    159     1
    150    151     1
    150    161     1
    150    158     1
    150    159     1
    152    160     1
    152    155     1
    152    156     1
    153    160     1
    153    155     1
    153    156     1
    154    365     1
    155    162     1
    155    364     1
    156    162     1
    156    364     1
    157    390     1
    158    163     1
    158    389     1
    159    163     1
    159    389     1
    160    345     1
    160    346     1
    161    370     1
    161    371     1
    162    365     1
    163    390     1
    166    190     1
    166    174     1
    166    175     1
    166    177     1
    166    178     1
    167    189     1
    167    170     1
    167    171     1
    167    173     1
    167    176     1
    168    189     1
    168    170     1
    168    171     1
    168    173     1
    168    176     1
    170    172     1
    170    190     1
    171    172     1
    171    190     1
    172    183     1
    172    184     1
    172    180     1
    172    181     1
    173    177     1
    173    178     1
    174    176     1
    174    186     1
    174    183     1
    174    184     1
    175    176     1
    175    186     1
    175    183     1
    175    184     1
    177    185     1
    177    180     1
    177    181     1
    178    185     1
    178    180     1
    178    181     1
    179    415     1
    180    187     1
    180    414     1
    181    187     1
    181    414     1
    182    440     1
    183    188     1
    183    439     1
    184    188     1
    184    439     1
    185    395     1
    185    396     1
    186    420     1
    186    421     1
    187    415     1
    188    440     1
    191    215     1
    191    199     1
    191    200     1
    191    202     1
    191    203     1
    192    214     1
    192    195     1
    192    196     1
    192    198     1
    192    201     1
    193    214     1
    193    195     1
    193    196     1
    193    198     1
    193    201     1
    195    197     1
    195    215     1
    196    197     1
    196    215     1
    197    208     1
    197    209     1
    197    205     1
    197    206     1
    198    202     1
    198    203     1
    199    201     1
    199    211     1
    199    208     1
    199    209     1
    200    201     1
    200    211     1
    200    208     1
    200    209     1
    202    210     1
    202    205     1
    202    206     1
    203    210     1
    203    205     1
    203    206     1
    204    465     1
    205    212     1
    205    464     1
    206    212     1
    206    464     1
    207    490     1
    208    213     1
    208    489     1
    209    213     1
    209    489     1
    210    445     1
    210    446     1
    211    470     1
    211    471     1
    212    465     1
    213    490     1
    216    240     1
    216    224     1
    216    225     1
    216    227     1
    216    228     1
    217    239     1
    217    220     1
    217    221     1
    217    223     1
    217    226     1
    218    239     1
    218    220     1
    218    221     1
    218    223     1
    218    226     1
    220    222     1
    220    240     1
    221    222     1
    221    240     1
    222    233     1
    222    234     1
    222    230     1
    222    231     1
    223    227     1
    223    228     1
    224    226     1
    224    236     1
    224    233     1
    224    234     1
    225    226     1
    225    236     1
    225    233     1
    225    234     1
    227    235     1
    227    230     1
    227    231     1
    228    235     1
    228    230     1
    228    231     1
    229    515     1
    230    237     1
    230    514     1
    231    237     1
    231    514     1
    232    540     1
    233    238     1
    233    539     1
    234    238     1
    234    539     1
    235    495     1
    235    496     1
    236    520     1
    236    521     1
    237    515     1
    238    540     1
    241    265     1
    241    249     1
    241    250     1
    241    252     1
    241    253     1
    242    264     1
    242    245     1
    242    246     1
    242    248     1
    242    251     1
    243    264     1
    243    245     1
    243    246     1
    243    248     1
    243    251     1
    245    247     1
    245    265     1
    246    247     1
    246    265     1
    247    258     1
    247    259     1
    247    255     1
    247    256     1
    248    252     1
    248    253     1
    249    251     1
    249    261     1
    249    258     1
    249    259     1
    250    251     1
    250    261     1
    250    258     1
    250    259     1
    252    260     1
    252    255     1
    252    256     1
    253    260     1
    253    255     1
    253    256     1
    254    565     1
    255    262     1
    255    564     1
    256    262     1
    256    564     1
    257    590     1
    258    263     1
    258    589     1
    259    263     1
    259    589     1
    260    545     1
    260    546     1
    261    570     1
    261    571     1
    262    565     1
    263    590     1
    266    290     1
    266    274     1
    266    275     1
    266    277     1
    266    278     1
    267    289     1
    267    270     1
    267    271     1
    267    273     1
    267    276     1
    268    289     1
    268    270     1
    268    271     1
    268    273     1
    268    276     1
    270    272     1
    270    290     1
    271    272     1
    271    290     1
    272    283     1
    272    284     1
    272    280     1
    272    281     1
    273    277     1
    273    278     1
    274    276     1
    274    286     1
    274    283     1
    274    284     1
    275    276     1
    275    286     1
    275    283     1
    275    284     1
    277    285     1
    277    280     1
    277    281     1
    278    285     1
    278    280     1
    278    281     1
    279    615     1
    280    287     1
    280    614     1
    281    287     1
    281    614     1
    282    640     1
    283    288     1
    283    639     1
    284    288     1
    284    639     1
    285    595     1
    285    596     1
    286    620     1
    286    621     1
    287    615     1
    288    640     1
    291    315     1
    291    299     1
    291    300     1
    291    302     1
    291    303     1
    292    314     1
    292    295     1
    292    296     1
    292    298     1
    292    301     1
    293    314     1
    293    295     1
    293    296     1
    293    298     1
    293    301     1
    295    297     1
    295    315     1
    296    297     1
    296    315     1
    297    308     1
    297    309     1
    297    305     1
    297    306     1
    298    302     1
    298    303     1
    299    301     1
    299    311     1
    299    308     1
    299    309     1
    300    301     1
    300    311     1
    300    308     1
    300    309     1
    302    310     1
    302    305     1
    302    306     1
    303    310     1
    303    305     1
    303    306     1
    304    665     1
    305    312     1
    305    664     1
    306    312     1
    306    664     1
    307    690     1
    308    313     1
    308    689     1
    309    313     1
    309    689     1
    310    645     1
    310    646     1
    311    670     1
    311    671     1
    312    665     1
    313    690     1
    316    340     1
    316    324     1
    316    325     1
    316    327     1
    316    328     1
    317    339     1
    317    320     1
    317    321     1
    317    323     1
    317    326     1
    318    339     1
    318    320     1
    318    321     1
    318    323     1
    318    326     1
    320    322     1
    320    340     1
    321    322     1
    321    340     1
    322    333     1
    322    334     1
    322    330     1
    322    331     1
    323    327     1
    323    328     1
    324    326     1
    324    336     1
    324    333     1
    324    334     1
    325    326     1
    325    336     1
    325    333     1
    325    334     1
    327    335     1
    327    330     1
    327    331     1
    328    335     1
    328    330     1
    328    331     1
    329    715     1
    330    337     1
    330    714     1
    331    337     1
    331    714     1
    332    740     1
    333    338     1
    333    739     1
    334    338     1
    334    739     1
    335    695     1
    335    696     1
    336    720     1
    336    721     1
    337    715     1
    338    740     1
    341    365     1
    341    349     1
    341    350     1
    341    352     1
    341    353     1
    342    364     1
    342    345     1
    342    346     1
    342    348     1
    342    351     1
    343    364     1
    343    345     1
    343    346     1
    343    348     1
    343    351     1
    345    347     1
    345    365     1
    346    347     1
    346    365     1
    347    358     1
    347    359     1
    347    355     1
    347    356     1
    348    352     1
    348    353     1
    349    351     1
    349    361     1
    349    358     1
    349    359     1
    350    351     1
    350    361     1
    350    358     1
    350    359     1
    352    360     1
    352    355     1
    352    356     1
    353    360     1
    353    355     1
    353    356     1
    354    742     1
    355    741     1
    355    362     1
    356    741     1
    356    362     1
    357    771     1
    358    363     1
    358    770     1
    359    363     1
    359    770     1
    360    744     1
    360    746     1
    361    773     1
    361    775     1
    362    742     1
    363    771     1
    366    390     1
    366    374     1
    366    375     1
    366    377     1
    366    378     1
    367    389     1
    367    370     1
    367    371     1
    367    373     1
    367    376     1
    368    389     1
    368    370     1
    368    371     1
    368    373     1
    368    376     1
    370    372     1
    370    390     1
    371    372     1
    371    390     1
    372    383     1
    372    384     1
    372    380     1
    372    381     1
    373    377     1
    373    378     1
    374    376     1
    374    386     1
    374    383     1
    374    384     1
    375    376     1
    375    386     1
    375    383     1
    375    384     1
    377    385     1
    377    380     1
    377    381     1
    378    385     1
    378    380     1
    378    381     1
    379    800     1
    380    799     1
    380    387     1
    381    799     1
    381    387     1
    382    829     1
    383    388     1
    383    828     1
    384    388     1
    384    828     1
    385    802     1
    385    804     1
    386    831     1
    386    833     1
    387    800     1
    388    829     1
    391    415     1
    391    399     1
    391    400     1
    391    402     1
    391    403     1
    392    414     1
    392    395     1
    392    396     1
    392    398     1
    392    401     1
    393    414     1
    393    395     1
    393    396     1
    393    398     1
    393    401     1
    395    397     1
    395    415     1
    396    397     1
    396    415     1
    397    408     1
    397    409     1
    397    405     1
    397    406     1
    398    402     1
    398    403     1
    399    401     1
    399    411     1
    399    408     1
    399    409     1
    400    401     1
    400    411     1
    400    408     1
    400    409     1
    402    410     1
    402    405     1
    402    406     1
    403    410     1
    403    405     1
    403    406     1
    404    858     1
    405    857     1
    405    412     1
    406    857     1
    406    412     1
    407    887     1
    408    413     1
    408    886     1
    409    413     1
    409    886     1
    410    860     1
    410    862     1
    411    889     1
    411    891     1
    412    858     1
    413    887     1
    416    440     1
    416    424     1
    416    425     1
    416    427     1
    416    428     1
    417    439     1
    417    420     1
    417    421     1
    417    423     1
    417    426     1
    418    439     1
    418    420     1
    418    421     1
    418    423     1
    418    426     1
    420    422     1
    420    440     1
    421    422     1
    421    440     1
    422    433     1
    422    434     1
    422    430     1
    422    431     1
    423    427     1
    423    428     1
    424    426     1
    424    436     1
    424    433     1
    424    434     1
    425    426     1
    425    436     1
    425    433     1
    425    434     1
    427    435     1
    427    430     1
    427    431     1
    428    435     1
    428    430     1
    428    431     1
    429    916     1
    430    915     1
    430    437     1
    431    915     1
    431    437     1
    432    945     1
    433    438     1
    433    944     1
    434    438     1
    434    944     1
    435    918     1
    435    920     1
    436    947     1
    436    949     1
    437    916     1
    438    945     1
    441    465     1
    441    449     1
    441    450     1
    441    452     1
    441    453     1
    442    464     1
    442    445     1
    442    446     1
    442    448     1
    442    451     1
    443    464     1
    443    445     1
    443    446     1
    443    448     1
    443    451     1
    445    447     1
    445    465     1
    446    447     1
    446    465     1
    447    458     1
    447    459     1
    447    455     1
    447    456     1
    448    452     1
    448    453     1
    449    451     1
    449    461     1
    449    458     1
    449    459     1
    450    451     1
    450    461     1
    450    458     1
    450    459     1
    452    460     1
    452    455     1
    452    456     1
    453    460     1
    453    455     1
    453    456     1
    454    974     1
    455    973     1
    455    462     1
    456    973     1
    456    462     1
    457   1003     1
    458    463     1
    458   1002     1
    459    463     1
    459   1002     1
    460    976     1
    460    978     1
    461   1005     1
    461   1007     1
    462    974     1
    463   1003     1
    466    490     1
    466    474     1
    466    475     1
    466    477     1
    466    478     1
    467    489     1
    467    470     1
    467    471     1
    467    473     1
    467    476     1
    468    489     1
    468    470     1
    468    471     1
    468    473     1
    468    476     1
    470    472     1
    470    490     1
    471    472     1
    471    490     1
    472    483     1
    472    484     1
    472    480     1
    472    481     1
    473    477     1
    473    478     1
    474    476     1
    474    486     1
    474    483     1
    474    484     1
    475    476     1
    475    486     1
    475    483     1
    475    484     1
    477    485     1
    477    480     1
    477    481     1
    478    485     1
    478    480     1
    478    481     1
    479   1032     1
    480   1031     1
    480    487     1
    481   1031     1
    481    487     1
    482   1061     1
    483    488     1
    483   1060     1
    484    488     1
    484   1060     1
    485   1034     1
    485   1036     1
    486   1063     1
    486   1065     1
    487   1032     1
    488   1061     1
    491    515     1
    491    499     1
    491    500     1
    491    502     1
    491    503     1
    492    514     1
    492    495     1
    492    496     1
    492    498     1
    492    501     1
    493    514     1
    493    495     1
    493    496     1
    493    498     1
    493    501     1
    495    497     1
    495    515     1
    496    497     1
    496    515     1
    497    508     1
    497    509     1
    497    505     1
    497    506     1
    498    502     1
    498    503     1
    499    501     1
    499    511     1
    499    508     1
    499    509     1
    500    501     1
    500    511     1
    500    508     1
    500    509     1
    502    510     1
    502    505     1
    502    506     1
    503    510     1
    503    505     1
    503    506     1
    504   1090     1
    505   1089     1
    505    512     1
    506   1089     1
    506    512     1
    507   1119     1
    508    513     1
    508   1118     1
    509    513     1
    509   1118     1
    510   1092     1
    510   1094     1
    511   1121     1
    511   1123     1
    512   1090     1
    513   1119     1
    516    540     1
    516    524     1
    516    525     1
    516    527     1
    516    528     1
    517    539     1
    517    520     1
    517    521     1
    517    523     1
    517    526     1
    518    539     1
    518    520     1
    518    521     1
    518    523     1
    518    526     1
    520    522     1
    520    540     1
    521    522     1
    521    540     1
    522    533     1
    522    534     1
    522    530     1
    522    531     1
    523    527     1
    523    528     1
    524    526     1
    524    536     1
    524    533     1
    524    534     1
    525    526     1
    525    536     1
    525    533     1
    525    534     1
    527    535     1
    527    530     1
    527    531     1
    528    535     1
    528    530     1
    528    531     1
    529   1148     1
    530   1147     1
    530    537     1
    531   1147     1
    531    537     1
    532   1177     1
    533    538     1
    533   1176     1
    534    538     1
    534   1176     1
    535   1150     1
    535   1152     1
    536   1179     1
    536   1181     1
    537   1148     1
    538   1177     1
    541    565     1
    541    549     1
    541    550     1
    541    552     1
    541    553     1
    542    564     1
    542    545     1
    542    546     1
    542    548     1
    542    551     1
    543    564     1
    543    545     1
    543    546     1
    543    548     1
    543    551     1
    545    547     1
    545    565     1
    546    547     1
    546    565     1
    547    558     1
    547    559     1
    547    555     1
    547    556     1
    548    552     1
    548    553     1
    549    551     1
    549    561     1
    549    558     1
    549    559     1
    550    551     1
    550    561     1
    550    558     1
    550    559     1
    552    560     1
    552    555     1
    552    556     1
    553    560     1
    553    555     1
    553    556     1
    554   1206     1
    555   1205     1
    555    562     1
    556   1205     1
    556    562     1
    557   1235     1
    558    563     1
    558   1234     1
    559    563     1
    559   1234     1
    560   1208     1
    560   1210     1
    561   1237     1
    561   1239     1
    562   1206     1
    563   1235     1
    566    590     1
    566    574     1
    566    575     1
    566    577     1
    566    578     1
    567    589     1
    567    570     1
    567    571     1
    567    573     1
    567    576     1
    568    589     1
    568    570     1
    568    571     1
    568    573     1
    568    576     1
    570    572     1
    570    590     1
    571    572     1
    571    590     1
    572    583     1
    572    584     1
    572    580     1
    572    581     1
    573    577     1
    573    578     1
    574    576     1
    574    586     1
    574    583     1
    574    584     1
    575    576     1
    575    586     1
    575    583     1
    575    584     1
    577    585     1
    577    580     1
    577    581     1
    578    585     1
    578    580     1
    578    581     1
    579   1264     1
    580   1263     1
    580    587     1
    581   1263     1
    581    587     1
    582   1293     1
    583    588     1
    583   1292     1
    584    588     1
    584   1292     1
    585   1266     1
    585   1268     1
    586   1295     1
    586   1297     1
    587   1264     1
    588   1293     1
    591    615     1
    591    599     1
    591    600     1
    591    602     1
    591    603     1
    592    614     1
    592    595     1
    592    596     1
    592    598     1
    592    601     1
    593    614     1
    593    595     1
    593    596     1
    593    598     1
    593    601     1
    595    597     1
    595    615     1
    596    597     1
    596    615     1
    597    608     1
    597    609     1
    597    605     1
    597    606     1
    598    602     1
    598    603     1
    599    601     1
    599    611     1
    599    608     1
    599    609     1
    600    601     1
    600    611     1
    600    608     1
    600    609     1
    602    610     1
    602    605     1
    602    606     1
    603    610     1
    603    605     1
    603    606     1
    604   1322     1
    605   1321     1
    605    612     1
    606   1321     1
    606    612     1
    607   1351     1
    608    613     1
    608   1350     1
    609    613     1
    609   1350     1
    610   1324     1
    610   1326     1
    611   1353     1
    611   1355     1
    612   1322     1
    613   1351     1
    616    640     1
    616    624     1
    616    625     1
    616    627     1
    616    628     1
    617    639     1
    617    620     1
    617    621     1
    617    623     1
    617    626     1
    618    639     1
    618    620     1
    618    621     1
    618    623     1
    618    626     1
    620    622     1
    620    640     1
    621    622     1
    621    640     1
    622    633     1
    622    634     1
    622    630     1
    622    631     1
    623    627     1
    623    628     1
    624    626     1
    624    636     1
    624    633     1
    624    634     1
    625    626     1
    625    636     1
    625    633     1
    625    634     1
    627    635     1
    627    630     1
    627    631     1
    628    635     1
    628    630     1
    628    631     1
    629   1380     1
    630   1379     1
    630    637     1
    631   1379     1
    631    637     1
    632   1409     1
    633    638     1
    633   1408     1
    634    638     1
    634   1408     1
    635   1382     1
    635   1384     1
    636   1411     1
    636   1413     1
    637   1380     1
    638   1409     1
    641    665     1
    641    649     1
    641    650     1
    641    652     1
    641    653     1
    642    664     1
    642    645     1
    642    646     1
    642    648     1
    642    651     1
    643    664     1
    643    645     1
    643    646     1
    643    648     1
    643    651     1
    645    647     1
    645    665     1
    646    647     1
    646    665     1
    647    658     1
    647    659     1
    647    655     1
    647    656     1
    648    652     1
    648    653     1
    649    651     1
    649    661     1
    649    658     1
    649    659     1
    650    651     1
    650    661     1
    650    658     1
    650    659     1
    652    660     1
    652    655     1
    652    656     1
    653    660     1
    653    655     1
    653    656     1
    654   1438     1
    655   1437     1
    655    662     1
    656   1437     1
    656    662     1
    657   1467     1
    658    663     1
    658   1466     1
    659    663     1
    659   1466     1
    660   1440     1
    660   1442     1
    661   1469     1
    661   1471     1
    662   1438     1
    663   1467     1
    666    690     1
    666    674     1
    666    675     1
    666    677     1
    666    678     1
    667    689     1
    667    670     1
    667    671     1
    667    673     1
    667    676     1
    668    689     1
    668    670     1
    668    671     1
    668    673     1
    668    676     1
    670    672     1
    670    690     1
    671    672     1
    671    690     1
    672    683     1
    672    684     1
    672    680     1
    672    681     1
    673    677     1
    673    678     1
    674    676     1
    674    686     1
    674    683     1
    674    684     1
    675    676     1
    675    686     1
    675    683     1
    675    684     1
    677    685     1
    677    680     1
    677    681     1
    678    685     1
    678    680     1
    678    681     1
    679   1496     1
    680   1495     1
    680    687     1
    681   1495     1
    681    687     1
    682   1525     1
    683    688     1
    683   1524     1
    684    688     1
    684   1524     1
    685   1498     1
    685   1500     1
    686   1527     1
    686   1529     1
    687   1496     1
    688   1525     1
    691    715     1
    691    699     1
    691    700     1
    691    702     1
    691    703     1
    692    714     1
    692    695     1
    692    696     1
    692    698     1
    692    701     1
    693    714     1
    693    695     1
    693    696     1
    693    698     1
    693    701     1
    695    697     1
    695    715     1
    696    697     1
    696    715     1
    697    708     1
    697    709     1
    697    705     1
    697    706     1
    698    702     1
    698    703     1
    699    701     1
    699    711     1
    699    708     1
    699    709     1
    700    701     1
    700    711     1
    700    708     1
    700    709     1
    702    710     1
    702    705     1
    702    706     1
    703    710     1
    703    705     1
    703    706     1
    704   1554     1
    705   1553     1
    705    712     1
    706   1553     1
    706    712     1
    707   1583     1
    708    713     1
    708   1582     1
    709    713     1
    709   1582     1
    710   1556     1
    710   1558     1
    711   1585     1
    711   1587     1
    712   1554     1
    713   1583     1
    716    740     1
    716    724     1
    716    725     1
    716    727     1
    716    728     1
    717    739     1
    717    720     1
    717    721     1
    717    723     1
    717    726     1
    718    739     1
    718    720     1
    718    721     1
    718    723     1
    718    726     1
    720    722     1
    720    740     1
    721    722     1
    721    740     1
    722    733     1
    722    734     1
    722    730     1
    722    731     1
    723    727     1
    723    728     1
    724    726     1
    724    736     1
    724    733     1
    724    734     1
    725    726     1
    725    736     1
    725    733     1
    725    734     1
    727    735     1
    727    730     1
    727    731     1
    728    735     1
    728    730     1
    728    731     1
    729   1612     1
    730   1611     1
    730    737     1
    731   1611     1
    731    737     1
    732   1641     1
    733   1640     1
    733    738     1
    734   1640     1
    734    738     1
    735   1614     1
    735   1616     1
    736   1643     1
    736   1645     1
    737   1612     1
    738   1641     1
    741    747     1
    741    748     1
    742    745     1
    742    744     1
    742    746     1
    744    749     1
    744    747     1
    744    748     1
    745    760     1
    745    761     1
    745    752     1
    745    754     1
    746    749     1
    746    747     1
    746    748     1
    747    750     1
    747    751     1
    748    750     1
    748    751     1
    749    763     1
    749    764     1
    749    755     1
    749    756     1
    750    752     1
    750    754     1
    751    760     1
    751    761     1
    752    757     1
    752    755     1
    752    756     1
    753    768     1
    754    757     1
    754    755     1
    754    756     1
    755    758     1
    755    759     1
    756    758     1
    756    759     1
    759    768     1
    760    765     1
    760    763     1
    760    764     1
    761    765     1
    761    763     1
    761    764     1
    762    769     1
    763    766     1
    763    767     1
    764    766     1
    764    767     1
    766    769     1
    770    776     1
    770    777     1
    771    774     1
    771    773     1
    771    775     1
    773    778     1
    773    776     1
    773    777     1
    774    789     1
    774    790     1
    774    781     1
    774    783     1
    775    778     1
    775    776     1
    775    777     1
    776    779     1
    776    780     1
    777    779     1
    777    780     1
    778    792     1
    778    793     1
    778    784     1
    778    785     1
    779    781     1
    779    783     1
    780    789     1
    780    790     1
    781    786     1
    781    784     1
    781    785     1
    782    797     1
    783    786     1
    783    784     1
    783    785     1
    784    787     1
    784    788     1
    785    787     1
    785    788     1
    788    797     1
    789    794     1
    789    792     1
    789    793     1
    790    794     1
    790    792     1
    790    793     1
    791    798     1
    792    795     1
    792    796     1
    793    795     1
    793    796     1
    795    798     1
    799    805     1
    799    806     1
    800    803     1
    800    802     1
    800    804     1
    802    807     1
    802    805     1
    802    806     1
    803    818     1
    803    819     1
    803    810     1
    803    812     1
    804    807     1
    804    805     1
    804    806     1
    805    808     1
    805    809     1
    806    808     1
    806    809     1
    807    821     1
    807    822     1
    807    813     1
    807    814     1
    808    810     1
    808    812     1
    809    818     1
    809    819     1
    810    815     1
    810    813     1
    810    814     1
    811    826     1
    812    815     1
    812    813     1
    812    814     1
    813    816     1
    813    817     1
    814    816     1
    814    817     1
    817    826     1
    818    823     1
    818    821     1
    818    822     1
    819    823     1
    819    821     1
    819    822     1
    820    827     1
    821    824     1
    821    825     1
    822    824     1
    822    825     1
    824    827     1
    828    834     1
    828    835     1
    829    832     1
    829    831     1
    829    833     1
    831    836     1
    831    834     1
    831    835     1
    832    847     1
    832    848     1
    832    839     1
    832    841     1
    833    836     1
    833    834     1
    833    835     1
    834    837     1
    834    838     1
    835    837     1
    835    838     1
    836    850     1
    836    851     1
    836    842     1
    836    843     1
    837    839     1
    837    841     1
    838    847     1
    838    848     1
    839    844     1
    839    842     1
    839    843     1
    840    855     1
    841    844     1
    841    842     1
    841    843     1
    842    845     1
    842    846     1
    843    845     1
    843    846     1
    846    855     1
    847    852     1
    847    850     1
    847    851     1
    848    852     1
    848    850     1
    848    851     1
    849    856     1
    850    853     1
    850    854     1
    851    853     1
    851    854     1
    853    856     1
    857    863     1
    857    864     1
    858    861     1
    858    860     1
    858    862     1
    860    865     1
    860    863     1
    860    864     1
    861    876     1
    861    877     1
    861    868     1
    861    870     1
    862    865     1
    862    863     1
    862    864     1
    863    866     1
    863    867     1
    864    866     1
    864    867     1
    865    879     1
    865    880     1
    865    871     1
    865    872     1
    866    868     1
    866    870     1
    867    876     1
    867    877     1
    868    873     1
    868    871     1
    868    872     1
    869    884     1
    870    873     1
    870    871     1
    870    872     1
    871    874     1
    871    875     1
    872    874     1
    872    875     1
    875    884     1
    876    881     1
    876    879     1
    876    880     1
    877    881     1
    877    879     1
    877    880     1
    878    885     1
    879    882     1
    879    883     1
    880    882     1
    880    883     1
    882    885     1
    886    892     1
    886    893     1
    887    890     1
    887    889     1
    887    891     1
    889    894     1
    889    892     1
    889    893     1
    890    905     1
    890    906     1
    890    897     1
    890    899     1
    891    894     1
    891    892     1
    891    893     1
    892    895     1
    892    896     1
    893    895     1
    893    896     1
    894    908     1
    894    909     1
    894    900     1
    894    901     1
    895    897     1
    895    899     1
    896    905     1
    896    906     1
    897    902     1
    897    900     1
    897    901     1
    898    913     1
    899    902     1
    899    900     1
    899    901     1
    900    903     1
    900    904     1
    901    903     1
    901    904     1
    904    913     1
    905    910     1
    905    908     1
    905    909     1
    906    910     1
    906    908     1
    906    909     1
    907    914     1
    908    911     1
    908    912     1
    909    911     1
    909    912     1
    911    914     1
    915    921     1
    915    922     1
    916    919     1
    916    918     1
    916    920     1
    918    923     1
    918    921     1
    918    922     1
    919    934     1
    919    935     1
    919    926     1
    919    928     1
    920    923     1
    920    921     1
    920    922     1
    921    924     1
    921    925     1
    922    924     1
    922    925     1
    923    937     1
    923    938     1
    923    929     1
    923    930     1
    924    926     1
    924    928     1
    925    934     1
    925    935     1
    926    931     1
    926    929     1
    926    930     1
    927    942     1
    928    931     1
    928    929     1
    928    930     1
    929    932     1
    929    933     1
    930    932     1
    930    933     1
    933    942     1
    934    939     1
    934    937     1
    934    938     1
    935    939     1
    935    937     1
    935    938     1
    936    943     1
    937    940     1
    937    941     1
    938    940     1
    938    941     1
    940    943     1
    944    950     1
    944    951     1
    945    948     1
    945    947     1
    945    949     1
    947    952     1
    947    950     1
    947    951     1
    948    963     1
    948    964     1
    948    955     1
    948    957     1
    949    952     1
    949    950     1
    949    951     1
    950    953     1
    950    954     1
    951    953     1
    951    954     1
    952    966     1
    952    967     1
    952    958     1
    952    959     1
    953    955     1
    953    957     1
    954    963     1
    954    964     1
    955    960     1
    955    958     1
    955    959     1
    956    971     1
    957    960     1
    957    958     1
    957    959     1
    958    961     1
    958    962     1
    959    961     1
    959    962     1
    962    971     1
    963    968     1
    963    966     1
    963    967     1
    964    968     1
    964    966     1
    964    967     1
    965    972     1
    966    969     1
    966    970     1
    967    969     1
    967    970     1
    969    972     1
    973    979     1
    973    980     1
    974    977     1
    974    976     1
    974    978     1
    976    981     1
    976    979     1
    976    980     1
    977    992     1
    977    993     1
    977    984     1
    977    986     1
    978    981     1
    978    979     1
    978    980     1
    979    982     1
    979    983     1
    980    982     1
    980    983     1
    981    995     1
    981    996     1
    981    987     1
    981    988     1
    982    984     1
    982    986     1
    983    992     1
    983    993     1
    984    989     1
    984    987     1
    984    988     1
    985   1000     1
    986    989     1
    986    987     1
    986    988     1
    987    990     1
    987    991     1
    988    990     1
    988    991     1
    991   1000     1
    992    997     1
    992    995     1
    992    996     1
    993    997     1
    993    995     1
    993    996     1
    994   1001     1
    995    998     1
    995    999     1
    996    998     1
    996    999     1
    998   1001     1
   1002   1008     1
   1002   1009     1
   1003   1006     1
   1003   1005     1
   1003   1007     1
   1005   1010     1
   1005   1008     1
   1005   1009     1
   1006   1021     1
   1006   1022     1
   1006   1013     1
   1006   1015     1
   1007   1010     1
   1007   1008     1
   1007   1009     1
   1008   1011     1
   1008   1012     1
   1009   1011     1
   1009   1012     1
   1010   1024     1
   1010   1025     1
   1010   1016     1
   1010   1017     1
   1011   1013     1
   1011   1015     1
   1012   1021     1
   1012   1022     1
   1013   1018     1
   1013   1016     1
   1013   1017     1
   1014   1029     1
   1015   1018     1
   1015   1016     1
   1015   1017     1
   1016   1019     1
   1016   1020     1
   1017   1019     1
   1017   1020     1
   1020   1029     1
   1021   1026     1
   1021   1024     1
   1021   1025     1
   1022   1026     1
   1022   1024     1
   1022   1025     1
   1023   1030     1
   1024   1027     1
   1024   1028     1
   1025   1027     1
   1025   1028     1
   1027   1030     1
   1031   1037     1
   1031   1038     1
   1032   1035     1
   1032   1034     1
   1032   1036     1
   1034   1039     1
   1034   1037     1
   1034   1038     1
   1035   1050     1
   1035   1051     1
   1035   1042     1
   1035   1044     1
   1036   1039     1
   1036   1037     1
   1036   1038     1
   1037   1040     1
   1037   1041     1
   1038   1040     1
   1038   1041     1
   1039   1053     1
   1039   1054     1
   1039   1045     1
   1039   1046     1
   1040   1042     1
   1040   1044     1
   1041   1050     1
   1041   1051     1
   1042   1047     1
   1042   1045     1
   1042   1046     1
   1043   1058     1
   1044   1047     1
   1044   1045     1
   1044   1046     1
   1045   1048     1
   1045   1049     1
   1046   1048     1
   1046   1049     1
   1049   1058     1
   1050   1055     1
   1050   1053     1
   1050   1054     1
   1051   1055     1
   1051   1053     1
   1051   1054     1
   1052   1059     1
   1053   1056     1
   1053   1057     1
   1054   1056     1
   1054   1057     1
   1056   1059     1
   1060   1066     1
   1060   1067     1
   1061   1064     1
   1061   1063     1
   1061   1065     1
   1063   1068     1
   1063   1066     1
   1063   1067     1
   1064   1079     1
   1064   1080     1
   1064   1071     1
   1064   1073     1
   1065   1068     1
   1065   1066     1
   1065   1067     1
   1066   1069     1
   1066   1070     1
   1067   1069     1
   1067   1070     1
   1068   1082     1
   1068   1083     1
   1068   1074     1
   1068   1075     1
   1069   1071     1
   1069   1073     1
   1070   1079     1
   1070   1080     1
   1071   1076     1
   1071   1074     1
   1071   1075     1
   1072   1087     1
   1073   1076     1
   1073   1074     1
   1073   1075     1
   1074   1077     1
   1074   1078     1
   1075   1077     1
   1075   1078     1
   1078   1087     1
   1079   1084     1
   1079   1082     1
   1079   1083     1
   1080   1084     1
   1080   1082     1
   1080   1083     1
   1081   1088     1
   1082   1085     1
   1082   1086     1
   1083   1085     1
   1083   1086     1
   1085   1088     1
   1089   1095     1
   1089   1096     1
   1090   1093     1
   1090   1092     1
   1090   1094     1
   1092   1097     1
   1092   1095     1
   1092   1096     1
   1093   1108     1
   1093   1109     1
   1093   1100     1
   1093   1102     1
   1094   1097     1
   1094   1095     1
   1094   1096     1
   1095   1098     1
   1095   1099     1
   1096   1098     1
   1096   1099     1
   1097   1111     1
   1097   1112     1
   1097   1103     1
   1097   1104     1
   1098   1100     1
   1098   1102     1
   1099   1108     1
   1099   1109     1
   1100   1105     1
   1100   1103     1
   1100   1104     1
   1101   1116     1
   1102   1105     1
   1102   1103     1
   1102   1104     1
   1103   1106     1
   1103   1107     1
   1104   1106     1
   1104   1107     1
   1107   1116     1
   1108   1113     1
   1108   1111     1
   1108   1112     1
   1109   1113     1
   1109   1111     1
   1109   1112     1
   1110   1117     1
   1111   1114     1
   1111   1115     1
   1112   1114     1
   1112   1115     1
   1114   1117     1
   1118   1124     1
   1118   1125     1
   1119   1122     1
   1119   1121     1
   1119   1123     1
   1121   1126     1
   1121   1124     1
   1121   1125     1
   1122   1137     1
   1122   1138     1
   1122   1129     1
   1122   1131     1
   1123   1126     1
   1123   1124     1
   1123   1125     1
   1124   1127     1
   1124   1128     1
   1125   1127     1
   1125   1128     1
   1126   1140     1
   1126   1141     1
   1126   1132     1
   1126   1133     1
   1127   1129     1
   1127   1131     1
   1128   1137     1
   1128   1138     1
   1129   1134     1
   1129   1132     1
   1129   1133     1
   1130   1145     1
   1131   1134     1
   1131   1132     1
   1131   1133     1
   1132   1135     1
   1132   1136     1
   1133   1135     1
   1133   1136     1
   1136   1145     1
   1137   1142     1
   1137   1140     1
   1137   1141     1
   1138   1142     1
   1138   1140     1
   1138   1141     1
   1139   1146     1
   1140   1143     1
   1140   1144     1
   1141   1143     1
   1141   1144     1
   1143   1146     1
   1147   1153     1
   1147   1154     1
   1148   1151     1
   1148   1150     1
   1148   1152     1
   1150   1155     1
   1150   1153     1
   1150   1154     1
   1151   1166     1
   1151   1167     1
   1151   1158     1
   1151   1160     1
   1152   1155     1
   1152   1153     1
   1152   1154     1
   1153   1156     1
   1153   1157     1
   1154   1156     1
   1154   1157     1
   1155   1169     1
   1155   1170     1
   1155   1161     1
   1155   1162     1
   1156   1158     1
   1156   1160     1
   1157   1166     1
   1157   1167     1
   1158   1163     1
   1158   1161     1
   1158   1162     1
   1159   1174     1
   1160   1163     1
   1160   1161     1
   1160   1162     1
   1161   1164     1
   1161   1165     1
   1162   1164     1
   1162   1165     1
   1165   1174     1
   1166   1171     1
   1166   1169     1
   1166   1170     1
   1167   1171     1
   1167   1169     1
   1167   1170     1
   1168   1175     1
   1169   1172     1
   1169   1173     1
   1170   1172     1
   1170   1173     1
   1172   1175     1
   1176   1182     1
   1176   1183     1
   1177   1180     1
   1177   1179     1
   1177   1181     1
   1179   1184     1
   1179   1182     1
   1179   1183     1
   1180   1195     1
   1180   1196     1
   1180   1187     1
   1180   1189     1
   1181   1184     1
   1181   1182     1
   1181   1183     1
   1182   1185     1
   1182   1186     1
   1183   1185     1
   1183   1186     1
   1184   1198     1
   1184   1199     1
   1184   1190     1
   1184   1191     1
   1185   1187     1
   1185   1189     1
   1186   1195     1
   1186   1196     1
   1187   1192     1
   1187   1190     1
   1187   1191     1
   1188   1203     1
   1189   1192     1
   1189   1190     1
   1189   1191     1
   1190   1193     1
   1190   1194     1
   1191   1193     1
   1191   1194     1
   1194   1203     1
   1195   1200     1
   1195   1198     1
   1195   1199     1
   1196   1200     1
   1196   1198     1
   1196   1199     1
   1197   1204     1
   1198   1201     1
   1198   1202     1
   1199   1201     1
   1199   1202     1
   1201   1204     1
   1205   1211     1
   1205   1212     1
   1206   1209     1
   1206   1208     1
   1206   1210     1
   1208   1213     1
   1208   1211     1
   1208   1212     1
   1209   1224     1
   1209   1225     1
   1209   1216     1
   1209   1218     1
   1210   1213     1
   1210   1211     1
   1210   1212     1
   1211   1214     1
   1211   1215     1
   1212   1214     1
   1212   1215     1
   1213   1227     1
   1213   1228     1
   1213   1219     1
   1213   1220     1
   1214   1216     1
   1214   1218     1
   1215   1224     1
   1215   1225     1
   1216   1221     1
   1216   1219     1
   1216   1220     1
   1217   1232     1
   1218   1221     1
   1218   1219     1
   1218   1220     1
   1219   1222     1
   1219   1223     1
   1220   1222     1
   1220   1223     1
   1223   1232     1
   1224   1229     1
   1224   1227     1
   1224   1228     1
   1225   1229     1
   1225   1227     1
   1225   1228     1
   1226   1233     1
   1227   1230     1
   1227   1231     1
   1228   1230     1
   1228   1231     1
   1230   1233     1
   1234   1240     1
   1234   1241     1
   1235   1238     1
   1235   1237     1
   1235   1239     1
   1237   1242     1
   1237   1240     1
   1237   1241     1
   1238   1253     1
   1238   1254     1
   1238   1245     1
   1238   1247     1
   1239   1242     1
   1239   1240     1
   1239   1241     1
   1240   1243     1
   1240   1244     1
   1241   1243     1
   1241   1244     1
   1242   1256     1
   1242   1257     1
   1242   1248     1
   1242   1249     1
   1243   1245     1
   1243   1247     1
   1244   1253     1
   1244   1254     1
   1245   1250     1
   1245   1248     1
   1245   1249     1
   1246   1261     1
   1247   1250     1
   1247   1248     1
   1247   1249     1
   1248   1251     1
   1248   1252     1
   1249   1251     1
   1249   1252     1
   1252   1261     1
   1253   1258     1
   1253   1256     1
   1253   1257     1
   1254   1258     1
   1254   1256     1
   1254   1257     1
   1255   1262     1
   1256   1259     1
   1256   1260     1
   1257   1259     1
   1257   1260     1
   1259   1262     1
   1263   1269     1
   1263   1270     1
   1264   1267     1
   1264   1266     1
   1264   1268     1
   1266   1271     1
   1266   1269     1
   1266   1270     1
   1267   1282     1
   1267   1283     1
   1267   1274     1
   1267   1276     1
   1268   1271     1
   1268   1269     1
   1268   1270     1
   1269   1272     1
   1269   1273     1
   1270   1272     1
   1270   1273     1
   1271   1285     1
   1271   1286     1
   1271   1277     1
   1271   1278     1
   1272   1274     1
   1272   1276     1
   1273   1282     1
   1273   1283     1
   1274   1279     1
   1274   1277     1
   1274   1278     1
   1275   1290     1
   1276   1279     1
   1276   1277     1
   1276   1278     1
   1277   1280     1
   1277   1281     1
   1278   1280     1
   1278   1281     1
   1281   1290     1
   1282   1287     1
   1282   1285     1
   1282   1286     1
   1283   1287     1
   1283   1285     1
   1283   1286     1
   1284   1291     1
   1285   1288     1
   1285   1289     1
   1286   1288     1
   1286   1289     1
   1288   1291     1
   1292   1298     1
   1292   1299     1
   1293   1296     1
   1293   1295     1
   1293   1297     1
   1295   1300     1
   1295   1298     1
   1295   1299     1
   1296   1311     1
   1296   1312     1
   1296   1303     1
   1296   1305     1
   1297   1300     1
   1297   1298     1
   1297   1299     1
   1298   1301     1
   1298   1302     1
   1299   1301     1
   1299   1302     1
   1300   1314     1
   1300   1315     1
   1300   1306     1
   1300   1307     1
   1301   1303     1
   1301   1305     1
   1302   1311     1
   1302   1312     1
   1303   1308     1
   1303   1306     1
   1303   1307     1
   1304   1319     1
   1305   1308     1
   1305   1306     1
   1305   1307     1
   1306   1309     1
   1306   1310     1
   1307   1309     1
   1307   1310     1
   1310   1319     1
   1311   1316     1
   1311   1314     1
   1311   1315     1
   1312   1316     1
   1312   1314     1
   1312   1315     1
   1313   1320     1
   1314   1317     1
   1314   1318     1
   1315   1317     1
   1315   1318     1
   1317   1320     1
   1321   1327     1
   1321   1328     1
   1322   1325     1
   1322   1324     1
   1322   1326     1
   1324   1329     1
   1324   1327     1
   1324   1328     1
   1325   1340     1
   1325   1341     1
   1325   1332     1
   1325   1334     1
   1326   1329     1
   1326   1327     1
   1326   1328     1
   1327   1330     1
   1327   1331     1
   1328   1330     1
   1328   1331     1
   1329   1343     1
   1329   1344     1
   1329   1335     1
   1329   1336     1
   1330   1332     1
   1330   1334     1
   1331   1340     1
   1331   1341     1
   1332   1337     1
   1332   1335     1
   1332   1336     1
   1333   1348     1
   1334   1337     1
   1334   1335     1
   1334   1336     1
   1335   1338     1
   1335   1339     1
   1336   1338     1
   1336   1339     1
   1339   1348     1
   1340   1345     1
   1340   1343     1
   1340   1344     1
   1341   1345     1
   1341   1343     1
   1341   1344     1
   1342   1349     1
   1343   1346     1
   1343   1347     1
   1344   1346     1
   1344   1347     1
   1346   1349     1
   1350   1356     1
   1350   1357     1
   1351   1354     1
   1351   1353     1
   1351   1355     1
   1353   1358     1
   1353   1356     1
   1353   1357     1
   1354   1369     1
   1354   1370     1
   1354   1361     1
   1354   1363     1
   1355   1358     1
   1355   1356     1
   1355   1357     1
   1356   1359     1
   1356   1360     1
   1357   1359     1
   1357   1360     1
   1358   1372     1
   1358   1373     1
   1358   1364     1
   1358   1365     1
   1359   1361     1
   1359   1363     1
   1360   1369     1
   1360   1370     1
   1361   1366     1
   1361   1364     1
   1361   1365     1
   1362   1377     1
   1363   1366     1
   1363   1364     1
   1363   1365     1
   1364   1367     1
   1364   1368     1
   1365   1367     1
   1365   1368     1
   1368   1377     1
   1369   1374     1
   1369   1372     1
   1369   1373     1
   1370   1374     1
   1370   1372     1
   1370   1373     1
   1371   1378     1
   1372   1375     1
   1372   1376     1
   1373   1375     1
   1373   1376     1
   1375   1378     1
   1379   1385     1
   1379   1386     1
   1380   1383     1
   1380   1382     1
   1380   1384     1
   1382   1387     1
   1382   1385     1
   1382   1386     1
   1383   1398     1
   1383   1399     1
   1383   1390     1
   1383   1392     1
   1384   1387     1
   1384   1385     1
   1384   1386     1
   1385   1388     1
   1385   1389     1
   1386   1388     1
   1386   1389     1
   1387   1401     1
   1387   1402     1
   1387   1393     1
   1387   1394     1
   1388   1390     1
   1388   1392     1
   1389   1398     1
   1389   1399     1
   1390   1395     1
   1390   1393     1
   1390   1394     1
   1391   1406     1
   1392   1395     1
   1392   1393     1
   1392   1394     1
   1393   1396     1
   1393   1397     1
   1394   1396     1
   1394   1397     1
   1397   1406     1
   1398   1403     1
   1398   1401     1
   1398   1402     1
   1399   1403     1
   1399   1401     1
   1399   1402     1
   1400   1407     1
   1401   1404     1
   1401   1405     1
   1402   1404     1
   1402   1405     1
   1404   1407     1
   1408   1414     1
   1408   1415     1
   1409   1412     1
   1409   1411     1
   1409   1413     1
   1411   1416     1
   1411   1414     1
   1411   1415     1
   1412   1427     1
   1412   1428     1
   1412   1419     1
   1412   1421     1
   1413   1416     1
   1413   1414     1
   1413   1415     1
   1414   1417     1
   1414   1418     1
   1415   1417     1
   1415   1418     1
   1416   1430     1
   1416   1431     1
   1416   1422     1
   1416   1423     1
   1417   1419     1
   1417   1421     1
   1418   1427     1
   1418   1428     1
   1419   1424     1
   1419   1422     1
   1419   1423     1
   1420   1435     1
   1421   1424     1
   1421   1422     1
   1421   1423     1
   1422   1425     1
   1422   1426     1
   1423   1425     1
   1423   1426     1
   1426   1435     1
   1427   1432     1
   1427   1430     1
   1427   1431     1
   1428   1432     1
   1428   1430     1
   1428   1431     1
   1429   1436     1
   1430   1433     1
   1430   1434     1
   1431   1433     1
   1431   1434     1
   1433   1436     1
   1437   1443     1
   1437   1444     1
   1438   1441     1
   1438   1440     1
   1438   1442     1
   1440   1445     1
   1440   1443     1
   1440   1444     1
   1441   1456     1
   1441   1457     1
   1441   1448     1
   1441   1450     1
   1442   1445     1
   1442   1443     1
   1442   1444     1
   1443   1446     1
   1443   1447     1
   1444   1446     1
   1444   1447     1
   1445   1459     1
   1445   1460     1
   1445   1451     1
   1445   1452     1
   1446   1448     1
   1446   1450     1
   1447   1456     1
   1447   1457     1
   1448   1453     1
   1448   1451     1
   1448   1452     1
   1449   1464     1
   1450   1453     1
   1450   1451     1
   1450   1452     1
   1451   1454     1
   1451   1455     1
   1452   1454     1
   1452   1455     1
   1455   1464     1
   1456   1461     1
   1456   1459     1
   1456   1460     1
   1457   1461     1
   1457   1459     1
   1457   1460     1
   1458   1465     1
   1459   1462     1
   1459   1463     1
   1460   1462     1
   1460   1463     1
   1462   1465     1
   1466   1472     1
   1466   1473     1
   1467   1470     1
   1467   1469     1
   1467   1471     1
   1469   1474     1
   1469   1472     1
   1469   1473     1
   1470   1485     1
   1470   1486     1
   1470   1477     1
   1470   1479     1
   1471   1474     1
   1471   1472     1
   1471   1473     1
   1472   1475     1
   1472   1476     1
   1473   1475     1
   1473   1476     1
   1474   1488     1
   1474   1489     1
   1474   1480     1
   1474   1481     1
   1475   1477     1
   1475   1479     1
   1476   1485     1
   1476   1486     1
   1477   1482     1
   1477   1480     1
   1477   1481     1
   1478   1493     1
   1479   1482     1
   1479   1480     1
   1479   1481     1
   1480   1483     1
   1480   1484     1
   1481   1483     1
   1481   1484     1
   1484   1493     1
   1485   1490     1
   1485   1488     1
   1485   1489     1
   1486   1490     1
   1486   1488     1
   1486   1489     1
   1487   1494     1
   1488   1491     1
   1488   1492     1
   1489   1491     1
   1489   1492     1
   1491   1494     1
   1495   1501     1
   1495   1502     1
   1496   1499     1
   1496   1498     1
   1496   1500     1
   1498   1503     1
   1498   1501     1
   1498   1502     1
   1499   1514     1
   1499   1515     1
   1499   1506     1
   1499   1508     1
   1500   1503     1
   1500   1501     1
   1500   1502     1
   1501   1504     1
   1501   1505     1
   1502   1504     1
   1502   1505     1
   1503   1517     1
   1503   1518     1
   1503   1509     1
   1503   1510     1
   1504   1506     1
   1504   1508     1
   1505   1514     1
   1505   1515     1
   1506   1511     1
   1506   1509     1
   1506   1510     1
   1507   1522     1
   1508   1511     1
   1508   1509     1
   1508   1510     1
   1509   1512     1
   1509   1513     1
   1510   1512     1
   1510   1513     1
   1513   1522     1
   1514   1519     1
   1514   1517     1
   1514   1518     1
   1515   1519     1
   1515   1517     1
   1515   1518     1
   1516   1523     1
   1517   1520     1
   1517   1521     1
   1518   1520     1
   1518   1521     1
   1520   1523     1
   1524   1530     1
   1524   1531     1
   1525   1528     1
   1525   1527     1
   1525   1529     1
   1527   1532     1
   1527   1530     1
   1527   1531     1
   1528   1543     1
   1528   1544     1
   1528   1535     1
   1528   1537     1
   1529   1532     1
   1529   1530     1
   1529   1531     1
   1530   1533     1
   1530   1534     1
   1531   1533     1
   1531   1534     1
   1532   1546     1
   1532   1547     1
   1532   1538     1
   1532   1539     1
   1533   1535     1
   1533   1537     1
   1534   1543     1
   1534   1544     1
   1535   1540     1
   1535   1538     1
   1535   1539     1
   1536   1551     1
   1537   1540     1
   1537   1538     1
   1537   1539     1
   1538   1541     1
   1538   1542     1
   1539   1541     1
   1539   1542     1
   1542   1551     1
   1543   1548     1
   1543   1546     1
   1543   1547     1
   1544   1548     1
   1544   1546     1
   1544   1547     1
   1545   1552     1
   1546   1549     1
   1546   1550     1
   1547   1549     1
   1547   1550     1
   1549   1552     1
   1553   1559     1
   1553   1560     1
   1554   1557     1
   1554   1556     1
   1554   1558     1
   1556   1561     1
   1556   1559     1
   1556   1560     1
   1557   1572     1
   1557   1573     1
   1557   1564     1
   1557   1566     1
   1558   1561     1
   1558   1559     1
   1558   1560     1
   1559   1562     1
   1559   1563     1
   1560   1562     1
   1560   1563     1
   1561   1575     1
   1561   1576     1
   1561   1567     1
   1561   1568     1
   1562   1564     1
   1562   1566     1
   1563   1572     1
   1563   1573     1
   1564   1569     1
   1564   1567     1
   1564   1568     1
   1565   1580     1
   1566   1569     1
   1566   1567     1
   1566   1568     1
   1567   1570     1
   1567   1571     1
   1568   1570     1
   1568   1571     1
   1571   1580     1
   1572   1577     1
   1572   1575     1
   1572   1576     1
   1573   1577     1
   1573   1575     1
   1573   1576     1
   1574   1581     1
   1575   1578     1
   1575   1579     1
   1576   1578     1
   1576   1579     1
   1578   1581     1
   1582   1588     1
   1582   1589     1
   1583   1586     1
   1583   1585     1
   1583   1587     1
   1585   1590     1
   1585   1588     1
   1585   1589     1
   1586   1601     1
   1586   1602     1
   1586   1593     1
   1586   1595     1
   1587   1590     1
   1587   1588     1
   1587   1589     1
   1588   1591     1
   1588   1592     1
   1589   1591     1
   1589   1592     1
   1590   1604     1
   1590   1605     1
   1590   1596     1
   1590   1597     1
   1591   1593     1
   1591   1595     1
   1592   1601     1
   1592   1602     1
   1593   1598     1
   1593   1596     1
   1593   1597     1
   1594   1609     1
   1595   1598     1
   1595   1596     1
   1595   1597     1
   1596   1599     1
   1596   1600     1
   1597   1599     1
   1597   1600     1
   1600   1609     1
   1601   1606     1
   1601   1604     1
   1601   1605     1
   1602   1606     1
   1602   1604     1
   1602   1605     1
   1603   1610     1
   1604   1607     1
   1604   1608     1
   1605   1607     1
   1605   1608     1
   1607   1610     1
   1611   1617     1
   1611   1618     1
   1612   1615     1
   1612   1614     1
   1612   1616     1
   1614   1619     1
   1614   1617     1
   1614   1618     1
   1615   1630     1
   1615   1631     1
   1615   1622     1
   1615   1624     1
   1616   1619     1
   1616   1617     1
   1616   1618     1
   1617   1620     1
   1617   1621     1
   1618   1620     1
   1618   1621     1
   1619   1633     1
   1619   1634     1
   1619   1625     1
   1619   1626     1
   1620   1622     1
   1620   1624     1
   1621   1630     1
   1621   1631     1
   1622   1627     1
   1622   1625     1
   1622   1626     1
   1623   1638     1
   1624   1627     1
   1624   1625     1
   1624   1626     1
   1625   1628     1
   1625   1629     1
   1626   1628     1
   1626   1629     1
   1629   1638     1
   1630   1635     1
   1630   1633     1
   1630   1634     1
   1631   1635     1
   1631   1633     1
   1631   1634     1
   1632   1639     1
   1633   1636     1
   1633   1637     1
   1634   1636     1
   1634   1637     1
   1636   1639     1
   1640   1646     1
   1640   1647     1
   1641   1644     1
   1641   1643     1
   1641   1645     1
   1643   1648     1
   1643   1646     1
   1643   1647     1
   1644   1659     1
   1644   1660     1
   1644   1651     1
   1644   1653     1
   1645   1648     1
   1645   1646     1
   1645   1647     1
   1646   1649     1
   1646   1650     1
   1647   1649     1
   1647   1650     1
   1648   1662     1
   1648   1663     1
   1648   1654     1
   1648   1655     1
   1649   1651     1
   1649   1653     1
   1650   1659     1
   1650   1660     1
   1651   1656     1
   1651   1654     1
   1651   1655     1
   1652   1667     1
   1653   1656     1
   1653   1654     1
   1653   1655     1
   1654   1657     1
   1654   1658     1
   1655   1657     1
   1655   1658     1
   1658   1667     1
   1659   1664     1
   1659   1662     1
   1659   1663     1
   1660   1664     1
   1660   1662     1
   1660   1663     1
   1661   1668     1
   1662   1665     1
   1662   1666     1
   1663   1665     1
   1663   1666     1
   1665   1668     1

[ angles ]
;    ai     aj     ak funct         c0         c1         c2         c3
      1      4      7     1   111.0400475 552.288000
      1      8      9     1   112.3500484 533.878400
      1      8     12     1   112.3500484 533.878400
      4      1      8     1   111.0400475 552.288000
      4      7     15     1   112.3500484 533.878400
      4      7     18     1   112.3500484 533.878400
      7     15     21     1   111.0400475 552.288000
      7     18     24     1   111.0400475 552.288000
      8      9     30     1   111.0400475 552.288000
      8     12     27     1   111.0400475 552.288000
      9      8     12     1   112.3500484 533.878400
      9     30     34     1   111.0400475 529.694400
     12     27     33     1   111.0400475 529.694400
     15      7     18     1   112.3500484 533.878400
     15     21     35     1   111.0400475 529.694400
     18     24     36     1   111.0400475 529.694400
     21     35     38     1   123.2000528 564.003200
     21     35    114     1   115.1800491 558.982400
     24     36     39     1   123.2000528 564.003200
     24     36    139     1   115.1800491 558.982400
     27     33     37     1   123.2000528 564.003200
     27     33     64     1   115.1800491 558.982400
     30     34     40     1   123.2000528 564.003200
     30     34     89     1   115.1800491 558.982400
     33     64     44     1   120.6900519 530.531200
     34     89     69     1   120.6900519 530.531200
     35    114     94     1   120.6900519 530.531200
     36    139    119     1   120.6900519 530.531200
     37     33     64     1   123.0500530 620.905600
     38     35    114     1   123.0500530 620.905600
     39     36    139     1   123.0500530 620.905600
     40     34     89     1   123.0500530 620.905600
     41     44     64     1   111.6100477 551.451200
     41     47     48     1   112.3500484 533.878400
     41     47     51     1   112.3500484 533.878400
     44     41     47     1   111.0400475 552.288000
     47     48     57     1   111.0400475 552.288000
     47     51     54     1   111.0400475 552.288000
     48     47     51     1   112.3500484 533.878400
     48     57     61     1   111.0400475 529.694400
     51     54     60     1   111.0400475 529.694400
     54     60     62     1   123.2000528 564.003200
     54     60    164     1   115.1800491 558.982400
     57     61     63     1   123.2000528 564.003200
     57     61    189     1   115.1800491 558.982400
     60    164    144     1   120.6900519 530.531200
     61    189    169     1   120.6900519 530.531200
     62     60    164     1   123.0500530 620.905600
     63     61    189     1   123.0500530 620.905600
     66     69     89     1   111.6100477 551.451200
     66     72     73     1   112.3500484 533.878400
     66     72     76     1   112.3500484 533.878400
     69     66     72     1   111.0400475 552.288000
     72     73     82     1   111.0400475 552.288000
     72     76     79     1   111.0400475 552.288000
     73     72     76     1   112.3500484 533.878400
     73     82     86     1   111.0400475 529.694400
     76     79     85     1   111.0400475 529.694400
     79     85     87     1   123.2000528 564.003200
     79     85    214     1   115.1800491 558.982400
     82     86     88     1   123.2000528 564.003200
     82     86    239     1   115.1800491 558.982400
     85    214    194     1   120.6900519 530.531200
     86    239    219     1   120.6900519 530.531200
     87     85    214     1   123.0500530 620.905600
     88     86    239     1   123.0500530 620.905600
     91     94    114     1   111.6100477 551.451200
     91     97     98     1   112.3500484 533.878400
     91     97    101     1   112.3500484 533.878400
     94     91     97     1   111.0400475 552.288000
     97     98    107     1   111.0400475 552.288000
     97    101    104     1   111.0400475 552.288000
     98     97    101     1   112.3500484 533.878400
     98    107    111     1   111.0400475 529.694400
    101    104    110     1   111.0400475 529.694400
    104    110    112     1   123.2000528 564.003200
    104    110    264     1   115.1800491 558.982400
    107    111    113     1   123.2000528 564.003200
    107    111    289     1   115.1800491 558.982400
    110    264    244     1   120.6900519 530.531200
    111    289    269     1   120.6900519 530.531200
    112    110    264     1   123.0500530 620.905600
    113    111    289     1   123.0500530 620.905600
    116    119    139     1   111.6100477 551.451200
    116    122    123     1   112.3500484 533.878400
    116    122    126     1   112.3500484 533.878400
    119    116    122     1   111.0400475 552.288000
    122    123    132     1   111.0400475 552.288000
    122    126    129     1   111.0400475 552.288000
    123    122    126     1   112.3500484 533.878400
    123    132    136     1   111.0400475 529.694400
    126    129    135     1   111.0400475 529.694400
    129    135    137     1   123.2000528 564.003200
    129    135    314     1   115.1800491 558.982400
    132    136    138     1   123.2000528 564.003200
    132    136    339     1   115.1800491 558.982400
    135    314    294     1   120.6900519 530.531200
    136    339    319     1   120.6900519 530.531200
    137    135    314     1   123.0500530 620.905600
    138    136    339     1   123.0500530 620.905600
    141    144    164     1   111.6100477 551.451200
    141    147    148     1   112.3500484 533.878400
    141    147    151     1   112.3500484 533.878400
    144    141    147     1   111.0400475 552.288000
    147    148    157     1   111.0400475 552.288000
    147    151    154     1   111.0400475 552.288000
    148    147    151     1   112.3500484 533.878400
    148    157    161     1   111.0400475 529.694400
    151    154    160     1   111.0400475 529.694400
    154    160    162     1   123.2000528 564.003200
    154    160    364     1   115.1800491 558.982400
    157    161    163     1   123.2000528 564.003200
    157    161    389     1   115.1800491 558.982400
    160    364    344     1   120.6900519 530.531200
    161    389    369     1   120.6900519 530.531200
    162    160    364     1   123.0500530 620.905600
    163    161    389     1   123.0500530 620.905600
    166    169    189     1   111.6100477 551.451200
    166    172    173     1   112.3500484 533.878400
    166    172    176     1   112.3500484 533.878400
    169    166    172     1   111.0400475 552.288000
    172    173    182     1   111.0400475 552.288000
    172    176    179     1   111.0400475 552.288000
    173    172    176     1   112.3500484 533.878400
    173    182    186     1   111.0400475 529.694400
    176    179    185     1   111.0400475 529.694400
    179    185    187     1   123.2000528 564.003200
    179    185    414     1   115.1800491 558.982400
    182    186    188     1   123.2000528 564.003200
    182    186    439     1   115.1800491 558.982400
    185    414    394     1   120.6900519 530.531200
    186    439    419     1   120.6900519 530.531200
    187    185    414     1   123.0500530 620.905600
    188    186    439     1   123.0500530 620.905600
    191    194    214     1   111.6100477 551.451200
    191    197    198     1   112.3500484 533.878400
    191    197    201     1   112.3500484 533.878400
    194    191    197     1   111.0400475 552.288000
    197    198    207     1   111.0400475 552.288000
    197    201    204     1   111.0400475 552.288000
    198    197    201     1   112.3500484 533.878400
    198    207    211     1   111.0400475 529.694400
    201    204    210     1   111.0400475 529.694400
    204    210    212     1   123.2000528 564.003200
    204    210    464     1   115.1800491 558.982400
    207    211    213     1   123.2000528 564.003200
    207    211    489     1   115.1800491 558.982400
    210    464    444     1   120.6900519 530.531200
    211    489    469     1   120.6900519 530.531200
    212    210    464     1   123.0500530 620.905600
    213    211    489     1   123.0500530 620.905600
    216    219    239     1   111.6100477 551.451200
    216    222    223     1   112.3500484 533.878400
    216    222    226     1   112.3500484 533.878400
    219    216    222     1   111.0400475 552.288000
    222    223    232     1   111.0400475 552.288000
    222    226    229     1   111.0400475 552.288000
    223    222    226     1   112.3500484 533.878400
    223    232    236     1   111.0400475 529.694400
    226    229    235     1   111.0400475 529.694400
    229    235    237     1   123.2000528 564.003200
    229    235    514     1   115.1800491 558.982400
    232    236    238     1   123.2000528 564.003200
    232    236    539     1   115.1800491 558.982400
    235    514    494     1   120.6900519 530.531200
    236    539    519     1   120.6900519 530.531200
    237    235    514     1   123.0500530 620.905600
    238    236    539     1   123.0500530 620.905600
    241    244    264     1   111.6100477 551.451200
    241    247    248     1   112.3500484 533.878400
    241    247    251     1   112.3500484 533.878400
    244    241    247     1   111.0400475 552.288000
    247    248    257     1   111.0400475 552.288000
    247    251    254     1   111.0400475 552.288000
    248    247    251     1   112.3500484 533.878400
    248    257    261     1   111.0400475 529.694400
    251    254    260     1   111.0400475 529.694400
    254    260    262     1   123.2000528 564.003200
    254    260    564     1   115.1800491 558.982400
    257    261    263     1   123.2000528 564.003200
    257    261    589     1   115.1800491 558.982400
    260    564    544     1   120.6900519 530.531200
    261    589    569     1   120.6900519 530.531200
    262    260    564     1   123.0500530 620.905600
    263    261    589     1   123.0500530 620.905600
    266    269    289     1   111.6100477 551.451200
    266    272    273     1   112.3500484 533.878400
    266    272    276     1   112.3500484 533.878400
    269    266    272     1   111.0400475 552.288000
    272    273    282     1   111.0400475 552.288000
    272    276    279     1   111.0400475 552.288000
    273    272    276     1   112.3500484 533.878400
    273    282    286     1   111.0400475 529.694400
    276    279    285     1   111.0400475 529.694400
    279    285    287     1   123.2000528 564.003200
    279    285    614     1   115.1800491 558.982400
    282    286    288     1   123.2000528 564.003200
    282    286    639     1   115.1800491 558.982400
    285    614    594     1   120.6900519 530.531200
    286    639    619     1   120.6900519 530.531200
    287    285    614     1   123.0500530 620.905600
    288    286    639     1   123.0500530 620.905600
    291    294    314     1   111.6100477 551.451200
    291    297    298     1   112.3500484 533.878400
    291    297    301     1   112.3500484 533.878400
    294    291    297     1   111.0400475 552.288000
    297    298    307     1   111.0400475 552.288000
    297    301    304     1   111.0400475 552.288000
    298    297    301     1   112.3500484 533.878400
    298    307    311     1   111.0400475 529.694400
    301    304    310     1   111.0400475 529.694400
    304    310    312     1   123.2000528 564.003200
    304    310    664     1   115.1800491 558.982400
    307    311    313     1   123.2000528 564.003200
    307    311    689     1   115.1800491 558.982400
    310    664    644     1   120.6900519 530.531200
    311    689    669     1   120.6900519 530.531200
    312    310    664     1   123.0500530 620.905600
    313    311    689     1   123.0500530 620.905600
    316    319    339     1   111.6100477 551.451200
    316    322    323     1   112.3500484 533.878400
    316    322    326     1   112.3500484 533.878400
    319    316    322     1   111.0400475 552.288000
    322    323    332     1   111.0400475 552.288000
    322    326    329     1   111.0400475 552.288000
    323    322    326     1   112.3500484 533.878400
    323    332    336     1   111.0400475 529.694400
    326    329    335     1   111.0400475 529.694400
    329    335    337     1   123.2000528 564.003200
    329    335    714     1   115.1800491 558.982400
    332    336    338     1   123.2000528 564.003200
    332    336    739     1   115.1800491 558.982400
    335    714    694     1   120.6900519 530.531200
    336    739    719     1   120.6900519 530.531200
    337    335    714     1   123.0500530 620.905600
    338    336    739     1   123.0500530 620.905600
    341    344    364     1   111.6100477 551.451200
    341    347    348     1   112.3500484 533.878400
    341    347    351     1   112.3500484 533.878400
    344    341    347     1   111.0400475 552.288000
    347    348    357     1   111.0400475 552.288000
    347    351    354     1   111.0400475 552.288000
    348    347    351     1   112.3500484 533.878400
    348    357    361     1   111.0400475 529.694400
    351    354    360     1   111.0400475 529.694400
    354    360    741     1   115.1800491 558.982400
    354    360    362     1   123.2000528 564.003200
    357    361    363     1   123.2000528 564.003200
    357    361    770     1   115.1800491 558.982400
    360    741    743     1   120.6900519 530.531200
    361    770    772     1   120.6900519 530.531200
    362    360    741     1   123.0500530 620.905600
    363    361    770     1   123.0500530 620.905600
    366    369    389     1   111.6100477 551.451200
    366    372    373     1   112.3500484 533.878400
    366    372    376     1   112.3500484 533.878400
    369    366    372     1   111.0400475 552.288000
    372    373    382     1   111.0400475 552.288000
    372    376    379     1   111.0400475 552.288000
    373    372    376     1   112.3500484 533.878400
    373    382    386     1   111.0400475 529.694400
    376    379    385     1   111.0400475 529.694400
    379    385    799     1   115.1800491 558.982400
    379    385    387     1   123.2000528 564.003200
    382    386    388     1   123.2000528 564.003200
    382    386    828     1   115.1800491 558.982400
    385    799    801     1   120.6900519 530.531200
    386    828    830     1   120.6900519 530.531200
    387    385    799     1   123.0500530 620.905600
    388    386    828     1   123.0500530 620.905600
    391    394    414     1   111.6100477 551.451200
    391    397    398     1   112.3500484 533.878400
    391    397    401     1   112.3500484 533.878400
    394    391    397     1   111.0400475 552.288000
    397    398    407     1   111.0400475 552.288000
    397    401    404     1   111.0400475 552.288000
    398    397    401     1   112.3500484 533.878400
    398    407    411     1   111.0400475 529.694400
    401    404    410     1   111.0400475 529.694400
    404    410    857     1   115.1800491 558.982400
    404    410    412     1   123.2000528 564.003200
    407    411    413     1   123.2000528 564.003200
    407    411    886     1   115.1800491 558.982400
    410    857    859     1   120.6900519 530.531200
    411    886    888     1   120.6900519 530.531200
    412    410    857     1   123.0500530 620.905600
    413    411    886     1   123.0500530 620.905600
    416    419    439     1   111.6100477 551.451200
    416    422    423     1   112.3500484 533.878400
    416    422    426     1   112.3500484 533.878400
    419    416    422     1   111.0400475 552.288000
    422    423    432     1   111.0400475 552.288000
    422    426    429     1   111.0400475 552.288000
    423    422    426     1   112.3500484 533.878400
    423    432    436     1   111.0400475 529.694400
    426    429    435     1   111.0400475 529.694400
    429    435    915     1   115.1800491 558.982400
    429    435    437     1   123.2000528 564.003200
    432    436    438     1   123.2000528 564.003200
    432    436    944     1   115.1800491 558.982400
    435    915    917     1   120.6900519 530.531200
    436    944    946     1   120.6900519 530.531200
    437    435    915     1   123.0500530 620.905600
    438    436    944     1   123.0500530 620.905600
    441    444    464     1   111.6100477 551.451200
    441    447    448     1   112.3500484 533.878400
    441    447    451     1   112.3500484 533.878400
    444    441    447     1   111.0400475 552.288000
    447    448    457     1   111.0400475 552.288000
    447    451    454     1   111.0400475 552.288000
    448    447    451     1   112.3500484 533.878400
    448    457    461     1   111.0400475 529.694400
    451    454    460     1   111.0400475 529.694400
    454    460    973     1   115.1800491 558.982400
    454    460    462     1   123.2000528 564.003200
    457    461    463     1   123.2000528 564.003200
    457    461   1002     1   115.1800491 558.982400
    460    973    975     1   120.6900519 530.531200
    461   1002   1004     1   120.6900519 530.531200
    462    460    973     1   123.0500530 620.905600
    463    461   1002     1   123.0500530 620.905600
    466    469    489     1   111.6100477 551.451200
    466    472    473     1   112.3500484 533.878400
    466    472    476     1   112.3500484 533.878400
    469    466    472     1   111.0400475 552.288000
    472    473    482     1   111.0400475 552.288000
    472    476    479     1   111.0400475 552.288000
    473    472    476     1   112.3500484 533.878400
    473    482    486     1   111.0400475 529.694400
    476    479    485     1   111.0400475 529.694400
    479    485   1031     1   115.1800491 558.982400
    479    485    487     1   123.2000528 564.003200
    482    486    488     1   123.2000528 564.003200
    482    486   1060     1   115.1800491 558.982400
    485   1031   1033     1   120.6900519 530.531200
    486   1060   1062     1   120.6900519 530.531200
    487    485   1031     1   123.0500530 620.905600
    488    486   1060     1   123.0500530 620.905600
    491    494    514     1   111.6100477 551.451200
    491    497    498     1   112.3500484 533.878400
    491    497    501     1   112.3500484 533.878400
    494    491    497     1   111.0400475 552.288000
    497    498    507     1   111.0400475 552.288000
    497    501    504     1   111.0400475 552.288000
    498    497    501     1   112.3500484 533.878400
    498    507    511     1   111.0400475 529.694400
    501    504    510     1   111.0400475 529.694400
    504    510   1089     1   115.1800491 558.982400
    504    510    512     1   123.2000528 564.003200
    507    511    513     1   123.2000528 564.003200
    507    511   1118     1   115.1800491 558.982400
    510   1089   1091     1   120.6900519 530.531200
    511   1118   1120     1   120.6900519 530.531200
    512    510   1089     1   123.0500530 620.905600
    513    511   1118     1   123.0500530 620.905600
    516    519    539     1   111.6100477 551.451200
    516    522    523     1   112.3500484 533.878400
    516    522    526     1   112.3500484 533.878400
    519    516    522     1   111.0400475 552.288000
    522    523    532     1   111.0400475 552.288000
    522    526    529     1   111.0400475 552.288000
    523    522    526     1   112.3500484 533.878400
    523    532    536     1   111.0400475 529.694400
    526    529    535     1   111.0400475 529.694400
    529    535   1147     1   115.1800491 558.982400
    529    535    537     1   123.2000528 564.003200
    532    536    538     1   123.2000528 564.003200
    532    536   1176     1   115.1800491 558.982400
    535   1147   1149     1   120.6900519 530.531200
    536   1176   1178     1   120.6900519 530.531200
    537    535   1147     1   123.0500530 620.905600
    538    536   1176     1   123.0500530 620.905600
    541    544    564     1   111.6100477 551.451200
    541    547    548     1   112.3500484 533.878400
    541    547    551     1   112.3500484 533.878400
    544    541    547     1   111.0400475 552.288000
    547    548    557     1   111.0400475 552.288000
    547    551    554     1   111.0400475 552.288000
    548    547    551     1   112.3500484 533.878400
    548    557    561     1   111.0400475 529.694400
    551    554    560     1   111.0400475 529.694400
    554    560   1205     1   115.1800491 558.982400
    554    560    562     1   123.2000528 564.003200
    557    561    563     1   123.2000528 564.003200
    557    561   1234     1   115.1800491 558.982400
    560   1205   1207     1   120.6900519 530.531200
    561   1234   1236     1   120.6900519 530.531200
    562    560   1205     1   123.0500530 620.905600
    563    561   1234     1   123.0500530 620.905600
    566    569    589     1   111.6100477 551.451200
    566    572    573     1   112.3500484 533.878400
    566    572    576     1   112.3500484 533.878400
    569    566    572     1   111.0400475 552.288000
    572    573    582     1   111.0400475 552.288000
    572    576    579     1   111.0400475 552.288000
    573    572    576     1   112.3500484 533.878400
    573    582    586     1   111.0400475 529.694400
    576    579    585     1   111.0400475 529.694400
    579    585   1263     1   115.1800491 558.982400
    579    585    587     1   123.2000528 564.003200
    582    586    588     1   123.2000528 564.003200
    582    586   1292     1   115.1800491 558.982400
    585   1263   1265     1   120.6900519 530.531200
    586   1292   1294     1   120.6900519 530.531200
    587    585   1263     1   123.0500530 620.905600
    588    586   1292     1   123.0500530 620.905600
    591    594    614     1   111.6100477 551.451200
    591    597    598     1   112.3500484 533.878400
    591    597    601     1   112.3500484 533.878400
    594    591    597     1   111.0400475 552.288000
    597    598    607     1   111.0400475 552.288000
    597    601    604     1   111.0400475 552.288000
    598    597    601     1   112.3500484 533.878400
    598    607    611     1   111.0400475 529.694400
    601    604    610     1   111.0400475 529.694400
    604    610   1321     1   115.1800491 558.982400
    604    610    612     1   123.2000528 564.003200
    607    611    613     1   123.2000528 564.003200
    607    611   1350     1   115.1800491 558.982400
    610   1321   1323     1   120.6900519 530.531200
    611   1350   1352     1   120.6900519 530.531200
    612    610   1321     1   123.0500530 620.905600
    613    611   1350     1   123.0500530 620.905600
    616    619    639     1   111.6100477 551.451200
    616    622    623     1   112.3500484 533.878400
    616    622    626     1   112.3500484 533.878400
    619    616    622     1   111.0400475 552.288000
    622    623    632     1   111.0400475 552.288000
    622    626    629     1   111.0400475 552.288000
    623    622    626     1   112.3500484 533.878400
    623    632    636     1   111.0400475 529.694400
    626    629    635     1   111.0400475 529.694400
    629    635   1379     1   115.1800491 558.982400
    629    635    637     1   123.2000528 564.003200
    632    636    638     1   123.2000528 564.003200
    632    636   1408     1   115.1800491 558.982400
    635   1379   1381     1   120.6900519 530.531200
    636   1408   1410     1   120.6900519 530.531200
    637    635   1379     1   123.0500530 620.905600
    638    636   1408     1   123.0500530 620.905600
    641    644    664     1   111.6100477 551.451200
    641    647    648     1   112.3500484 533.878400
    641    647    651     1   112.3500484 533.878400
    644    641    647     1   111.0400475 552.288000
    647    648    657     1   111.0400475 552.288000
    647    651    654     1   111.0400475 552.288000
    648    647    651     1   112.3500484 533.878400
    648    657    661     1   111.0400475 529.694400
    651    654    660     1   111.0400475 529.694400
    654    660   1437     1   115.1800491 558.982400
    654    660    662     1   123.2000528 564.003200
    657    661    663     1   123.2000528 564.003200
    657    661   1466     1   115.1800491 558.982400
    660   1437   1439     1   120.6900519 530.531200
    661   1466   1468     1   120.6900519 530.531200
    662    660   1437     1   123.0500530 620.905600
    663    661   1466     1   123.0500530 620.905600
    666    669    689     1   111.6100477 551.451200
    666    672    673     1   112.3500484 533.878400
    666    672    676     1   112.3500484 533.878400
    669    666    672     1   111.0400475 552.288000
    672    673    682     1   111.0400475 552.288000
    672    676    679     1   111.0400475 552.288000
    673    672    676     1   112.3500484 533.878400
    673    682    686     1   111.0400475 529.694400
    676    679    685     1   111.0400475 529.694400
    679    685   1495     1   115.1800491 558.982400
    679    685    687     1   123.2000528 564.003200
    682    686    688     1   123.2000528 564.003200
    682    686   1524     1   115.1800491 558.982400
    685   1495   1497     1   120.6900519 530.531200
    686   1524   1526     1   120.6900519 530.531200
    687    685   1495     1   123.0500530 620.905600
    688    686   1524     1   123.0500530 620.905600
    691    694    714     1   111.6100477 551.451200
    691    697    698     1   112.3500484 533.878400
    691    697    701     1   112.3500484 533.878400
    694    691    697     1   111.0400475 552.288000
    697    698    707     1   111.0400475 552.288000
    697    701    704     1   111.0400475 552.288000
    698    697    701     1   112.3500484 533.878400
    698    707    711     1   111.0400475 529.694400
    701    704    710     1   111.0400475 529.694400
    704    710   1553     1   115.1800491 558.982400
    704    710    712     1   123.2000528 564.003200
    707    711    713     1   123.2000528 564.003200
    707    711   1582     1   115.1800491 558.982400
    710   1553   1555     1   120.6900519 530.531200
    711   1582   1584     1   120.6900519 530.531200
    712    710   1553     1   123.0500530 620.905600
    713    711   1582     1   123.0500530 620.905600
    716    719    739     1   111.6100477 551.451200
    716    722    723     1   112.3500484 533.878400
    716    722    726     1   112.3500484 533.878400
    719    716    722     1   111.0400475 552.288000
    722    723    732     1   111.0400475 552.288000
    722    726    729     1   111.0400475 552.288000
    723    722    726     1   112.3500484 533.878400
    723    732    736     1   111.0400475 529.694400
    726    729    735     1   111.0400475 529.694400
    729    735   1611     1   115.1800491 558.982400
    729    735    737     1   123.2000528 564.003200
    732    736   1640     1   115.1800491 558.982400
    732    736    738     1   123.2000528 564.003200
    735   1611   1613     1   120.6900519 530.531200
    736   1640   1642     1   120.6900519 530.531200
    737    735   1611     1   123.0500530 620.905600
    738    736   1640     1   123.0500530 620.905600
    741    743    745     1   111.6100477 551.451200
    743    745    749     1   111.0400475 552.288000
    745    749    750     1   112.3500484 533.878400
    745    749    751     1   112.3500484 533.878400
    749    750    762     1   111.0400475 552.288000
    749    751    753     1   111.0400475 552.288000
    750    749    751     1   112.3500484 533.878400
    750    762    765     1   111.0400475 529.694400
    751    753    757     1   111.0400475 529.694400
    753    757    758     1   112.7300484 572.371200
    753    757    759     1   123.2000528 564.003200
    758    757    759     1   122.1000523 635.131200
    762    765    766     1   123.2000528 564.003200
    762    765    767     1   112.7300484 572.371200
    766    765    767     1   122.1000523 635.131200
    770    772    774     1   111.6100477 551.451200
    772    774    778     1   111.0400475 552.288000
    774    778    779     1   112.3500484 533.878400
    774    778    780     1   112.3500484 533.878400
    778    779    791     1   111.0400475 552.288000
    778    780    782     1   111.0400475 552.288000
    779    791    794     1   111.0400475 529.694400
    779    778    780     1   112.3500484 533.878400
    780    782    786     1   111.0400475 529.694400
    782    786    787     1   112.7300484 572.371200
    782    786    788     1   123.2000528 564.003200
    787    786    788     1   122.1000523 635.131200
    791    794    795     1   123.2000528 564.003200
    791    794    796     1   112.7300484 572.371200
    795    794    796     1   122.1000523 635.131200
    799    801    803     1   111.6100477 551.451200
    801    803    807     1   111.0400475 552.288000
    803    807    808     1   112.3500484 533.878400
    803    807    809     1   112.3500484 533.878400
    807    808    820     1   111.0400475 552.288000
    807    809    811     1   111.0400475 552.288000
    808    807    809     1   112.3500484 533.878400
    808    820    823     1   111.0400475 529.694400
    809    811    815     1   111.0400475 529.694400
    811    815    816     1   112.7300484 572.371200
    811    815    817     1   123.2000528 564.003200
    816    815    817     1   122.1000523 635.131200
    820    823    824     1   123.2000528 564.003200
    820    823    825     1   112.7300484 572.371200
    824    823    825     1   122.1000523 635.131200
    828    830    832     1   111.6100477 551.451200
    830    832    836     1   111.0400475 552.288000
    832    836    837     1   112.3500484 533.878400
    832    836    838     1   112.3500484 533.878400
    836    837    849     1   111.0400475 552.288000
    836    838    840     1   111.0400475 552.288000
    837    849    852     1   111.0400475 529.694400
    837    836    838     1   112.3500484 533.878400
    838    840    844     1   111.0400475 529.694400
    840    844    845     1   112.7300484 572.371200
    840    844    846     1   123.2000528 564.003200
    845    844    846     1   122.1000523 635.131200
    849    852    853     1   123.2000528 564.003200
    849    852    854     1   112.7300484 572.371200
    853    852    854     1   122.1000523 635.131200
    857    859    861     1   111.6100477 551.451200
    859    861    865     1   111.0400475 552.288000
    861    865    866     1   112.3500484 533.878400
    861    865    867     1   112.3500484 533.878400
    865    866    878     1   111.0400475 552.288000
    865    867    869     1   111.0400475 552.288000
    866    865    867     1   112.3500484 533.878400
    866    878    881     1   111.0400475 529.694400
    867    869    873     1   111.0400475 529.694400
    869    873    874     1   112.7300484 572.371200
    869    873    875     1   123.2000528 564.003200
    874    873    875     1   122.1000523 635.131200
    878    881    882     1   123.2000528 564.003200
    878    881    883     1   112.7300484 572.371200
    882    881    883     1   122.1000523 635.131200
    886    888    890     1   111.6100477 551.451200
    888    890    894     1   111.0400475 552.288000
    890    894    895     1   112.3500484 533.878400
    890    894    896     1   112.3500484 533.878400
    894    895    907     1   111.0400475 552.288000
    894    896    898     1   111.0400475 552.288000
    895    907    910     1   111.0400475 529.694400
    895    894    896     1   112.3500484 533.878400
    896    898    902     1   111.0400475 529.694400
    898    902    903     1   112.7300484 572.371200
    898    902    904     1   123.2000528 564.003200
    903    902    904     1   122.1000523 635.131200
    907    910    911     1   123.2000528 564.003200
    907    910    912     1   112.7300484 572.371200
    911    910    912     1   122.1000523 635.131200
    915    917    919     1   111.6100477 551.451200
    917    919    923     1   111.0400475 552.288000
    919    923    924     1   112.3500484 533.878400
    919    923    925     1   112.3500484 533.878400
    923    924    936     1   111.0400475 552.288000
    923    925    927     1   111.0400475 552.288000
    924    923    925     1   112.3500484 533.878400
    924    936    939     1   111.0400475 529.694400
    925    927    931     1   111.0400475 529.694400
    927    931    932     1   112.7300484 572.371200
    927    931    933     1   123.2000528 564.003200
    932    931    933     1   122.1000523 635.131200
    936    939    940     1   123.2000528 564.003200
    936    939    941     1   112.7300484 572.371200
    940    939    941     1   122.1000523 635.131200
    944    946    948     1   111.6100477 551.451200
    946    948    952     1   111.0400475 552.288000
    948    952    953     1   112.3500484 533.878400
    948    952    954     1   112.3500484 533.878400
    952    953    965     1   111.0400475 552.288000
    952    954    956     1   111.0400475 552.288000
    953    965    968     1   111.0400475 529.694400
    953    952    954     1   112.3500484 533.878400
    954    956    960     1   111.0400475 529.694400
    956    960    961     1   112.7300484 572.371200
    956    960    962     1   123.2000528 564.003200
    961    960    962     1   122.1000523 635.131200
    965    968    969     1   123.2000528 564.003200
    965    968    970     1   112.7300484 572.371200
    969    968    970     1   122.1000523 635.131200
    973    975    977     1   111.6100477 551.451200
    975    977    981     1   111.0400475 552.288000
    977    981    982     1   112.3500484 533.878400
    977    981    983     1   112.3500484 533.878400
    981    982    994     1   111.0400475 552.288000
    981    983    985     1   111.0400475 552.288000
    982    981    983     1   112.3500484 533.878400
    982    994    997     1   111.0400475 529.694400
    983    985    989     1   111.0400475 529.694400
    985    989    990     1   112.7300484 572.371200
    985    989    991     1   123.2000528 564.003200
    990    989    991     1   122.1000523 635.131200
    994    997    998     1   123.2000528 564.003200
    994    997    999     1   112.7300484 572.371200
    998    997    999     1   122.1000523 635.131200
   1002   1004   1006     1   111.6100477 551.451200
   1004   1006   1010     1   111.0400475 552.288000
   1006   1010   1011     1   112.3500484 533.878400
   1006   1010   1012     1   112.3500484 533.878400
   1010   1011   1023     1   111.0400475 552.288000
   1010   1012   1014     1   111.0400475 552.288000
   1011   1023   1026     1   111.0400475 529.694400
   1011   1010   1012     1   112.3500484 533.878400
   1012   1014   1018     1   111.0400475 529.694400
   1014   1018   1019     1   112.7300484 572.371200
   1014   1018   1020     1   123.2000528 564.003200
   1019   1018   1020     1   122.1000523 635.131200
   1023   1026   1027     1   123.2000528 564.003200
   1023   1026   1028     1   112.7300484 572.371200
   1027   1026   1028     1   122.1000523 635.131200
   1031   1033   1035     1   111.6100477 551.451200
   1033   1035   1039     1   111.0400475 552.288000
   1035   1039   1040     1   112.3500484 533.878400
   1035   1039   1041     1   112.3500484 533.878400
   1039   1040   1052     1   111.0400475 552.288000
   1039   1041   1043     1   111.0400475 552.288000
   1040   1039   1041     1   112.3500484 533.878400
   1040   1052   1055     1   111.0400475 529.694400
   1041   1043   1047     1   111.0400475 529.694400
   1043   1047   1048     1   112.7300484 572.371200
   1043   1047   1049     1   123.2000528 564.003200
   1048   1047   1049     1   122.1000523 635.131200
   1052   1055   1056     1   123.2000528 564.003200
   1052   1055   1057     1   112.7300484 572.371200
   1056   1055   1057     1   122.1000523 635.131200
   1060   1062   1064     1   111.6100477 551.451200
   1062   1064   1068     1   111.0400475 552.288000
   1064   1068   1069     1   112.3500484 533.878400
   1064   1068   1070     1   112.3500484 533.878400
   1068   1069   1081     1   111.0400475 552.288000
   1068   1070   1072     1   111.0400475 552.288000
   1069   1081   1084     1   111.0400475 529.694400
   1069   1068   1070     1   112.3500484 533.878400
   1070   1072   1076     1   111.0400475 529.694400
   1072   1076   1077     1   112.7300484 572.371200
   1072   1076   1078     1   123.2000528 564.003200
   1077   1076   1078     1   122.1000523 635.131200
   1081   1084   1085     1   123.2000528 564.003200
   1081   1084   1086     1   112.7300484 572.371200
   1085   1084   1086     1   122.1000523 635.131200
   1089   1091   1093     1   111.6100477 551.451200
   1091   1093   1097     1   111.0400475 552.288000
   1093   1097   1098     1   112.3500484 533.878400
   1093   1097   1099     1   112.3500484 533.878400
   1097   1098   1110     1   111.0400475 552.288000
   1097   1099   1101     1   111.0400475 552.288000
   1098   1097   1099     1   112.3500484 533.878400
   1098   1110   1113     1   111.0400475 529.694400
   1099   1101   1105     1   111.0400475 529.694400
   1101   1105   1106     1   112.7300484 572.371200
   1101   1105   1107     1   123.2000528 564.003200
   1106   1105   1107     1   122.1000523 635.131200
   1110   1113   1114     1   123.2000528 564.003200
   1110   1113   1115     1   112.7300484 572.371200
   1114   1113   1115     1   122.1000523 635.131200
   1118   1120   1122     1   111.6100477 551.451200
   1120   1122   1126     1   111.0400475 552.288000
   1122   1126   1127     1   112.3500484 533.878400
   1122   1126   1128     1   112.3500484 533.878400
   1126   1127   1139     1   111.0400475 552.288000
   1126   1128   1130     1   111.0400475 552.288000
   1127   1139   1142     1   111.0400475 529.694400
   1127   1126   1128     1   112.3500484 533.878400
   1128   1130   1134     1   111.0400475 529.694400
   1130   1134   1135     1   112.7300484 572.371200
   1130   1134   1136     1   123.2000528 564.003200
   1135   1134   1136     1   122.1000523 635.131200
   1139   1142   1143     1   123.2000528 564.003200
   1139   1142   1144     1   112.7300484 572.371200
   1143   1142   1144     1   122.1000523 635.131200
   1147   1149   1151     1   111.6100477 551.451200
   1149   1151   1155     1   111.0400475 552.288000
   1151   1155   1156     1   112.3500484 533.878400
   1151   1155   1157     1   112.3500484 533.878400
   1155   1156   1168     1   111.0400475 552.288000
   1155   1157   1159     1   111.0400475 552.288000
   1156   1155   1157     1   112.3500484 533.878400
   1156   1168   1171     1   111.0400475 529.694400
   1157   1159   1163     1   111.0400475 529.694400
   1159   1163   1164     1   112.7300484 572.371200
   1159   1163   1165     1   123.2000528 564.003200
   1164   1163   1165     1   122.1000523 635.131200
   1168   1171   1172     1   123.2000528 564.003200
   1168   1171   1173     1   112.7300484 572.371200
   1172   1171   1173     1   122.1000523 635.131200
   1176   1178   1180     1   111.6100477 551.451200
   1178   1180   1184     1   111.0400475 552.288000
   1180   1184   1185     1   112.3500484 533.878400
   1180   1184   1186     1   112.3500484 533.878400
   1184   1185   1197     1   111.0400475 552.288000
   1184   1186   1188     1   111.0400475 552.288000
   1185   1197   1200     1   111.0400475 529.694400
   1185   1184   1186     1   112.3500484 533.878400
   1186   1188   1192     1   111.0400475 529.694400
   1188   1192   1193     1   112.7300484 572.371200
   1188   1192   1194     1   123.2000528 564.003200
   1193   1192   1194     1   122.1000523 635.131200
   1197   1200   1201     1   123.2000528 564.003200
   1197   1200   1202     1   112.7300484 572.371200
   1201   1200   1202     1   122.1000523 635.131200
   1205   1207   1209     1   111.6100477 551.451200
   1207   1209   1213     1   111.0400475 552.288000
   1209   1213   1214     1   112.3500484 533.878400
   1209   1213   1215     1   112.3500484 533.878400
   1213   1214   1226     1   111.0400475 552.288000
   1213   1215   1217     1   111.0400475 552.288000
   1214   1213   1215     1   112.3500484 533.878400
   1214   1226   1229     1   111.0400475 529.694400
   1215   1217   1221     1   111.0400475 529.694400
   1217   1221   1222     1   112.7300484 572.371200
   1217   1221   1223     1   123.2000528 564.003200
   1222   1221   1223     1   122.1000523 635.131200
   1226   1229   1230     1   123.2000528 564.003200
   1226   1229   1231     1   112.7300484 572.371200
   1230   1229   1231     1   122.1000523 635.131200
   1234   1236   1238     1   111.6100477 551.451200
   1236   1238   1242     1   111.0400475 552.288000
   1238   1242   1243     1   112.3500484 533.878400
   1238   1242   1244     1   112.3500484 533.878400
   1242   1243   1255     1   111.0400475 552.288000
   1242   1244   1246     1   111.0400475 552.288000
   1243   1255   1258     1   111.0400475 529.694400
   1243   1242   1244     1   112.3500484 533.878400
   1244   1246   1250     1   111.0400475 529.694400
   1246   1250   1251     1   112.7300484 572.371200
   1246   1250   1252     1   123.2000528 564.003200
   1251   1250   1252     1   122.1000523 635.131200
   1255   1258   1259     1   123.2000528 564.003200
   1255   1258   1260     1   112.7300484 572.371200
   1259   1258   1260     1   122.1000523 635.131200
   1263   1265   1267     1   111.6100477 551.451200
   1265   1267   1271     1   111.0400475 552.288000
   1267   1271   1272     1   112.3500484 533.878400
   1267   1271   1273     1   112.3500484 533.878400
   1271   1272   1284     1   111.0400475 552.288000
   1271   1273   1275     1   111.0400475 552.288000
   1272   1271   1273     1   112.3500484 533.878400
   1272   1284   1287     1   111.0400475 529.694400
   1273   1275   1279     1   111.0400475 529.694400
   1275   1279   1280     1   112.7300484 572.371200
   1275   1279   1281     1   123.2000528 564.003200
   1280   1279   1281     1   122.1000523 635.131200
   1284   1287   1288     1   123.2000528 564.003200
   1284   1287   1289     1   112.7300484 572.371200
   1288   1287   1289     1   122.1000523 635.131200
   1292   1294   1296     1   111.6100477 551.451200
   1294   1296   1300     1   111.0400475 552.288000
   1296   1300   1301     1   112.3500484 533.878400
   1296   1300   1302     1   112.3500484 533.878400
   1300   1301   1313     1   111.0400475 552.288000
   1300   1302   1304     1   111.0400475 552.288000
   1301   1313   1316     1   111.0400475 529.694400
   1301   1300   1302     1   112.3500484 533.878400
   1302   1304   1308     1   111.0400475 529.694400
   1304   1308   1309     1   112.7300484 572.371200
   1304   1308   1310     1   123.2000528 564.003200
   1309   1308   1310     1   122.1000523 635.131200
   1313   1316   1317     1   123.2000528 564.003200
   1313   1316   1318     1   112.7300484 572.371200
   1317   1316   1318     1   122.1000523 635.131200
   1321   1323   1325     1   111.6100477 551.451200
   1323   1325   1329     1   111.0400475 552.288000
   1325   1329   1330     1   112.3500484 533.878400
   1325   1329   1331     1   112.3500484 533.878400
   1329   1330   1342     1   111.0400475 552.288000
   1329   1331   1333     1   111.0400475 552.288000
   1330   1329   1331     1   112.3500484 533.878400
   1330   1342   1345     1   111.0400475 529.694400
   1331   1333   1337     1   111.0400475 529.694400
   1333   1337   1338     1   112.7300484 572.371200
   1333   1337   1339     1   123.2000528 564.003200
   1338   1337   1339     1   122.1000523 635.131200
   1342   1345   1346     1   123.2000528 564.003200
   1342   1345   1347     1   112.7300484 572.371200
   1346   1345   1347     1   122.1000523 635.131200
   1350   1352   1354     1   111.6100477 551.451200
   1352   1354   1358     1   111.0400475 552.288000
   1354   1358   1359     1   112.3500484 533.878400
   1354   1358   1360     1   112.3500484 533.878400
   1358   1359   1371     1   111.0400475 552.288000
   1358   1360   1362     1   111.0400475 552.288000
   1359   1371   1374     1   111.0400475 529.694400
   1359   1358   1360     1   112.3500484 533.878400
   1360   1362   1366     1   111.0400475 529.694400
   1362   1366   1367     1   112.7300484 572.371200
   1362   1366   1368     1   123.2000528 564.003200
   1367   1366   1368     1   122.1000523 635.131200
   1371   1374   1375     1   123.2000528 564.003200
   1371   1374   1376     1   112.7300484 572.371200
   1375   1374   1376     1   122.1000523 635.131200
   1379   1381   1383     1   111.6100477 551.451200
   1381   1383   1387     1   111.0400475 552.288000
   1383   1387   1388     1   112.3500484 533.878400
   1383   1387   1389     1   112.3500484 533.878400
   1387   1388   1400     1   111.0400475 552.288000
   1387   1389   1391     1   111.0400475 552.288000
   1388   1387   1389     1   112.3500484 533.878400
   1388   1400   1403     1   111.0400475 529.694400
   1389   1391   1395     1   111.0400475 529.694400
   1391   1395   1396     1   112.7300484 572.371200
   1391   1395   1397     1   123.2000528 564.003200
   1396   1395   1397     1   122.1000523 635.131200
   1400   1403   1404     1   123.2000528 564.003200
   1400   1403   1405     1   112.7300484 572.371200
   1404   1403   1405     1   122.1000523 635.131200
   1408   1410   1412     1   111.6100477 551.451200
   1410   1412   1416     1   111.0400475 552.288000
   1412   1416   1417     1   112.3500484 533.878400
   1412   1416   1418     1   112.3500484 533.878400
   1416   1417   1429     1   111.0400475 552.288000
   1416   1418   1420     1   111.0400475 552.288000
   1417   1429   1432     1   111.0400475 529.694400
   1417   1416   1418     1   112.3500484 533.878400
   1418   1420   1424     1   111.0400475 529.694400
   1420   1424   1425     1   112.7300484 572.371200
   1420   1424   1426     1   123.2000528 564.003200
   1425   1424   1426     1   122.1000523 635.131200
   1429   1432   1433     1   123.2000528 564.003200
   1429   1432   1434     1   112.7300484 572.371200
   1433   1432   1434     1   122.1000523 635.131200
   1437   1439   1441     1   111.6100477 551.451200
   1439   1441   1445     1   111.0400475 552.288000
   1441   1445   1446     1   112.3500484 533.878400
   1441   1445   1447     1   112.3500484 533.878400
   1445   1446   1458     1   111.0400475 552.288000
   1445   1447   1449     1   111.0400475 552.288000
   1446   1445   1447     1   112.3500484 533.878400
   1446   1458   1461     1   111.0400475 529.694400
   1447   1449   1453     1   111.0400475 529.694400
   1449   1453   1454     1   112.7300484 572.371200
   1449   1453   1455     1   123.2000528 564.003200
   1454   1453   1455     1   122.1000523 635.131200
   1458   1461   1462     1   123.2000528 564.003200
   1458   1461   1463     1   112.7300484 572.371200
   1462   1461   1463     1   122.1000523 635.131200
   1466   1468   1470     1   111.6100477 551.451200
   1468   1470   1474     1   111.0400475 552.288000
   1470   1474   1475     1   112.3500484 533.878400
   1470   1474   1476     1   112.3500484 533.878400
   1474   1475   1487     1   111.0400475 552.288000
   1474   1476   1478     1   111.0400475 552.288000
   1475   1487   1490     1   111.0400475 529.694400
   1475   1474   1476     1   112.3500484 533.878400
   1476   1478   1482     1   111.0400475 529.694400
   1478   1482   1483     1   112.7300484 572.371200
   1478   1482   1484     1   123.2000528 564.003200
   1483   1482   1484     1   122.1000523 635.131200
   1487   1490   1491     1   123.2000528 564.003200
   1487   1490   1492     1   112.7300484 572.371200
   1491   1490   1492     1   122.1000523 635.131200
   1495   1497   1499     1   111.6100477 551.451200
   1497   1499   1503     1   111.0400475 552.288000
   1499   1503   1504     1   112.3500484 533.878400
   1499   1503   1505     1   112.3500484 533.878400
   1503   1504   1516     1   111.0400475 552.288000
   1503   1505   1507     1   111.0400475 552.288000
   1504   1503   1505     1   112.3500484 533.878400
   1504   1516   1519     1   111.0400475 529.694400
   1505   1507   1511     1   111.0400475 529.694400
   1507   1511   1512     1   112.7300484 572.371200
   1507   1511   1513     1   123.2000528 564.003200
   1512   1511   1513     1   122.1000523 635.131200
   1516   1519   1520     1   123.2000528 564.003200
   1516   1519   1521     1   112.7300484 572.371200
   1520   1519   1521     1   122.1000523 635.131200
   1524   1526   1528     1   111.6100477 551.451200
   1526   1528   1532     1   111.0400475 552.288000
   1528   1532   1533     1   112.3500484 533.878400
   1528   1532   1534     1   112.3500484 533.878400
   1532   1533   1545     1   111.0400475 552.288000
   1532   1534   1536     1   111.0400475 552.288000
   1533   1545   1548     1   111.0400475 529.694400
   1533   1532   1534     1   112.3500484 533.878400
   1534   1536   1540     1   111.0400475 529.694400
   1536   1540   1541     1   112.7300484 572.371200
   1536   1540   1542     1   123.2000528 564.003200
   1541   1540   1542     1   122.1000523 635.131200
   1545   1548   1549     1   123.2000528 564.003200
   1545   1548   1550     1   112.7300484 572.371200
   1549   1548   1550     1   122.1000523 635.131200
   1553   1555   1557     1   111.6100477 551.451200
   1555   1557   1561     1   111.0400475 552.288000
   1557   1561   1562     1   112.3500484 533.878400
   1557   1561   1563     1   112.3500484 533.878400
   1561   1562   1574     1   111.0400475 552.288000
   1561   1563   1565     1   111.0400475 552.288000
   1562   1561   1563     1   112.3500484 533.878400
   1562   1574   1577     1   111.0400475 529.694400
   1563   1565   1569     1   111.0400475 529.694400
   1565   1569   1570     1   112.7300484 572.371200
   1565   1569   1571     1   123.2000528 564.003200
   1570   1569   1571     1   122.1000523 635.131200
   1574   1577   1578     1   123.2000528 564.003200
   1574   1577   1579     1   112.7300484 572.371200
   1578   1577   1579     1   122.1000523 635.131200
   1582   1584   1586     1   111.6100477 551.451200
   1584   1586   1590     1   111.0400475 552.288000
   1586   1590   1591     1   112.3500484 533.878400
   1586   1590   1592     1   112.3500484 533.878400
   1590   1591   1603     1   111.0400475 552.288000
   1590   1592   1594     1   111.0400475 552.288000
   1591   1603   1606     1   111.0400475 529.694400
   1591   1590   1592     1   112.3500484 533.878400
   1592   1594   1598     1   111.0400475 529.694400
   1594   1598   1599     1   112.7300484 572.371200
   1594   1598   1600     1   123.2000528 564.003200
   1599   1598   1600     1   122.1000523 635.131200
   1603   1606   1607     1   123.2000528 564.003200
   1603   1606   1608     1   112.7300484 572.371200
   1607   1606   1608     1   122.1000523 635.131200
   1611   1613   1615     1   111.6100477 551.451200
   1613   1615   1619     1   111.0400475 552.288000
   1615   1619   1620     1   112.3500484 533.878400
   1615   1619   1621     1   112.3500484 533.878400
   1619   1620   1632     1   111.0400475 552.288000
   1619   1621   1623     1   111.0400475 552.288000
   1620   1619   1621     1   112.3500484 533.878400
   1620   1632   1635     1   111.0400475 529.694400
   1621   1623   1627     1   111.0400475 529.694400
   1623   1627   1628     1   112.7300484 572.371200
   1623   1627   1629     1   123.2000528 564.003200
   1628   1627   1629     1   122.1000523 635.131200
   1632   1635   1636     1   123.2000528 564.003200
   1632   1635   1637     1   112.7300484 572.371200
   1636   1635   1637     1   122.1000523 635.131200
   1640   1642   1644     1   111.6100477 551.451200
   1642   1644   1648     1   111.0400475 552.288000
   1644   1648   1649     1   112.3500484 533.878400
   1644   1648   1650     1   112.3500484 533.878400
   1648   1649   1661     1   111.0400475 552.288000
   1648   1650   1652     1   111.0400475 552.288000
   1649   1661   1664     1   111.0400475 529.694400
   1649   1648   1650     1   112.3500484 533.878400
   1650   1652   1656     1   111.0400475 529.694400
   1652   1656   1657     1   112.7300484 572.371200
   1652   1656   1658     1   123.2000528 564.003200
   1657   1656   1658     1   122.1000523 635.131200
   1661   1664   1665     1   123.2000528 564.003200
   1661   1664   1666     1   112.7300484 572.371200
   1665   1664   1666     1   122.1000523 635.131200
      1      4      5     1   109.5600471 388.275200
      1      4      6     1   109.5600471 388.275200
      2      1      4     1   109.5600471 388.275200
      2      1      8     1   109.8800469 414.216000
      2      1      3     1   108.4600466 328.025600
      3      1      4     1   109.5600471 388.275200
      3      1      8     1   109.8800469 414.216000
      5      4      7     1   109.8800469 414.216000
      5      4      6     1   108.4600466 328.025600
      6      4      7     1   109.8800469 414.216000
      7     15     16     1   109.8800469 414.216000
      7     15     17     1   109.8800469 414.216000
      7     18     19     1   109.8800469 414.216000
      7     18     20     1   109.8800469 414.216000
      8      9     10     1   109.8800469 414.216000
      8      9     11     1   109.8800469 414.216000
      8     12     13     1   109.8800469 414.216000
      8     12     14     1   109.8800469 414.216000
      9     30     31     1   109.8000471 387.438400
      9     30     32     1   109.8000471 387.438400
     10      9     30     1   109.5600471 388.275200
     10      9     11     1   108.4600466 328.025600
     11      9     30     1   109.5600471 388.275200
     12     27     28     1   109.8000471 387.438400
     12     27     29     1   109.8000471 387.438400
     13     12     27     1   109.5600471 388.275200
     13     12     14     1   108.4600466 328.025600
     14     12     27     1   109.5600471 388.275200
     15     21     22     1   109.8000471 387.438400
     15     21     23     1   109.8000471 387.438400
     16     15     21     1   109.5600471 388.275200
     16     15     17     1   108.4600466 328.025600
     17     15     21     1   109.5600471 388.275200
     18     24     25     1   109.8000471 387.438400
     18     24     26     1   109.8000471 387.438400
     19     18     24     1   109.5600471 388.275200
     19     18     20     1   108.4600466 328.025600
     20     18     24     1   109.5600471 388.275200
     22     21     35     1   108.7700466 392.459200
     22     21     23     1   107.5800459 329.699200
     23     21     35     1   108.7700466 392.459200
     25     24     36     1   108.7700466 392.459200
     25     24     26     1   107.5800459 329.699200
     26     24     36     1   108.7700466 392.459200
     28     27     33     1   108.7700466 392.459200
     28     27     29     1   107.5800459 329.699200
     29     27     33     1   108.7700466 392.459200
     31     30     34     1   108.7700466 392.459200
     31     30     32     1   107.5800459 329.699200
     32     30     34     1   108.7700466 392.459200
     33     64     65     1   117.5500507 404.174400
     34     89     90     1   117.5500507 404.174400
     35    114    115     1   117.5500507 404.174400
     36    139    140     1   117.5500507 404.174400
     41     44     45     1   109.5600471 388.275200
     41     44     46     1   109.5600471 388.275200
     42     41     44     1   109.5600471 388.275200
     42     41     47     1   109.8800469 414.216000
     42     41     43     1   108.4600466 328.025600
     43     41     44     1   109.5600471 388.275200
     43     41     47     1   109.8800469 414.216000
     44     64     65     1   117.6800502 383.254400
     45     44     64     1   108.8800464 416.726400
     45     44     46     1   108.4600466 328.025600
     46     44     64     1   108.8800464 416.726400
     47     48     49     1   109.8800469 414.216000
     47     48     50     1   109.8800469 414.216000
     47     51     52     1   109.8800469 414.216000
     47     51     53     1   109.8800469 414.216000
     48     57     58     1   109.8000471 387.438400
     48     57     59     1   109.8000471 387.438400
     49     48     57     1   109.5600471 388.275200
     49     48     50     1   108.4600466 328.025600
     50     48     57     1   109.5600471 388.275200
     51     54     55     1   109.8000471 387.438400
     51     54     56     1   109.8000471 387.438400
     52     51     54     1   109.5600471 388.275200
     52     51     53     1   108.4600466 328.025600
     53     51     54     1   109.5600471 388.275200
     55     54     60     1   108.7700466 392.459200
     55     54     56     1   107.5800459 329.699200
     56     54     60     1   108.7700466 392.459200
     58     57     61     1   108.7700466 392.459200
     58     57     59     1   107.5800459 329.699200
     59     57     61     1   108.7700466 392.459200
     60    164    165     1   117.5500507 404.174400
     61    189    190     1   117.5500507 404.174400
     66     69     70     1   109.5600471 388.275200
     66     69     71     1   109.5600471 388.275200
     67     66     69     1   109.5600471 388.275200
     67     66     72     1   109.8800469 414.216000
     67     66     68     1   108.4600466 328.025600
     68     66     69     1   109.5600471 388.275200
     68     66     72     1   109.8800469 414.216000
     69     89     90     1   117.6800502 383.254400
     70     69     89     1   108.8800464 416.726400
     70     69     71     1   108.4600466 328.025600
     71     69     89     1   108.8800464 416.726400
     72     73     74     1   109.8800469 414.216000
     72     73     75     1   109.8800469 414.216000
     72     76     77     1   109.8800469 414.216000
     72     76     78     1   109.8800469 414.216000
     73     82     83     1   109.8000471 387.438400
     73     82     84     1   109.8000471 387.438400
     74     73     82     1   109.5600471 388.275200
     74     73     75     1   108.4600466 328.025600
     75     73     82     1   109.5600471 388.275200
     76     79     80     1   109.8000471 387.438400
     76     79     81     1   109.8000471 387.438400
     77     76     79     1   109.5600471 388.275200
     77     76     78     1   108.4600466 328.025600
     78     76     79     1   109.5600471 388.275200
     80     79     85     1   108.7700466 392.459200
     80     79     81     1   107.5800459 329.699200
     81     79     85     1   108.7700466 392.459200
     83     82     86     1   108.7700466 392.459200
     83     82     84     1   107.5800459 329.699200
     84     82     86     1   108.7700466 392.459200
     85    214    215     1   117.5500507 404.174400
     86    239    240     1   117.5500507 404.174400
     91     94     95     1   109.5600471 388.275200
     91     94     96     1   109.5600471 388.275200
     92     91     94     1   109.5600471 388.275200
     92     91     97     1   109.8800469 414.216000
     92     91     93     1   108.4600466 328.025600
     93     91     94     1   109.5600471 388.275200
     93     91     97     1   109.8800469 414.216000
     94    114    115     1   117.6800502 383.254400
     95     94    114     1   108.8800464 416.726400
     95     94     96     1   108.4600466 328.025600
     96     94    114     1   108.8800464 416.726400
     97     98     99     1   109.8800469 414.216000
     97     98    100     1   109.8800469 414.216000
     97    101    102     1   109.8800469 414.216000
     97    101    103     1   109.8800469 414.216000
     98    107    108     1   109.8000471 387.438400
     98    107    109     1   109.8000471 387.438400
     99     98    107     1   109.5600471 388.275200
     99     98    100     1   108.4600466 328.025600
    100     98    107     1   109.5600471 388.275200
    101    104    105     1   109.8000471 387.438400
    101    104    106     1   109.8000471 387.438400
    102    101    104     1   109.5600471 388.275200
    102    101    103     1   108.4600466 328.025600
    103    101    104     1   109.5600471 388.275200
    105    104    110     1   108.7700466 392.459200
    105    104    106     1   107.5800459 329.699200
    106    104    110     1   108.7700466 392.459200
    108    107    111     1   108.7700466 392.459200
    108    107    109     1   107.5800459 329.699200
    109    107    111     1   108.7700466 392.459200
    110    264    265     1   117.5500507 404.174400
    111    289    290     1   117.5500507 404.174400
    116    119    120     1   109.5600471 388.275200
    116    119    121     1   109.5600471 388.275200
    117    116    119     1   109.5600471 388.275200
    117    116    122     1   109.8800469 414.216000
    117    116    118     1   108.4600466 328.025600
    118    116    119     1   109.5600471 388.275200
    118    116    122     1   109.8800469 414.216000
    119    139    140     1   117.6800502 383.254400
    120    119    139     1   108.8800464 416.726400
    120    119    121     1   108.4600466 328.025600
    121    119    139     1   108.8800464 416.726400
    122    123    124     1   109.8800469 414.216000
    122    123    125     1   109.8800469 414.216000
    122    126    127     1   109.8800469 414.216000
    122    126    128     1   109.8800469 414.216000
    123    132    133     1   109.8000471 387.438400
    123    132    134     1   109.8000471 387.438400
    124    123    132     1   109.5600471 388.275200
    124    123    125     1   108.4600466 328.025600
    125    123    132     1   109.5600471 388.275200
    126    129    130     1   109.8000471 387.438400
    126    129    131     1   109.8000471 387.438400
    127    126    129     1   109.5600471 388.275200
    127    126    128     1   108.4600466 328.025600
    128    126    129     1   109.5600471 388.275200
    130    129    135     1   108.7700466 392.459200
    130    129    131     1   107.5800459 329.699200
    131    129    135     1   108.7700466 392.459200
    133    132    136     1   108.7700466 392.459200
    133    132    134     1   107.5800459 329.699200
    134    132    136     1   108.7700466 392.459200
    135    314    315     1   117.5500507 404.174400
    136    339    340     1   117.5500507 404.174400
    141    144    145     1   109.5600471 388.275200
    141    144    146     1   109.5600471 388.275200
    142    141    144     1   109.5600471 388.275200
    142    141    147     1   109.8800469 414.216000
    142    141    143     1   108.4600466 328.025600
    143    141    144     1   109.5600471 388.275200
    143    141    147     1   109.8800469 414.216000
    144    164    165     1   117.6800502 383.254400
    145    144    164     1   108.8800464 416.726400
    145    144    146     1   108.4600466 328.025600
    146    144    164     1   108.8800464 416.726400
    147    148    149     1   109.8800469 414.216000
    147    148    150     1   109.8800469 414.216000
    147    151    152     1   109.8800469 414.216000
    147    151    153     1   109.8800469 414.216000
    148    157    158     1   109.8000471 387.438400
    148    157    159     1   109.8000471 387.438400
    149    148    157     1   109.5600471 388.275200
    149    148    150     1   108.4600466 328.025600
    150    148    157     1   109.5600471 388.275200
    151    154    155     1   109.8000471 387.438400
    151    154    156     1   109.8000471 387.438400
    152    151    154     1   109.5600471 388.275200
    152    151    153     1   108.4600466 328.025600
    153    151    154     1   109.5600471 388.275200
    155    154    160     1   108.7700466 392.459200
    155    154    156     1   107.5800459 329.699200
    156    154    160     1   108.7700466 392.459200
    158    157    161     1   108.7700466 392.459200
    158    157    159     1   107.5800459 329.699200
    159    157    161     1   108.7700466 392.459200
    160    364    365     1   117.5500507 404.174400
    161    389    390     1   117.5500507 404.174400
    166    169    170     1   109.5600471 388.275200
    166    169    171     1   109.5600471 388.275200
    167    166    169     1   109.5600471 388.275200
    167    166    172     1   109.8800469 414.216000
    167    166    168     1   108.4600466 328.025600
    168    166    169     1   109.5600471 388.275200
    168    166    172     1   109.8800469 414.216000
    169    189    190     1   117.6800502 383.254400
    170    169    189     1   108.8800464 416.726400
    170    169    171     1   108.4600466 328.025600
    171    169    189     1   108.8800464 416.726400
    172    173    174     1   109.8800469 414.216000
    172    173    175     1   109.8800469 414.216000
    172    176    177     1   109.8800469 414.216000
    172    176    178     1   109.8800469 414.216000
    173    182    183     1   109.8000471 387.438400
    173    182    184     1   109.8000471 387.438400
    174    173    182     1   109.5600471 388.275200
    174    173    175     1   108.4600466 328.025600
    175    173    182     1   109.5600471 388.275200
    176    179    180     1   109.8000471 387.438400
    176    179    181     1   109.8000471 387.438400
    177    176    179     1   109.5600471 388.275200
    177    176    178     1   108.4600466 328.025600
    178    176    179     1   109.5600471 388.275200
    180    179    185     1   108.7700466 392.459200
    180    179    181     1   107.5800459 329.699200
    181    179    185     1   108.7700466 392.459200
    183    182    186     1   108.7700466 392.459200
    183    182    184     1   107.5800459 329.699200
    184    182    186     1   108.7700466 392.459200
    185    414    415     1   117.5500507 404.174400
    186    439    440     1   117.5500507 404.174400
    191    194    195     1   109.5600471 388.275200
    191    194    196     1   109.5600471 388.275200
    192    191    194     1   109.5600471 388.275200
    192    191    197     1   109.8800469 414.216000
    192    191    193     1   108.4600466 328.025600
    193    191    194     1   109.5600471 388.275200
    193    191    197     1   109.8800469 414.216000
    194    214    215     1   117.6800502 383.254400
    195    194    214     1   108.8800464 416.726400
    195    194    196     1   108.4600466 328.025600
    196    194    214     1   108.8800464 416.726400
    197    198    199     1   109.8800469 414.216000
    197    198    200     1   109.8800469 414.216000
    197    201    202     1   109.8800469 414.216000
    197    201    203     1   109.8800469 414.216000
    198    207    208     1   109.8000471 387.438400
    198    207    209     1   109.8000471 387.438400
    199    198    207     1   109.5600471 388.275200
    199    198    200     1   108.4600466 328.025600
    200    198    207     1   109.5600471 388.275200
    201    204    205     1   109.8000471 387.438400
    201    204    206     1   109.8000471 387.438400
    202    201    204     1   109.5600471 388.275200
    202    201    203     1   108.4600466 328.025600
    203    201    204     1   109.5600471 388.275200
    205    204    210     1   108.7700466 392.459200
    205    204    206     1   107.5800459 329.699200
    206    204    210     1   108.7700466 392.459200
    208    207    211     1   108.7700466 392.459200
    208    207    209     1   107.5800459 329.699200
    209    207    211     1   108.7700466 392.459200
    210    464    465     1   117.5500507 404.174400
    211    489    490     1   117.5500507 404.174400
    216    219    220     1   109.5600471 388.275200
    216    219    221     1   109.5600471 388.275200
    217    216    219     1   109.5600471 388.275200
    217    216    222     1   109.8800469 414.216000
    217    216    218     1   108.4600466 328.025600
    218    216    219     1   109.5600471 388.275200
    218    216    222     1   109.8800469 414.216000
    219    239    240     1   117.6800502 383.254400
    220    219    239     1   108.8800464 416.726400
    220    219    221     1   108.4600466 328.025600
    221    219    239     1   108.8800464 416.726400
    222    223    224     1   109.8800469 414.216000
    222    223    225     1   109.8800469 414.216000
    222    226    227     1   109.8800469 414.216000
    222    226    228     1   109.8800469 414.216000
    223    232    233     1   109.8000471 387.438400
    223    232    234     1   109.8000471 387.438400
    224    223    232     1   109.5600471 388.275200
    224    223    225     1   108.4600466 328.025600
    225    223    232     1   109.5600471 388.275200
    226    229    230     1   109.8000471 387.438400
    226    229    231     1   109.8000471 387.438400
    227    226    229     1   109.5600471 388.275200
    227    226    228     1   108.4600466 328.025600
    228    226    229     1   109.5600471 388.275200
    230    229    235     1   108.7700466 392.459200
    230    229    231     1   107.5800459 329.699200
    231    229    235     1   108.7700466 392.459200
    233    232    236     1   108.7700466 392.459200
    233    232    234     1   107.5800459 329.699200
    234    232    236     1   108.7700466 392.459200
    235    514    515     1   117.5500507 404.174400
    236    539    540     1   117.5500507 404.174400
    241    244    245     1   109.5600471 388.275200
    241    244    246     1   109.5600471 388.275200
    242    241    244     1   109.5600471 388.275200
    242    241    247     1   109.8800469 414.216000
    242    241    243     1   108.4600466 328.025600
    243    241    244     1   109.5600471 388.275200
    243    241    247     1   109.8800469 414.216000
    244    264    265     1   117.6800502 383.254400
    245    244    264     1   108.8800464 416.726400
    245    244    246     1   108.4600466 328.025600
    246    244    264     1   108.8800464 416.726400
    247    248    249     1   109.8800469 414.216000
    247    248    250     1   109.8800469 414.216000
    247    251    252     1   109.8800469 414.216000
    247    251    253     1   109.8800469 414.216000
    248    257    258     1   109.8000471 387.438400
    248    257    259     1   109.8000471 387.438400
    249    248    257     1   109.5600471 388.275200
    249    248    250     1   108.4600466 328.025600
    250    248    257     1   109.5600471 388.275200
    251    254    255     1   109.8000471 387.438400
    251    254    256     1   109.8000471 387.438400
    252    251    254     1   109.5600471 388.275200
    252    251    253     1   108.4600466 328.025600
    253    251    254     1   109.5600471 388.275200
    255    254    260     1   108.7700466 392.459200
    255    254    256     1   107.5800459 329.699200
    256    254    260     1   108.7700466 392.459200
    258    257    261     1   108.7700466 392.459200
    258    257    259     1   107.5800459 329.699200
    259    257    261     1   108.7700466 392.459200
    260    564    565     1   117.5500507 404.174400
    261    589    590     1   117.5500507 404.174400
    266    269    270     1   109.5600471 388.275200
    266    269    271     1   109.5600471 388.275200
    267    266    269     1   109.5600471 388.275200
    267    266    272     1   109.8800469 414.216000
    267    266    268     1   108.4600466 328.025600
    268    266    269     1   109.5600471 388.275200
    268    266    272     1   109.8800469 414.216000
    269    289    290     1   117.6800502 383.254400
    270    269    289     1   108.8800464 416.726400
    270    269    271     1   108.4600466 328.025600
    271    269    289     1   108.8800464 416.726400
    272    273    274     1   109.8800469 414.216000
    272    273    275     1   109.8800469 414.216000
    272    276    277     1   109.8800469 414.216000
    272    276    278     1   109.8800469 414.216000
    273    282    283     1   109.8000471 387.438400
    273    282    284     1   109.8000471 387.438400
    274    273    282     1   109.5600471 388.275200
    274    273    275     1   108.4600466 328.025600
    275    273    282     1   109.5600471 388.275200
    276    279    280     1   109.8000471 387.438400
    276    279    281     1   109.8000471 387.438400
    277    276    279     1   109.5600471 388.275200
    277    276    278     1   108.4600466 328.025600
    278    276    279     1   109.5600471 388.275200
    280    279    285     1   108.7700466 392.459200
    280    279    281     1   107.5800459 329.699200
    281    279    285     1   108.7700466 392.459200
    283    282    286     1   108.7700466 392.459200
    283    282    284     1   107.5800459 329.699200
    284    282    286     1   108.7700466 392.459200
    285    614    615     1   117.5500507 404.174400
    286    639    640     1   117.5500507 404.174400
    291    294    295     1   109.5600471 388.275200
    291    294    296     1   109.5600471 388.275200
    292    291    294     1   109.5600471 388.275200
    292    291    297     1   109.8800469 414.216000
    292    291    293     1   108.4600466 328.025600
    293    291    294     1   109.5600471 388.275200
    293    291    297     1   109.8800469 414.216000
    294    314    315     1   117.6800502 383.254400
    295    294    314     1   108.8800464 416.726400
    295    294    296     1   108.4600466 328.025600
    296    294    314     1   108.8800464 416.726400
    297    298    299     1   109.8800469 414.216000
    297    298    300     1   109.8800469 414.216000
    297    301    302     1   109.8800469 414.216000
    297    301    303     1   109.8800469 414.216000
    298    307    308     1   109.8000471 387.438400
    298    307    309     1   109.8000471 387.438400
    299    298    307     1   109.5600471 388.275200
    299    298    300     1   108.4600466 328.025600
    300    298    307     1   109.5600471 388.275200
    301    304    305     1   109.8000471 387.438400
    301    304    306     1   109.8000471 387.438400
    302    301    304     1   109.5600471 388.275200
    302    301    303     1   108.4600466 328.025600
    303    301    304     1   109.5600471 388.275200
    305    304    310     1   108.7700466 392.459200
    305    304    306     1   107.5800459 329.699200
    306    304    310     1   108.7700466 392.459200
    308    307    311     1   108.7700466 392.459200
    308    307    309     1   107.5800459 329.699200
    309    307    311     1   108.7700466 392.459200
    310    664    665     1   117.5500507 404.174400
    311    689    690     1   117.5500507 404.174400
    316    319    320     1   109.5600471 388.275200
    316    319    321     1   109.5600471 388.275200
    317    316    319     1   109.5600471 388.275200
    317    316    322     1   109.8800469 414.216000
    317    316    318     1   108.4600466 328.025600
    318    316    319     1   109.5600471 388.275200
    318    316    322     1   109.8800469 414.216000
    319    339    340     1   117.6800502 383.254400
    320    319    339     1   108.8800464 416.726400
    320    319    321     1   108.4600466 328.025600
    321    319    339     1   108.8800464 416.726400
    322    323    324     1   109.8800469 414.216000
    322    323    325     1   109.8800469 414.216000
    322    326    327     1   109.8800469 414.216000
    322    326    328     1   109.8800469 414.216000
    323    332    333     1   109.8000471 387.438400
    323    332    334     1   109.8000471 387.438400
    324    323    332     1   109.5600471 388.275200
    324    323    325     1   108.4600466 328.025600
    325    323    332     1   109.5600471 388.275200
    326    329    330     1   109.8000471 387.438400
    326    329    331     1   109.8000471 387.438400
    327    326    329     1   109.5600471 388.275200
    327    326    328     1   108.4600466 328.025600
    328    326    329     1   109.5600471 388.275200
    330    329    335     1   108.7700466 392.459200
    330    329    331     1   107.5800459 329.699200
    331    329    335     1   108.7700466 392.459200
    333    332    336     1   108.7700466 392.459200
    333    332    334     1   107.5800459 329.699200
    334    332    336     1   108.7700466 392.459200
    335    714    715     1   117.5500507 404.174400
    336    739    740     1   117.5500507 404.174400
    341    344    345     1   109.5600471 388.275200
    341    344    346     1   109.5600471 388.275200
    342    341    344     1   109.5600471 388.275200
    342    341    347     1   109.8800469 414.216000
    342    341    343     1   108.4600466 328.025600
    343    341    344     1   109.5600471 388.275200
    343    341    347     1   109.8800469 414.216000
    344    364    365     1   117.6800502 383.254400
    345    344    364     1   108.8800464 416.726400
    345    344    346     1   108.4600466 328.025600
    346    344    364     1   108.8800464 416.726400
    347    348    349     1   109.8800469 414.216000
    347    348    350     1   109.8800469 414.216000
    347    351    352     1   109.8800469 414.216000
    347    351    353     1   109.8800469 414.216000
    348    357    358     1   109.8000471 387.438400
    348    357    359     1   109.8000471 387.438400
    349    348    357     1   109.5600471 388.275200
    349    348    350     1   108.4600466 328.025600
    350    348    357     1   109.5600471 388.275200
    351    354    355     1   109.8000471 387.438400
    351    354    356     1   109.8000471 387.438400
    352    351    354     1   109.5600471 388.275200
    352    351    353     1   108.4600466 328.025600
    353    351    354     1   109.5600471 388.275200
    355    354    360     1   108.7700466 392.459200
    355    354    356     1   107.5800459 329.699200
    356    354    360     1   108.7700466 392.459200
    358    357    361     1   108.7700466 392.459200
    358    357    359     1   107.5800459 329.699200
    359    357    361     1   108.7700466 392.459200
    360    741    742     1   117.5500507 404.174400
    361    770    771     1   117.5500507 404.174400
    366    369    370     1   109.5600471 388.275200
    366    369    371     1   109.5600471 388.275200
    367    366    369     1   109.5600471 388.275200
    367    366    372     1   109.8800469 414.216000
    367    366    368     1   108.4600466 328.025600
    368    366    369     1   109.5600471 388.275200
    368    366    372     1   109.8800469 414.216000
    369    389    390     1   117.6800502 383.254400
    370    369    389     1   108.8800464 416.726400
    370    369    371     1   108.4600466 328.025600
    371    369    389     1   108.8800464 416.726400
    372    373    374     1   109.8800469 414.216000
    372    373    375     1   109.8800469 414.216000
    372    376    377     1   109.8800469 414.216000
    372    376    378     1   109.8800469 414.216000
    373    382    383     1   109.8000471 387.438400
    373    382    384     1   109.8000471 387.438400
    374    373    382     1   109.5600471 388.275200
    374    373    375     1   108.4600466 328.025600
    375    373    382     1   109.5600471 388.275200
    376    379    380     1   109.8000471 387.438400
    376    379    381     1   109.8000471 387.438400
    377    376    379     1   109.5600471 388.275200
    377    376    378     1   108.4600466 328.025600
    378    376    379     1   109.5600471 388.275200
    380    379    385     1   108.7700466 392.459200
    380    379    381     1   107.5800459 329.699200
    381    379    385     1   108.7700466 392.459200
    383    382    386     1   108.7700466 392.459200
    383    382    384     1   107.5800459 329.699200
    384    382    386     1   108.7700466 392.459200
    385    799    800     1   117.5500507 404.174400
    386    828    829     1   117.5500507 404.174400
    391    394    395     1   109.5600471 388.275200
    391    394    396     1   109.5600471 388.275200
    392    391    394     1   109.5600471 388.275200
    392    391    397     1   109.8800469 414.216000
    392    391    393     1   108.4600466 328.025600
    393    391    394     1   109.5600471 388.275200
    393    391    397     1   109.8800469 414.216000
    394    414    415     1   117.6800502 383.254400
    395    394    414     1   108.8800464 416.726400
    395    394    396     1   108.4600466 328.025600
    396    394    414     1   108.8800464 416.726400
    397    398    399     1   109.8800469 414.216000
    397    398    400     1   109.8800469 414.216000
    397    401    402     1   109.8800469 414.216000
    397    401    403     1   109.8800469 414.216000
    398    407    408     1   109.8000471 387.438400
    398    407    409     1   109.8000471 387.438400
    399    398    407     1   109.5600471 388.275200
    399    398    400     1   108.4600466 328.025600
    400    398    407     1   109.5600471 388.275200
    401    404    405     1   109.8000471 387.438400
    401    404    406     1   109.8000471 387.438400
    402    401    404     1   109.5600471 388.275200
    402    401    403     1   108.4600466 328.025600
    403    401    404     1   109.5600471 388.275200
    405    404    410     1   108.7700466 392.459200
    405    404    406     1   107.5800459 329.699200
    406    404    410     1   108.7700466 392.459200
    408    407    411     1   108.7700466 392.459200
    408    407    409     1   107.5800459 329.699200
    409    407    411     1   108.7700466 392.459200
    410    857    858     1   117.5500507 404.174400
    411    886    887     1   117.5500507 404.174400
    416    419    420     1   109.5600471 388.275200
    416    419    421     1   109.5600471 388.275200
    417    416    419     1   109.5600471 388.275200
    417    416    422     1   109.8800469 414.216000
    417    416    418     1   108.4600466 328.025600
    418    416    419     1   109.5600471 388.275200
    418    416    422     1   109.8800469 414.216000
    419    439    440     1   117.6800502 383.254400
    420    419    439     1   108.8800464 416.726400
    420    419    421     1   108.4600466 328.025600
    421    419    439     1   108.8800464 416.726400
    422    423    424     1   109.8800469 414.216000
    422    423    425     1   109.8800469 414.216000
    422    426    427     1   109.8800469 414.216000
    422    426    428     1   109.8800469 414.216000
    423    432    433     1   109.8000471 387.438400
    423    432    434     1   109.8000471 387.438400
    424    423    432     1   109.5600471 388.275200
    424    423    425     1   108.4600466 328.025600
    425    423    432     1   109.5600471 388.275200
    426    429    430     1   109.8000471 387.438400
    426    429    431     1   109.8000471 387.438400
    427    426    429     1   109.5600471 388.275200
    427    426    428     1   108.4600466 328.025600
    428    426    429     1   109.5600471 388.275200
    430    429    435     1   108.7700466 392.459200
    430    429    431     1   107.5800459 329.699200
    431    429    435     1   108.7700466 392.459200
    433    432    436     1   108.7700466 392.459200
    433    432    434     1   107.5800459 329.699200
    434    432    436     1   108.7700466 392.459200
    435    915    916     1   117.5500507 404.174400
    436    944    945     1   117.5500507 404.174400
    441    444    445     1   109.5600471 388.275200
    441    444    446     1   109.5600471 388.275200
    442    441    444     1   109.5600471 388.275200
    442    441    447     1   109.8800469 414.216000
    442    441    443     1   108.4600466 328.025600
    443    441    444     1   109.5600471 388.275200
    443    441    447     1   109.8800469 414.216000
    444    464    465     1   117.6800502 383.254400
    445    444    464     1   108.8800464 416.726400
    445    444    446     1   108.4600466 328.025600
    446    444    464     1   108.8800464 416.726400
    447    448    449     1   109.8800469 414.216000
    447    448    450     1   109.8800469 414.216000
    447    451    452     1   109.8800469 414.216000
    447    451    453     1   109.8800469 414.216000
    448    457    458     1   109.8000471 387.438400
    448    457    459     1   109.8000471 387.438400
    449    448    457     1   109.5600471 388.275200
    449    448    450     1   108.4600466 328.025600
    450    448    457     1   109.5600471 388.275200
    451    454    455     1   109.8000471 387.438400
    451    454    456     1   109.8000471 387.438400
    452    451    454     1   109.5600471 388.275200
    452    451    453     1   108.4600466 328.025600
    453    451    454     1   109.5600471 388.275200
    455    454    460     1   108.7700466 392.459200
    455    454    456     1   107.5800459 329.699200
    456    454    460     1   108.7700466 392.459200
    458    457    461     1   108.7700466 392.459200
    458    457    459     1   107.5800459 329.699200
    459    457    461     1   108.7700466 392.459200
    460    973    974     1   117.5500507 404.174400
    461   1002   1003     1   117.5500507 404.174400
    466    469    470     1   109.5600471 388.275200
    466    469    471     1   109.5600471 388.275200
    467    466    469     1   109.5600471 388.275200
    467    466    472     1   109.8800469 414.216000
    467    466    468     1   108.4600466 328.025600
    468    466    469     1   109.5600471 388.275200
    468    466    472     1   109.8800469 414.216000
    469    489    490     1   117.6800502 383.254400
    470    469    489     1   108.8800464 416.726400
    470    469    471     1   108.4600466 328.025600
    471    469    489     1   108.8800464 416.726400
    472    473    474     1   109.8800469 414.216000
    472    473    475     1   109.8800469 414.216000
    472    476    477     1   109.8800469 414.216000
    472    476    478     1   109.8800469 414.216000
    473    482    483     1   109.8000471 387.438400
    473    482    484     1   109.8000471 387.438400
    474    473    482     1   109.5600471 388.275200
    474    473    475     1   108.4600466 328.025600
    475    473    482     1   109.5600471 388.275200
    476    479    480     1   109.8000471 387.438400
    476    479    481     1   109.8000471 387.438400
    477    476    479     1   109.5600471 388.275200
    477    476    478     1   108.4600466 328.025600
    478    476    479     1   109.5600471 388.275200
    480    479    485     1   108.7700466 392.459200
    480    479    481     1   107.5800459 329.699200
    481    479    485     1   108.7700466 392.459200
    483    482    486     1   108.7700466 392.459200
    483    482    484     1   107.5800459 329.699200
    484    482    486     1   108.7700466 392.459200
    485   1031   1032     1   117.5500507 404.174400
    486   1060   1061     1   117.5500507 404.174400
    491    494    495     1   109.5600471 388.275200
    491    494    496     1   109.5600471 388.275200
    492    491    494     1   109.5600471 388.275200
    492    491    497     1   109.8800469 414.216000
    492    491    493     1   108.4600466 328.025600
    493    491    494     1   109.5600471 388.275200
    493    491    497     1   109.8800469 414.216000
    494    514    515     1   117.6800502 383.254400
    495    494    514     1   108.8800464 416.726400
    495    494    496     1   108.4600466 328.025600
    496    494    514     1   108.8800464 416.726400
    497    498    499     1   109.8800469 414.216000
    497    498    500     1   109.8800469 414.216000
    497    501    502     1   109.8800469 414.216000
    497    501    503     1   109.8800469 414.216000
    498    507    508     1   109.8000471 387.438400
    498    507    509     1   109.8000471 387.438400
    499    498    507     1   109.5600471 388.275200
    499    498    500     1   108.4600466 328.025600
    500    498    507     1   109.5600471 388.275200
    501    504    505     1   109.8000471 387.438400
    501    504    506     1   109.8000471 387.438400
    502    501    504     1   109.5600471 388.275200
    502    501    503     1   108.4600466 328.025600
    503    501    504     1   109.5600471 388.275200
    505    504    510     1   108.7700466 392.459200
    505    504    506     1   107.5800459 329.699200
    506    504    510     1   108.7700466 392.459200
    508    507    511     1   108.7700466 392.459200
    508    507    509     1   107.5800459 329.699200
    509    507    511     1   108.7700466 392.459200
    510   1089   1090     1   117.5500507 404.174400
    511   1118   1119     1   117.5500507 404.174400
    516    519    520     1   109.5600471 388.275200
    516    519    521     1   109.5600471 388.275200
    517    516    519     1   109.5600471 388.275200
    517    516    522     1   109.8800469 414.216000
    517    516    518     1   108.4600466 328.025600
    518    516    519     1   109.5600471 388.275200
    518    516    522     1   109.8800469 414.216000
    519    539    540     1   117.6800502 383.254400
    520    519    539     1   108.8800464 416.726400
    520    519    521     1   108.4600466 328.025600
    521    519    539     1   108.8800464 416.726400
    522    523    524     1   109.8800469 414.216000
    522    523    525     1   109.8800469 414.216000
    522    526    527     1   109.8800469 414.216000
    522    526    528     1   109.8800469 414.216000
    523    532    533     1   109.8000471 387.438400
    523    532    534     1   109.8000471 387.438400
    524    523    532     1   109.5600471 388.275200
    524    523    525     1   108.4600466 328.025600
    525    523    532     1   109.5600471 388.275200
    526    529    530     1   109.8000471 387.438400
    526    529    531     1   109.8000471 387.438400
    527    526    529     1   109.5600471 388.275200
    527    526    528     1   108.4600466 328.025600
    528    526    529     1   109.5600471 388.275200
    530    529    535     1   108.7700466 392.459200
    530    529    531     1   107.5800459 329.699200
    531    529    535     1   108.7700466 392.459200
    533    532    536     1   108.7700466 392.459200
    533    532    534     1   107.5800459 329.699200
    534    532    536     1   108.7700466 392.459200
    535   1147   1148     1   117.5500507 404.174400
    536   1176   1177     1   117.5500507 404.174400
    541    544    545     1   109.5600471 388.275200
    541    544    546     1   109.5600471 388.275200
    542    541    544     1   109.5600471 388.275200
    542    541    547     1   109.8800469 414.216000
    542    541    543     1   108.4600466 328.025600
    543    541    544     1   109.5600471 388.275200
    543    541    547     1   109.8800469 414.216000
    544    564    565     1   117.6800502 383.254400
    545    544    564     1   108.8800464 416.726400
    545    544    546     1   108.4600466 328.025600
    546    544    564     1   108.8800464 416.726400
    547    548    549     1   109.8800469 414.216000
    547    548    550     1   109.8800469 414.216000
    547    551    552     1   109.8800469 414.216000
    547    551    553     1   109.8800469 414.216000
    548    557    558     1   109.8000471 387.438400
    548    557    559     1   109.8000471 387.438400
    549    548    557     1   109.5600471 388.275200
    549    548    550     1   108.4600466 328.025600
    550    548    557     1   109.5600471 388.275200
    551    554    555     1   109.8000471 387.438400
    551    554    556     1   109.8000471 387.438400
    552    551    554     1   109.5600471 388.275200
    552    551    553     1   108.4600466 328.025600
    553    551    554     1   109.5600471 388.275200
    555    554    560     1   108.7700466 392.459200
    555    554    556     1   107.5800459 329.699200
    556    554    560     1   108.7700466 392.459200
    558    557    561     1   108.7700466 392.459200
    558    557    559     1   107.5800459 329.699200
    559    557    561     1   108.7700466 392.459200
    560   1205   1206     1   117.5500507 404.174400
    561   1234   1235     1   117.5500507 404.174400
    566    569    570     1   109.5600471 388.275200
    566    569    571     1   109.5600471 388.275200
    567    566    569     1   109.5600471 388.275200
    567    566    572     1   109.8800469 414.216000
    567    566    568     1   108.4600466 328.025600
    568    566    569     1   109.5600471 388.275200
    568    566    572     1   109.8800469 414.216000
    569    589    590     1   117.6800502 383.254400
    570    569    589     1   108.8800464 416.726400
    570    569    571     1   108.4600466 328.025600
    571    569    589     1   108.8800464 416.726400
    572    573    574     1   109.8800469 414.216000
    572    573    575     1   109.8800469 414.216000
    572    576    577     1   109.8800469 414.216000
    572    576    578     1   109.8800469 414.216000
    573    582    583     1   109.8000471 387.438400
    573    582    584     1   109.8000471 387.438400
    574    573    582     1   109.5600471 388.275200
    574    573    575     1   108.4600466 328.025600
    575    573    582     1   109.5600471 388.275200
    576    579    580     1   109.8000471 387.438400
    576    579    581     1   109.8000471 387.438400
    577    576    579     1   109.5600471 388.275200
    577    576    578     1   108.4600466 328.025600
    578    576    579     1   109.5600471 388.275200
    580    579    585     1   108.7700466 392.459200
    580    579    581     1   107.5800459 329.699200
    581    579    585     1   108.7700466 392.459200
    583    582    586     1   108.7700466 392.459200
    583    582    584     1   107.5800459 329.699200
    584    582    586     1   108.7700466 392.459200
    585   1263   1264     1   117.5500507 404.174400
    586   1292   1293     1   117.5500507 404.174400
    591    594    595     1   109.5600471 388.275200
    591    594    596     1   109.5600471 388.275200
    592    591    594     1   109.5600471 388.275200
    592    591    597     1   109.8800469 414.216000
    592    591    593     1   108.4600466 328.025600
    593    591    594     1   109.5600471 388.275200
    593    591    597     1   109.8800469 414.216000
    594    614    615     1   117.6800502 383.254400
    595    594    614     1   108.8800464 416.726400
    595    594    596     1   108.4600466 328.025600
    596    594    614     1   108.8800464 416.726400
    597    598    599     1   109.8800469 414.216000
    597    598    600     1   109.8800469 414.216000
    597    601    602     1   109.8800469 414.216000
    597    601    603     1   109.8800469 414.216000
    598    607    608     1   109.8000471 387.438400
    598    607    609     1   109.8000471 387.438400
    599    598    607     1   109.5600471 388.275200
    599    598    600     1   108.4600466 328.025600
    600    598    607     1   109.5600471 388.275200
    601    604    605     1   109.8000471 387.438400
    601    604    606     1   109.8000471 387.438400
    602    601    604     1   109.5600471 388.275200
    602    601    603     1   108.4600466 328.025600
    603    601    604     1   109.5600471 388.275200
    605    604    610     1   108.7700466 392.459200
    605    604    606     1   107.5800459 329.699200
    606    604    610     1   108.7700466 392.459200
    608    607    611     1   108.7700466 392.459200
    608    607    609     1   107.5800459 329.699200
    609    607    611     1   108.7700466 392.459200
    610   1321   1322     1   117.5500507 404.174400
    611   1350   1351     1   117.5500507 404.174400
    616    619    620     1   109.5600471 388.275200
    616    619    621     1   109.5600471 388.275200
    617    616    619     1   109.5600471 388.275200
    617    616    622     1   109.8800469 414.216000
    617    616    618     1   108.4600466 328.025600
    618    616    619     1   109.5600471 388.275200
    618    616    622     1   109.8800469 414.216000
    619    639    640     1   117.6800502 383.254400
    620    619    639     1   108.8800464 416.726400
    620    619    621     1   108.4600466 328.025600
    621    619    639     1   108.8800464 416.726400
    622    623    624     1   109.8800469 414.216000
    622    623    625     1   109.8800469 414.216000
    622    626    627     1   109.8800469 414.216000
    622    626    628     1   109.8800469 414.216000
    623    632    633     1   109.8000471 387.438400
    623    632    634     1   109.8000471 387.438400
    624    623    632     1   109.5600471 388.275200
    624    623    625     1   108.4600466 328.025600
    625    623    632     1   109.5600471 388.275200
    626    629    630     1   109.8000471 387.438400
    626    629    631     1   109.8000471 387.438400
    627    626    629     1   109.5600471 388.275200
    627    626    628     1   108.4600466 328.025600
    628    626    629     1   109.5600471 388.275200
    630    629    635     1   108.7700466 392.459200
    630    629    631     1   107.5800459 329.699200
    631    629    635     1   108.7700466 392.459200
    633    632    636     1   108.7700466 392.459200
    633    632    634     1   107.5800459 329.699200
    634    632    636     1   108.7700466 392.459200
    635   1379   1380     1   117.5500507 404.174400
    636   1408   1409     1   117.5500507 404.174400
    641    644    645     1   109.5600471 388.275200
    641    644    646     1   109.5600471 388.275200
    642    641    644     1   109.5600471 388.275200
    642    641    647     1   109.8800469 414.216000
    642    641    643     1   108.4600466 328.025600
    643    641    644     1   109.5600471 388.275200
    643    641    647     1   109.8800469 414.216000
    644    664    665     1   117.6800502 383.254400
    645    644    664     1   108.8800464 416.726400
    645    644    646     1   108.4600466 328.025600
    646    644    664     1   108.8800464 416.726400
    647    648    649     1   109.8800469 414.216000
    647    648    650     1   109.8800469 414.216000
    647    651    652     1   109.8800469 414.216000
    647    651    653     1   109.8800469 414.216000
    648    657    658     1   109.8000471 387.438400
    648    657    659     1   109.8000471 387.438400
    649    648    657     1   109.5600471 388.275200
    649    648    650     1   108.4600466 328.025600
    650    648    657     1   109.5600471 388.275200
    651    654    655     1   109.8000471 387.438400
    651    654    656     1   109.8000471 387.438400
    652    651    654     1   109.5600471 388.275200
    652    651    653     1   108.4600466 328.025600
    653    651    654     1   109.5600471 388.275200
    655    654    660     1   108.7700466 392.459200
    655    654    656     1   107.5800459 329.699200
    656    654    660     1   108.7700466 392.459200
    658    657    661     1   108.7700466 392.459200
    658    657    659     1   107.5800459 329.699200
    659    657    661     1   108.7700466 392.459200
    660   1437   1438     1   117.5500507 404.174400
    661   1466   1467     1   117.5500507 404.174400
    666    669    670     1   109.5600471 388.275200
    666    669    671     1   109.5600471 388.275200
    667    666    669     1   109.5600471 388.275200
    667    666    672     1   109.8800469 414.216000
    667    666    668     1   108.4600466 328.025600
    668    666    669     1   109.5600471 388.275200
    668    666    672     1   109.8800469 414.216000
    669    689    690     1   117.6800502 383.254400
    670    669    689     1   108.8800464 416.726400
    670    669    671     1   108.4600466 328.025600
    671    669    689     1   108.8800464 416.726400
    672    673    674     1   109.8800469 414.216000
    672    673    675     1   109.8800469 414.216000
    672    676    677     1   109.8800469 414.216000
    672    676    678     1   109.8800469 414.216000
    673    682    683     1   109.8000471 387.438400
    673    682    684     1   109.8000471 387.438400
    674    673    682     1   109.5600471 388.275200
    674    673    675     1   108.4600466 328.025600
    675    673    682     1   109.5600471 388.275200
    676    679    680     1   109.8000471 387.438400
    676    679    681     1   109.8000471 387.438400
    677    676    679     1   109.5600471 388.275200
    677    676    678     1   108.4600466 328.025600
    678    676    679     1   109.5600471 388.275200
    680    679    685     1   108.7700466 392.459200
    680    679    681     1   107.5800459 329.699200
    681    679    685     1   108.7700466 392.459200
    683    682    686     1   108.7700466 392.459200
    683    682    684     1   107.5800459 329.699200
    684    682    686     1   108.7700466 392.459200
    685   1495   1496     1   117.5500507 404.174400
    686   1524   1525     1   117.5500507 404.174400
    691    694    695     1   109.5600471 388.275200
    691    694    696     1   109.5600471 388.275200
    692    691    694     1   109.5600471 388.275200
    692    691    697     1   109.8800469 414.216000
    692    691    693     1   108.4600466 328.025600
    693    691    694     1   109.5600471 388.275200
    693    691    697     1   109.8800469 414.216000
    694    714    715     1   117.6800502 383.254400
    695    694    714     1   108.8800464 416.726400
    695    694    696     1   108.4600466 328.025600
    696    694    714     1   108.8800464 416.726400
    697    698    699     1   109.8800469 414.216000
    697    698    700     1   109.8800469 414.216000
    697    701    702     1   109.8800469 414.216000
    697    701    703     1   109.8800469 414.216000
    698    707    708     1   109.8000471 387.438400
    698    707    709     1   109.8000471 387.438400
    699    698    707     1   109.5600471 388.275200
    699    698    700     1   108.4600466 328.025600
    700    698    707     1   109.5600471 388.275200
    701    704    705     1   109.8000471 387.438400
    701    704    706     1   109.8000471 387.438400
    702    701    704     1   109.5600471 388.275200
    702    701    703     1   108.4600466 328.025600
    703    701    704     1   109.5600471 388.275200
    705    704    710     1   108.7700466 392.459200
    705    704    706     1   107.5800459 329.699200
    706    704    710     1   108.7700466 392.459200
    708    707    711     1   108.7700466 392.459200
    708    707    709     1   107.5800459 329.699200
    709    707    711     1   108.7700466 392.459200
    710   1553   1554     1   117.5500507 404.174400
    711   1582   1583     1   117.5500507 404.174400
    716    719    720     1   109.5600471 388.275200
    716    719    721     1   109.5600471 388.275200
    717    716    719     1   109.5600471 388.275200
    717    716    722     1   109.8800469 414.216000
    717    716    718     1   108.4600466 328.025600
    718    716    719     1   109.5600471 388.275200
    718    716    722     1   109.8800469 414.216000
    719    739    740     1   117.6800502 383.254400
    720    719    739     1   108.8800464 416.726400
    720    719    721     1   108.4600466 328.025600
    721    719    739     1   108.8800464 416.726400
    722    723    724     1   109.8800469 414.216000
    722    723    725     1   109.8800469 414.216000
    722    726    727     1   109.8800469 414.216000
    722    726    728     1   109.8800469 414.216000
    723    732    733     1   109.8000471 387.438400
    723    732    734     1   109.8000471 387.438400
    724    723    732     1   109.5600471 388.275200
    724    723    725     1   108.4600466 328.025600
    725    723    732     1   109.5600471 388.275200
    726    729    730     1   109.8000471 387.438400
    726    729    731     1   109.8000471 387.438400
    727    726    729     1   109.5600471 388.275200
    727    726    728     1   108.4600466 328.025600
    728    726    729     1   109.5600471 388.275200
    730    729    735     1   108.7700466 392.459200
    730    729    731     1   107.5800459 329.699200
    731    729    735     1   108.7700466 392.459200
    733    732    736     1   108.7700466 392.459200
    733    732    734     1   107.5800459 329.699200
    734    732    736     1   108.7700466 392.459200
    735   1611   1612     1   117.5500507 404.174400
    736   1640   1641     1   117.5500507 404.174400
    741    743    744     1   108.8800464 416.726400
    741    743    746     1   108.8800464 416.726400
    742    741    743     1   117.6800502 383.254400
    743    745    747     1   109.5600471 388.275200
    743    745    748     1   109.5600471 388.275200
    744    743    745     1   109.5600471 388.275200
    744    743    746     1   108.4600466 328.025600
    745    743    746     1   109.5600471 388.275200
    747    745    749     1   109.8800469 414.216000
    747    745    748     1   108.4600466 328.025600
    748    745    749     1   109.8800469 414.216000
    749    750    760     1   109.8800469 414.216000
    749    750    761     1   109.8800469 414.216000
    749    751    752     1   109.8800469 414.216000
    749    751    754     1   109.8800469 414.216000
    750    762    763     1   109.8000471 387.438400
    750    762    764     1   109.8000471 387.438400
    751    753    755     1   109.8000471 387.438400
    751    753    756     1   109.8000471 387.438400
    752    751    753     1   109.5600471 388.275200
    752    751    754     1   108.4600466 328.025600
    753    751    754     1   109.5600471 388.275200
    755    753    757     1   108.7700466 392.459200
    755    753    756     1   107.5800459 329.699200
    756    753    757     1   108.7700466 392.459200
    757    758    768     1   106.5500460 417.563200
    760    750    762     1   109.5600471 388.275200
    760    750    761     1   108.4600466 328.025600
    761    750    762     1   109.5600471 388.275200
    763    762    765     1   108.7700466 392.459200
    763    762    764     1   107.5800459 329.699200
    764    762    765     1   108.7700466 392.459200
    765    767    769     1   106.5500460 417.563200
    770    772    773     1   108.8800464 416.726400
    770    772    775     1   108.8800464 416.726400
    771    770    772     1   117.6800502 383.254400
    772    774    776     1   109.5600471 388.275200
    772    774    777     1   109.5600471 388.275200
    773    772    774     1   109.5600471 388.275200
    773    772    775     1   108.4600466 328.025600
    774    772    775     1   109.5600471 388.275200
    776    774    778     1   109.8800469 414.216000
    776    774    777     1   108.4600466 328.025600
    777    774    778     1   109.8800469 414.216000
    778    779    789     1   109.8800469 414.216000
    778    779    790     1   109.8800469 414.216000
    778    780    781     1   109.8800469 414.216000
    778    780    783     1   109.8800469 414.216000
    779    791    792     1   109.8000471 387.438400
    779    791    793     1   109.8000471 387.438400
    780    782    784     1   109.8000471 387.438400
    780    782    785     1   109.8000471 387.438400
    781    780    782     1   109.5600471 388.275200
    781    780    783     1   108.4600466 328.025600
    782    780    783     1   109.5600471 388.275200
    784    782    786     1   108.7700466 392.459200
    784    782    785     1   107.5800459 329.699200
    785    782    786     1   108.7700466 392.459200
    786    787    797     1   106.5500460 417.563200
    789    779    791     1   109.5600471 388.275200
    789    779    790     1   108.4600466 328.025600
    790    779    791     1   109.5600471 388.275200
    792    791    794     1   108.7700466 392.459200
    792    791    793     1   107.5800459 329.699200
    793    791    794     1   108.7700466 392.459200
    794    796    798     1   106.5500460 417.563200
    799    801    802     1   108.8800464 416.726400
    799    801    804     1   108.8800464 416.726400
    800    799    801     1   117.6800502 383.254400
    801    803    805     1   109.5600471 388.275200
    801    803    806     1   109.5600471 388.275200
    802    801    803     1   109.5600471 388.275200
    802    801    804     1   108.4600466 328.025600
    803    801    804     1   109.5600471 388.275200
    805    803    807     1   109.8800469 414.216000
    805    803    806     1   108.4600466 328.025600
    806    803    807     1   109.8800469 414.216000
    807    808    818     1   109.8800469 414.216000
    807    808    819     1   109.8800469 414.216000
    807    809    810     1   109.8800469 414.216000
    807    809    812     1   109.8800469 414.216000
    808    820    821     1   109.8000471 387.438400
    808    820    822     1   109.8000471 387.438400
    809    811    813     1   109.8000471 387.438400
    809    811    814     1   109.8000471 387.438400
    810    809    811     1   109.5600471 388.275200
    810    809    812     1   108.4600466 328.025600
    811    809    812     1   109.5600471 388.275200
    813    811    815     1   108.7700466 392.459200
    813    811    814     1   107.5800459 329.699200
    814    811    815     1   108.7700466 392.459200
    815    816    826     1   106.5500460 417.563200
    818    808    820     1   109.5600471 388.275200
    818    808    819     1   108.4600466 328.025600
    819    808    820     1   109.5600471 388.275200
    821    820    823     1   108.7700466 392.459200
    821    820    822     1   107.5800459 329.699200
    822    820    823     1   108.7700466 392.459200
    823    825    827     1   106.5500460 417.563200
    828    830    831     1   108.8800464 416.726400
    828    830    833     1   108.8800464 416.726400
    829    828    830     1   117.6800502 383.254400
    830    832    834     1   109.5600471 388.275200
    830    832    835     1   109.5600471 388.275200
    831    830    832     1   109.5600471 388.275200
    831    830    833     1   108.4600466 328.025600
    832    830    833     1   109.5600471 388.275200
    834    832    836     1   109.8800469 414.216000
    834    832    835     1   108.4600466 328.025600
    835    832    836     1   109.8800469 414.216000
    836    837    847     1   109.8800469 414.216000
    836    837    848     1   109.8800469 414.216000
    836    838    839     1   109.8800469 414.216000
    836    838    841     1   109.8800469 414.216000
    837    849    850     1   109.8000471 387.438400
    837    849    851     1   109.8000471 387.438400
    838    840    842     1   109.8000471 387.438400
    838    840    843     1   109.8000471 387.438400
    839    838    840     1   109.5600471 388.275200
    839    838    841     1   108.4600466 328.025600
    840    838    841     1   109.5600471 388.275200
    842    840    844     1   108.7700466 392.459200
    842    840    843     1   107.5800459 329.699200
    843    840    844     1   108.7700466 392.459200
    844    845    855     1   106.5500460 417.563200
    847    837    849     1   109.5600471 388.275200
    847    837    848     1   108.4600466 328.025600
    848    837    849     1   109.5600471 388.275200
    850    849    852     1   108.7700466 392.459200
    850    849    851     1   107.5800459 329.699200
    851    849    852     1   108.7700466 392.459200
    852    854    856     1   106.5500460 417.563200
    857    859    860     1   108.8800464 416.726400
    857    859    862     1   108.8800464 416.726400
    858    857    859     1   117.6800502 383.254400
    859    861    863     1   109.5600471 388.275200
    859    861    864     1   109.5600471 388.275200
    860    859    861     1   109.5600471 388.275200
    860    859    862     1   108.4600466 328.025600
    861    859    862     1   109.5600471 388.275200
    863    861    865     1   109.8800469 414.216000
    863    861    864     1   108.4600466 328.025600
    864    861    865     1   109.8800469 414.216000
    865    866    876     1   109.8800469 414.216000
    865    866    877     1   109.8800469 414.216000
    865    867    868     1   109.8800469 414.216000
    865    867    870     1   109.8800469 414.216000
    866    878    879     1   109.8000471 387.438400
    866    878    880     1   109.8000471 387.438400
    867    869    871     1   109.8000471 387.438400
    867    869    872     1   109.8000471 387.438400
    868    867    869     1   109.5600471 388.275200
    868    867    870     1   108.4600466 328.025600
    869    867    870     1   109.5600471 388.275200
    871    869    873     1   108.7700466 392.459200
    871    869    872     1   107.5800459 329.699200
    872    869    873     1   108.7700466 392.459200
    873    874    884     1   106.5500460 417.563200
    876    866    878     1   109.5600471 388.275200
    876    866    877     1   108.4600466 328.025600
    877    866    878     1   109.5600471 388.275200
    879    878    881     1   108.7700466 392.459200
    879    878    880     1   107.5800459 329.699200
    880    878    881     1   108.7700466 392.459200
    881    883    885     1   106.5500460 417.563200
    886    888    889     1   108.8800464 416.726400
    886    888    891     1   108.8800464 416.726400
    887    886    888     1   117.6800502 383.254400
    888    890    892     1   109.5600471 388.275200
    888    890    893     1   109.5600471 388.275200
    889    888    890     1   109.5600471 388.275200
    889    888    891     1   108.4600466 328.025600
    890    888    891     1   109.5600471 388.275200
    892    890    894     1   109.8800469 414.216000
    892    890    893     1   108.4600466 328.025600
    893    890    894     1   109.8800469 414.216000
    894    895    905     1   109.8800469 414.216000
    894    895    906     1   109.8800469 414.216000
    894    896    897     1   109.8800469 414.216000
    894    896    899     1   109.8800469 414.216000
    895    907    908     1   109.8000471 387.438400
    895    907    909     1   109.8000471 387.438400
    896    898    900     1   109.8000471 387.438400
    896    898    901     1   109.8000471 387.438400
    897    896    898     1   109.5600471 388.275200
    897    896    899     1   108.4600466 328.025600
    898    896    899     1   109.5600471 388.275200
    900    898    902     1   108.7700466 392.459200
    900    898    901     1   107.5800459 329.699200
    901    898    902     1   108.7700466 392.459200
    902    903    913     1   106.5500460 417.563200
    905    895    907     1   109.5600471 388.275200
    905    895    906     1   108.4600466 328.025600
    906    895    907     1   109.5600471 388.275200
    908    907    910     1   108.7700466 392.459200
    908    907    909     1   107.5800459 329.699200
    909    907    910     1   108.7700466 392.459200
    910    912    914     1   106.5500460 417.563200
    915    917    918     1   108.8800464 416.726400
    915    917    920     1   108.8800464 416.726400
    916    915    917     1   117.6800502 383.254400
    917    919    921     1   109.5600471 388.275200
    917    919    922     1   109.5600471 388.275200
    918    917    919     1   109.5600471 388.275200
    918    917    920     1   108.4600466 328.025600
    919    917    920     1   109.5600471 388.275200
    921    919    923     1   109.8800469 414.216000
    921    919    922     1   108.4600466 328.025600
    922    919    923     1   109.8800469 414.216000
    923    924    934     1   109.8800469 414.216000
    923    924    935     1   109.8800469 414.216000
    923    925    926     1   109.8800469 414.216000
    923    925    928     1   109.8800469 414.216000
    924    936    937     1   109.8000471 387.438400
    924    936    938     1   109.8000471 387.438400
    925    927    929     1   109.8000471 387.438400
    925    927    930     1   109.8000471 387.438400
    926    925    927     1   109.5600471 388.275200
    926    925    928     1   108.4600466 328.025600
    927    925    928     1   109.5600471 388.275200
    929    927    931     1   108.7700466 392.459200
    929    927    930     1   107.5800459 329.699200
    930    927    931     1   108.7700466 392.459200
    931    932    942     1   106.5500460 417.563200
    934    924    936     1   109.5600471 388.275200
    934    924    935     1   108.4600466 328.025600
    935    924    936     1   109.5600471 388.275200
    937    936    939     1   108.7700466 392.459200
    937    936    938     1   107.5800459 329.699200
    938    936    939     1   108.7700466 392.459200
    939    941    943     1   106.5500460 417.563200
    944    946    947     1   108.8800464 416.726400
    944    946    949     1   108.8800464 416.726400
    945    944    946     1   117.6800502 383.254400
    946    948    950     1   109.5600471 388.275200
    946    948    951     1   109.5600471 388.275200
    947    946    948     1   109.5600471 388.275200
    947    946    949     1   108.4600466 328.025600
    948    946    949     1   109.5600471 388.275200
    950    948    952     1   109.8800469 414.216000
    950    948    951     1   108.4600466 328.025600
    951    948    952     1   109.8800469 414.216000
    952    953    963     1   109.8800469 414.216000
    952    953    964     1   109.8800469 414.216000
    952    954    955     1   109.8800469 414.216000
    952    954    957     1   109.8800469 414.216000
    953    965    966     1   109.8000471 387.438400
    953    965    967     1   109.8000471 387.438400
    954    956    958     1   109.8000471 387.438400
    954    956    959     1   109.8000471 387.438400
    955    954    956     1   109.5600471 388.275200
    955    954    957     1   108.4600466 328.025600
    956    954    957     1   109.5600471 388.275200
    958    956    960     1   108.7700466 392.459200
    958    956    959     1   107.5800459 329.699200
    959    956    960     1   108.7700466 392.459200
    960    961    971     1   106.5500460 417.563200
    963    953    965     1   109.5600471 388.275200
    963    953    964     1   108.4600466 328.025600
    964    953    965     1   109.5600471 388.275200
    966    965    968     1   108.7700466 392.459200
    966    965    967     1   107.5800459 329.699200
    967    965    968     1   108.7700466 392.459200
    968    970    972     1   106.5500460 417.563200
    973    975    976     1   108.8800464 416.726400
    973    975    978     1   108.8800464 416.726400
    974    973    975     1   117.6800502 383.254400
    975    977    979     1   109.5600471 388.275200
    975    977    980     1   109.5600471 388.275200
    976    975    977     1   109.5600471 388.275200
    976    975    978     1   108.4600466 328.025600
    977    975    978     1   109.5600471 388.275200
    979    977    981     1   109.8800469 414.216000
    979    977    980     1   108.4600466 328.025600
    980    977    981     1   109.8800469 414.216000
    981    982    992     1   109.8800469 414.216000
    981    982    993     1   109.8800469 414.216000
    981    983    984     1   109.8800469 414.216000
    981    983    986     1   109.8800469 414.216000
    982    994    995     1   109.8000471 387.438400
    982    994    996     1   109.8000471 387.438400
    983    985    987     1   109.8000471 387.438400
    983    985    988     1   109.8000471 387.438400
    984    983    985     1   109.5600471 388.275200
    984    983    986     1   108.4600466 328.025600
    985    983    986     1   109.5600471 388.275200
    987    985    989     1   108.7700466 392.459200
    987    985    988     1   107.5800459 329.699200
    988    985    989     1   108.7700466 392.459200
    989    990   1000     1   106.5500460 417.563200
    992    982    994     1   109.5600471 388.275200
    992    982    993     1   108.4600466 328.025600
    993    982    994     1   109.5600471 388.275200
    995    994    997     1   108.7700466 392.459200
    995    994    996     1   107.5800459 329.699200
    996    994    997     1   108.7700466 392.459200
    997    999   1001     1   106.5500460 417.563200
   1002   1004   1005     1   108.8800464 416.726400
   1002   1004   1007     1   108.8800464 416.726400
   1003   1002   1004     1   117.6800502 383.254400
   1004   1006   1008     1   109.5600471 388.275200
   1004   1006   1009     1   109.5600471 388.275200
   1005   1004   1006     1   109.5600471 388.275200
   1005   1004   1007     1   108.4600466 328.025600
   1006   1004   1007     1   109.5600471 388.275200
   1008   1006   1010     1   109.8800469 414.216000
   1008   1006   1009     1   108.4600466 328.025600
   1009   1006   1010     1   109.8800469 414.216000
   1010   1011   1021     1   109.8800469 414.216000
   1010   1011   1022     1   109.8800469 414.216000
   1010   1012   1013     1   109.8800469 414.216000
   1010   1012   1015     1   109.8800469 414.216000
   1011   1023   1024     1   109.8000471 387.438400
   1011   1023   1025     1   109.8000471 387.438400
   1012   1014   1016     1   109.8000471 387.438400
   1012   1014   1017     1   109.8000471 387.438400
   1013   1012   1014     1   109.5600471 388.275200
   1013   1012   1015     1   108.4600466 328.025600
   1014   1012   1015     1   109.5600471 388.275200
   1016   1014   1018     1   108.7700466 392.459200
   1016   1014   1017     1   107.5800459 329.699200
   1017   1014   1018     1   108.7700466 392.459200
   1018   1019   1029     1   106.5500460 417.563200
   1021   1011   1023     1   109.5600471 388.275200
   1021   1011   1022     1   108.4600466 328.025600
   1022   1011   1023     1   109.5600471 388.275200
   1024   1023   1026     1   108.7700466 392.459200
   1024   1023   1025     1   107.5800459 329.699200
   1025   1023   1026     1   108.7700466 392.459200
   1026   1028   1030     1   106.5500460 417.563200
   1031   1033   1034     1   108.8800464 416.726400
   1031   1033   1036     1   108.8800464 416.726400
   1032   1031   1033     1   117.6800502 383.254400
   1033   1035   1037     1   109.5600471 388.275200
   1033   1035   1038     1   109.5600471 388.275200
   1034   1033   1035     1   109.5600471 388.275200
   1034   1033   1036     1   108.4600466 328.025600
   1035   1033   1036     1   109.5600471 388.275200
   1037   1035   1039     1   109.8800469 414.216000
   1037   1035   1038     1   108.4600466 328.025600
   1038   1035   1039     1   109.8800469 414.216000
   1039   1040   1050     1   109.8800469 414.216000
   1039   1040   1051     1   109.8800469 414.216000
   1039   1041   1042     1   109.8800469 414.216000
   1039   1041   1044     1   109.8800469 414.216000
   1040   1052   1053     1   109.8000471 387.438400
   1040   1052   1054     1   109.8000471 387.438400
   1041   1043   1045     1   109.8000471 387.438400
   1041   1043   1046     1   109.8000471 387.438400
   1042   1041   1043     1   109.5600471 388.275200
   1042   1041   1044     1   108.4600466 328.025600
   1043   1041   1044     1   109.5600471 388.275200
   1045   1043   1047     1   108.7700466 392.459200
   1045   1043   1046     1   107.5800459 329.699200
   1046   1043   1047     1   108.7700466 392.459200
   1047   1048   1058     1   106.5500460 417.563200
   1050   1040   1052     1   109.5600471 388.275200
   1050   1040   1051     1   108.4600466 328.025600
   1051   1040   1052     1   109.5600471 388.275200
   1053   1052   1055     1   108.7700466 392.459200
   1053   1052   1054     1   107.5800459 329.699200
   1054   1052   1055     1   108.7700466 392.459200
   1055   1057   1059     1   106.5500460 417.563200
   1060   1062   1063     1   108.8800464 416.726400
   1060   1062   1065     1   108.8800464 416.726400
   1061   1060   1062     1   117.6800502 383.254400
   1062   1064   1066     1   109.5600471 388.275200
   1062   1064   1067     1   109.5600471 388.275200
   1063   1062   1064     1   109.5600471 388.275200
   1063   1062   1065     1   108.4600466 328.025600
   1064   1062   1065     1   109.5600471 388.275200
   1066   1064   1068     1   109.8800469 414.216000
   1066   1064   1067     1   108.4600466 328.025600
   1067   1064   1068     1   109.8800469 414.216000
   1068   1069   1079     1   109.8800469 414.216000
   1068   1069   1080     1   109.8800469 414.216000
   1068   1070   1071     1   109.8800469 414.216000
   1068   1070   1073     1   109.8800469 414.216000
   1069   1081   1082     1   109.8000471 387.438400
   1069   1081   1083     1   109.8000471 387.438400
   1070   1072   1074     1   109.8000471 387.438400
   1070   1072   1075     1   109.8000471 387.438400
   1071   1070   1072     1   109.5600471 388.275200
   1071   1070   1073     1   108.4600466 328.025600
   1072   1070   1073     1   109.5600471 388.275200
   1074   1072   1076     1   108.7700466 392.459200
   1074   1072   1075     1   107.5800459 329.699200
   1075   1072   1076     1   108.7700466 392.459200
   1076   1077   1087     1   106.5500460 417.563200
   1079   1069   1081     1   109.5600471 388.275200
   1079   1069   1080     1   108.4600466 328.025600
   1080   1069   1081     1   109.5600471 388.275200
   1082   1081   1084     1   108.7700466 392.459200
   1082   1081   1083     1   107.5800459 329.699200
   1083   1081   1084     1   108.7700466 392.459200
   1084   1086   1088     1   106.5500460 417.563200
   1089   1091   1092     1   108.8800464 416.726400
   1089   1091   1094     1   108.8800464 416.726400
   1090   1089   1091     1   117.6800502 383.254400
   1091   1093   1095     1   109.5600471 388.275200
   1091   1093   1096     1   109.5600471 388.275200
   1092   1091   1093     1   109.5600471 388.275200
   1092   1091   1094     1   108.4600466 328.025600
   1093   1091   1094     1   109.5600471 388.275200
   1095   1093   1097     1   109.8800469 414.216000
   1095   1093   1096     1   108.4600466 328.025600
   1096   1093   1097     1   109.8800469 414.216000
   1097   1098   1108     1   109.8800469 414.216000
   1097   1098   1109     1   109.8800469 414.216000
   1097   1099   1100     1   109.8800469 414.216000
   1097   1099   1102     1   109.8800469 414.216000
   1098   1110   1111     1   109.8000471 387.438400
   1098   1110   1112     1   109.8000471 387.438400
   1099   1101   1103     1   109.8000471 387.438400
   1099   1101   1104     1   109.8000471 387.438400
   1100   1099   1101     1   109.5600471 388.275200
   1100   1099   1102     1   108.4600466 328.025600
   1101   1099   1102     1   109.5600471 388.275200
   1103   1101   1105     1   108.7700466 392.459200
   1103   1101   1104     1   107.5800459 329.699200
   1104   1101   1105     1   108.7700466 392.459200
   1105   1106   1116     1   106.5500460 417.563200
   1108   1098   1110     1   109.5600471 388.275200
   1108   1098   1109     1   108.4600466 328.025600
   1109   1098   1110     1   109.5600471 388.275200
   1111   1110   1113     1   108.7700466 392.459200
   1111   1110   1112     1   107.5800459 329.699200
   1112   1110   1113     1   108.7700466 392.459200
   1113   1115   1117     1   106.5500460 417.563200
   1118   1120   1121     1   108.8800464 416.726400
   1118   1120   1123     1   108.8800464 416.726400
   1119   1118   1120     1   117.6800502 383.254400
   1120   1122   1124     1   109.5600471 388.275200
   1120   1122   1125     1   109.5600471 388.275200
   1121   1120   1122     1   109.5600471 388.275200
   1121   1120   1123     1   108.4600466 328.025600
   1122   1120   1123     1   109.5600471 388.275200
   1124   1122   1126     1   109.8800469 414.216000
   1124   1122   1125     1   108.4600466 328.025600
   1125   1122   1126     1   109.8800469 414.216000
   1126   1127   1137     1   109.8800469 414.216000
   1126   1127   1138     1   109.8800469 414.216000
   1126   1128   1129     1   109.8800469 414.216000
   1126   1128   1131     1   109.8800469 414.216000
   1127   1139   1140     1   109.8000471 387.438400
   1127   1139   1141     1   109.8000471 387.438400
   1128   1130   1132     1   109.8000471 387.438400
   1128   1130   1133     1   109.8000471 387.438400
   1129   1128   1130     1   109.5600471 388.275200
   1129   1128   1131     1   108.4600466 328.025600
   1130   1128   1131     1   109.5600471 388.275200
   1132   1130   1134     1   108.7700466 392.459200
   1132   1130   1133     1   107.5800459 329.699200
   1133   1130   1134     1   108.7700466 392.459200
   1134   1135   1145     1   106.5500460 417.563200
   1137   1127   1139     1   109.5600471 388.275200
   1137   1127   1138     1   108.4600466 328.025600
   1138   1127   1139     1   109.5600471 388.275200
   1140   1139   1142     1   108.7700466 392.459200
   1140   1139   1141     1   107.5800459 329.699200
   1141   1139   1142     1   108.7700466 392.459200
   1142   1144   1146     1   106.5500460 417.563200
   1147   1149   1150     1   108.8800464 416.726400
   1147   1149   1152     1   108.8800464 416.726400
   1148   1147   1149     1   117.6800502 383.254400
   1149   1151   1153     1   109.5600471 388.275200
   1149   1151   1154     1   109.5600471 388.275200
   1150   1149   1151     1   109.5600471 388.275200
   1150   1149   1152     1   108.4600466 328.025600
   1151   1149   1152     1   109.5600471 388.275200
   1153   1151   1155     1   109.8800469 414.216000
   1153   1151   1154     1   108.4600466 328.025600
   1154   1151   1155     1   109.8800469 414.216000
   1155   1156   1166     1   109.8800469 414.216000
   1155   1156   1167     1   109.8800469 414.216000
   1155   1157   1158     1   109.8800469 414.216000
   1155   1157   1160     1   109.8800469 414.216000
   1156   1168   1169     1   109.8000471 387.438400
   1156   1168   1170     1   109.8000471 387.438400
   1157   1159   1161     1   109.8000471 387.438400
   1157   1159   1162     1   109.8000471 387.438400
   1158   1157   1159     1   109.5600471 388.275200
   1158   1157   1160     1   108.4600466 328.025600
   1159   1157   1160     1   109.5600471 388.275200
   1161   1159   1163     1   108.7700466 392.459200
   1161   1159   1162     1   107.5800459 329.699200
   1162   1159   1163     1   108.7700466 392.459200
   1163   1164   1174     1   106.5500460 417.563200
   1166   1156   1168     1   109.5600471 388.275200
   1166   1156   1167     1   108.4600466 328.025600
   1167   1156   1168     1   109.5600471 388.275200
   1169   1168   1171     1   108.7700466 392.459200
   1169   1168   1170     1   107.5800459 329.699200
   1170   1168   1171     1   108.7700466 392.459200
   1171   1173   1175     1   106.5500460 417.563200
   1176   1178   1179     1   108.8800464 416.726400
   1176   1178   1181     1   108.8800464 416.726400
   1177   1176   1178     1   117.6800502 383.254400
   1178   1180   1182     1   109.5600471 388.275200
   1178   1180   1183     1   109.5600471 388.275200
   1179   1178   1180     1   109.5600471 388.275200
   1179   1178   1181     1   108.4600466 328.025600
   1180   1178   1181     1   109.5600471 388.275200
   1182   1180   1184     1   109.8800469 414.216000
   1182   1180   1183     1   108.4600466 328.025600
   1183   1180   1184     1   109.8800469 414.216000
   1184   1185   1195     1   109.8800469 414.216000
   1184   1185   1196     1   109.8800469 414.216000
   1184   1186   1187     1   109.8800469 414.216000
   1184   1186   1189     1   109.8800469 414.216000
   1185   1197   1198     1   109.8000471 387.438400
   1185   1197   1199     1   109.8000471 387.438400
   1186   1188   1190     1   109.8000471 387.438400
   1186   1188   1191     1   109.8000471 387.438400
   1187   1186   1188     1   109.5600471 388.275200
   1187   1186   1189     1   108.4600466 328.025600
   1188   1186   1189     1   109.5600471 388.275200
   1190   1188   1192     1   108.7700466 392.459200
   1190   1188   1191     1   107.5800459 329.699200
   1191   1188   1192     1   108.7700466 392.459200
   1192   1193   1203     1   106.5500460 417.563200
   1195   1185   1197     1   109.5600471 388.275200
   1195   1185   1196     1   108.4600466 328.025600
   1196   1185   1197     1   109.5600471 388.275200
   1198   1197   1200     1   108.7700466 392.459200
   1198   1197   1199     1   107.5800459 329.699200
   1199   1197   1200     1   108.7700466 392.459200
   1200   1202   1204     1   106.5500460 417.563200
   1205   1207   1208     1   108.8800464 416.726400
   1205   1207   1210     1   108.8800464 416.726400
   1206   1205   1207     1   117.6800502 383.254400
   1207   1209   1211     1   109.5600471 388.275200
   1207   1209   1212     1   109.5600471 388.275200
   1208   1207   1209     1   109.5600471 388.275200
   1208   1207   1210     1   108.4600466 328.025600
   1209   1207   1210     1   109.5600471 388.275200
   1211   1209   1213     1   109.8800469 414.216000
   1211   1209   1212     1   108.4600466 328.025600
   1212   1209   1213     1   109.8800469 414.216000
   1213   1214   1224     1   109.8800469 414.216000
   1213   1214   1225     1   109.8800469 414.216000
   1213   1215   1216     1   109.8800469 414.216000
   1213   1215   1218     1   109.8800469 414.216000
   1214   1226   1227     1   109.8000471 387.438400
   1214   1226   1228     1   109.8000471 387.438400
   1215   1217   1219     1   109.8000471 387.438400
   1215   1217   1220     1   109.8000471 387.438400
   1216   1215   1217     1   109.5600471 388.275200
   1216   1215   1218     1   108.4600466 328.025600
   1217   1215   1218     1   109.5600471 388.275200
   1219   1217   1221     1   108.7700466 392.459200
   1219   1217   1220     1   107.5800459 329.699200
   1220   1217   1221     1   108.7700466 392.459200
   1221   1222   1232     1   106.5500460 417.563200
   1224   1214   1226     1   109.5600471 388.275200
   1224   1214   1225     1   108.4600466 328.025600
   1225   1214   1226     1   109.5600471 388.275200
   1227   1226   1229     1   108.7700466 392.459200
   1227   1226   1228     1   107.5800459 329.699200
   1228   1226   1229     1   108.7700466 392.459200
   1229   1231   1233     1   106.5500460 417.563200
   1234   1236   1237     1   108.8800464 416.726400
   1234   1236   1239     1   108.8800464 416.726400
   1235   1234   1236     1   117.6800502 383.254400
   1236   1238   1240     1   109.5600471 388.275200
   1236   1238   1241     1   109.5600471 388.275200
   1237   1236   1238     1   109.5600471 388.275200
   1237   1236   1239     1   108.4600466 328.025600
   1238   1236   1239     1   109.5600471 388.275200
   1240   1238   1242     1   109.8800469 414.216000
   1240   1238   1241     1   108.4600466 328.025600
   1241   1238   1242     1   109.8800469 414.216000
   1242   1243   1253     1   109.8800469 414.216000
   1242   1243   1254     1   109.8800469 414.216000
   1242   1244   1245     1   109.8800469 414.216000
   1242   1244   1247     1   109.8800469 414.216000
   1243   1255   1256     1   109.8000471 387.438400
   1243   1255   1257     1   109.8000471 387.438400
   1244   1246   1248     1   109.8000471 387.438400
   1244   1246   1249     1   109.8000471 387.438400
   1245   1244   1246     1   109.5600471 388.275200
   1245   1244   1247     1   108.4600466 328.025600
   1246   1244   1247     1   109.5600471 388.275200
   1248   1246   1250     1   108.7700466 392.459200
   1248   1246   1249     1   107.5800459 329.699200
   1249   1246   1250     1   108.7700466 392.459200
   1250   1251   1261     1   106.5500460 417.563200
   1253   1243   1255     1   109.5600471 388.275200
   1253   1243   1254     1   108.4600466 328.025600
   1254   1243   1255     1   109.5600471 388.275200
   1256   1255   1258     1   108.7700466 392.459200
   1256   1255   1257     1   107.5800459 329.699200
   1257   1255   1258     1   108.7700466 392.459200
   1258   1260   1262     1   106.5500460 417.563200
   1263   1265   1266     1   108.8800464 416.726400
   1263   1265   1268     1   108.8800464 416.726400
   1264   1263   1265     1   117.6800502 383.254400
   1265   1267   1269     1   109.5600471 388.275200
   1265   1267   1270     1   109.5600471 388.275200
   1266   1265   1267     1   109.5600471 388.275200
   1266   1265   1268     1   108.4600466 328.025600
   1267   1265   1268     1   109.5600471 388.275200
   1269   1267   1271     1   109.8800469 414.216000
   1269   1267   1270     1   108.4600466 328.025600
   1270   1267   1271     1   109.8800469 414.216000
   1271   1272   1282     1   109.8800469 414.216000
   1271   1272   1283     1   109.8800469 414.216000
   1271   1273   1274     1   109.8800469 414.216000
   1271   1273   1276     1   109.8800469 414.216000
   1272   1284   1285     1   109.8000471 387.438400
   1272   1284   1286     1   109.8000471 387.438400
   1273   1275   1277     1   109.8000471 387.438400
   1273   1275   1278     1   109.8000471 387.438400
   1274   1273   1275     1   109.5600471 388.275200
   1274   1273   1276     1   108.4600466 328.025600
   1275   1273   1276     1   109.5600471 388.275200
   1277   1275   1279     1   108.7700466 392.459200
   1277   1275   1278     1   107.5800459 329.699200
   1278   1275   1279     1   108.7700466 392.459200
   1279   1280   1290     1   106.5500460 417.563200
   1282   1272   1284     1   109.5600471 388.275200
   1282   1272   1283     1   108.4600466 328.025600
   1283   1272   1284     1   109.5600471 388.275200
   1285   1284   1287     1   108.7700466 392.459200
   1285   1284   1286     1   107.5800459 329.699200
   1286   1284   1287     1   108.7700466 392.459200
   1287   1289   1291     1   106.5500460 417.563200
   1292   1294   1295     1   108.8800464 416.726400
   1292   1294   1297     1   108.8800464 416.726400
   1293   1292   1294     1   117.6800502 383.254400
   1294   1296   1298     1   109.5600471 388.275200
   1294   1296   1299     1   109.5600471 388.275200
   1295   1294   1296     1   109.5600471 388.275200
   1295   1294   1297     1   108.4600466 328.025600
   1296   1294   1297     1   109.5600471 388.275200
   1298   1296   1300     1   109.8800469 414.216000
   1298   1296   1299     1   108.4600466 328.025600
   1299   1296   1300     1   109.8800469 414.216000
   1300   1301   1311     1   109.8800469 414.216000
   1300   1301   1312     1   109.8800469 414.216000
   1300   1302   1303     1   109.8800469 414.216000
   1300   1302   1305     1   109.8800469 414.216000
   1301   1313   1314     1   109.8000471 387.438400
   1301   1313   1315     1   109.8000471 387.438400
   1302   1304   1306     1   109.8000471 387.438400
   1302   1304   1307     1   109.8000471 387.438400
   1303   1302   1304     1   109.5600471 388.275200
   1303   1302   1305     1   108.4600466 328.025600
   1304   1302   1305     1   109.5600471 388.275200
   1306   1304   1308     1   108.7700466 392.459200
   1306   1304   1307     1   107.5800459 329.699200
   1307   1304   1308     1   108.7700466 392.459200
   1308   1309   1319     1   106.5500460 417.563200
   1311   1301   1313     1   109.5600471 388.275200
   1311   1301   1312     1   108.4600466 328.025600
   1312   1301   1313     1   109.5600471 388.275200
   1314   1313   1316     1   108.7700466 392.459200
   1314   1313   1315     1   107.5800459 329.699200
   1315   1313   1316     1   108.7700466 392.459200
   1316   1318   1320     1   106.5500460 417.563200
   1321   1323   1324     1   108.8800464 416.726400
   1321   1323   1326     1   108.8800464 416.726400
   1322   1321   1323     1   117.6800502 383.254400
   1323   1325   1327     1   109.5600471 388.275200
   1323   1325   1328     1   109.5600471 388.275200
   1324   1323   1325     1   109.5600471 388.275200
   1324   1323   1326     1   108.4600466 328.025600
   1325   1323   1326     1   109.5600471 388.275200
   1327   1325   1329     1   109.8800469 414.216000
   1327   1325   1328     1   108.4600466 328.025600
   1328   1325   1329     1   109.8800469 414.216000
   1329   1330   1340     1   109.8800469 414.216000
   1329   1330   1341     1   109.8800469 414.216000
   1329   1331   1332     1   109.8800469 414.216000
   1329   1331   1334     1   109.8800469 414.216000
   1330   1342   1343     1   109.8000471 387.438400
   1330   1342   1344     1   109.8000471 387.438400
   1331   1333   1335     1   109.8000471 387.438400
   1331   1333   1336     1   109.8000471 387.438400
   1332   1331   1333     1   109.5600471 388.275200
   1332   1331   1334     1   108.4600466 328.025600
   1333   1331   1334     1   109.5600471 388.275200
   1335   1333   1337     1   108.7700466 392.459200
   1335   1333   1336     1   107.5800459 329.699200
   1336   1333   1337     1   108.7700466 392.459200
   1337   1338   1348     1   106.5500460 417.563200
   1340   1330   1342     1   109.5600471 388.275200
   1340   1330   1341     1   108.4600466 328.025600
   1341   1330   1342     1   109.5600471 388.275200
   1343   1342   1345     1   108.7700466 392.459200
   1343   1342   1344     1   107.5800459 329.699200
   1344   1342   1345     1   108.7700466 392.459200
   1345   1347   1349     1   106.5500460 417.563200
   1350   1352   1353     1   108.8800464 416.726400
   1350   1352   1355     1   108.8800464 416.726400
   1351   1350   1352     1   117.6800502 383.254400
   1352   1354   1356     1   109.5600471 388.275200
   1352   1354   1357     1   109.5600471 388.275200
   1353   1352   1354     1   109.5600471 388.275200
   1353   1352   1355     1   108.4600466 328.025600
   1354   1352   1355     1   109.5600471 388.275200
   1356   1354   1358     1   109.8800469 414.216000
   1356   1354   1357     1   108.4600466 328.025600
   1357   1354   1358     1   109.8800469 414.216000
   1358   1359   1369     1   109.8800469 414.216000
   1358   1359   1370     1   109.8800469 414.216000
   1358   1360   1361     1   109.8800469 414.216000
   1358   1360   1363     1   109.8800469 414.216000
   1359   1371   1372     1   109.8000471 387.438400
   1359   1371   1373     1   109.8000471 387.438400
   1360   1362   1364     1   109.8000471 387.438400
   1360   1362   1365     1   109.8000471 387.438400
   1361   1360   1362     1   109.5600471 388.275200
   1361   1360   1363     1   108.4600466 328.025600
   1362   1360   1363     1   109.5600471 388.275200
   1364   1362   1366     1   108.7700466 392.459200
   1364   1362   1365     1   107.5800459 329.699200
   1365   1362   1366     1   108.7700466 392.459200
   1366   1367   1377     1   106.5500460 417.563200
   1369   1359   1371     1   109.5600471 388.275200
   1369   1359   1370     1   108.4600466 328.025600
   1370   1359   1371     1   109.5600471 388.275200
   1372   1371   1374     1   108.7700466 392.459200
   1372   1371   1373     1   107.5800459 329.699200
   1373   1371   1374     1   108.7700466 392.459200
   1374   1376   1378     1   106.5500460 417.563200
   1379   1381   1382     1   108.8800464 416.726400
   1379   1381   1384     1   108.8800464 416.726400
   1380   1379   1381     1   117.6800502 383.254400
   1381   1383   1385     1   109.5600471 388.275200
   1381   1383   1386     1   109.5600471 388.275200
   1382   1381   1383     1   109.5600471 388.275200
   1382   1381   1384     1   108.4600466 328.025600
   1383   1381   1384     1   109.5600471 388.275200
   1385   1383   1387     1   109.8800469 414.216000
   1385   1383   1386     1   108.4600466 328.025600
   1386   1383   1387     1   109.8800469 414.216000
   1387   1388   1398     1   109.8800469 414.216000
   1387   1388   1399     1   109.8800469 414.216000
   1387   1389   1390     1   109.8800469 414.216000
   1387   1389   1392     1   109.8800469 414.216000
   1388   1400   1401     1   109.8000471 387.438400
   1388   1400   1402     1   109.8000471 387.438400
   1389   1391   1393     1   109.8000471 387.438400
   1389   1391   1394     1   109.8000471 387.438400
   1390   1389   1391     1   109.5600471 388.275200
   1390   1389   1392     1   108.4600466 328.025600
   1391   1389   1392     1   109.5600471 388.275200
   1393   1391   1395     1   108.7700466 392.459200
   1393   1391   1394     1   107.5800459 329.699200
   1394   1391   1395     1   108.7700466 392.459200
   1395   1396   1406     1   106.5500460 417.563200
   1398   1388   1400     1   109.5600471 388.275200
   1398   1388   1399     1   108.4600466 328.025600
   1399   1388   1400     1   109.5600471 388.275200
   1401   1400   1403     1   108.7700466 392.459200
   1401   1400   1402     1   107.5800459 329.699200
   1402   1400   1403     1   108.7700466 392.459200
   1403   1405   1407     1   106.5500460 417.563200
   1408   1410   1411     1   108.8800464 416.726400
   1408   1410   1413     1   108.8800464 416.726400
   1409   1408   1410     1   117.6800502 383.254400
   1410   1412   1414     1   109.5600471 388.275200
   1410   1412   1415     1   109.5600471 388.275200
   1411   1410   1412     1   109.5600471 388.275200
   1411   1410   1413     1   108.4600466 328.025600
   1412   1410   1413     1   109.5600471 388.275200
   1414   1412   1416     1   109.8800469 414.216000
   1414   1412   1415     1   108.4600466 328.025600
   1415   1412   1416     1   109.8800469 414.216000
   1416   1417   1427     1   109.8800469 414.216000
   1416   1417   1428     1   109.8800469 414.216000
   1416   1418   1419     1   109.8800469 414.216000
   1416   1418   1421     1   109.8800469 414.216000
   1417   1429   1430     1   109.8000471 387.438400
   1417   1429   1431     1   109.8000471 387.438400
   1418   1420   1422     1   109.8000471 387.438400
   1418   1420   1423     1   109.8000471 387.438400
   1419   1418   1420     1   109.5600471 388.275200
   1419   1418   1421     1   108.4600466 328.025600
   1420   1418   1421     1   109.5600471 388.275200
   1422   1420   1424     1   108.7700466 392.459200
   1422   1420   1423     1   107.5800459 329.699200
   1423   1420   1424     1   108.7700466 392.459200
   1424   1425   1435     1   106.5500460 417.563200
   1427   1417   1429     1   109.5600471 388.275200
   1427   1417   1428     1   108.4600466 328.025600
   1428   1417   1429     1   109.5600471 388.275200
   1430   1429   1432     1   108.7700466 392.459200
   1430   1429   1431     1   107.5800459 329.699200
   1431   1429   1432     1   108.7700466 392.459200
   1432   1434   1436     1   106.5500460 417.563200
   1437   1439   1440     1   108.8800464 416.726400
   1437   1439   1442     1   108.8800464 416.726400
   1438   1437   1439     1   117.6800502 383.254400
   1439   1441   1443     1   109.5600471 388.275200
   1439   1441   1444     1   109.5600471 388.275200
   1440   1439   1441     1   109.5600471 388.275200
   1440   1439   1442     1   108.4600466 328.025600
   1441   1439   1442     1   109.5600471 388.275200
   1443   1441   1445     1   109.8800469 414.216000
   1443   1441   1444     1   108.4600466 328.025600
   1444   1441   1445     1   109.8800469 414.216000
   1445   1446   1456     1   109.8800469 414.216000
   1445   1446   1457     1   109.8800469 414.216000
   1445   1447   1448     1   109.8800469 414.216000
   1445   1447   1450     1   109.8800469 414.216000
   1446   1458   1459     1   109.8000471 387.438400
   1446   1458   1460     1   109.8000471 387.438400
   1447   1449   1451     1   109.8000471 387.438400
   1447   1449   1452     1   109.8000471 387.438400
   1448   1447   1449     1   109.5600471 388.275200
   1448   1447   1450     1   108.4600466 328.025600
   1449   1447   1450     1   109.5600471 388.275200
   1451   1449   1453     1   108.7700466 392.459200
   1451   1449   1452     1   107.5800459 329.699200
   1452   1449   1453     1   108.7700466 392.459200
   1453   1454   1464     1   106.5500460 417.563200
   1456   1446   1458     1   109.5600471 388.275200
   1456   1446   1457     1   108.4600466 328.025600
   1457   1446   1458     1   109.5600471 388.275200
   1459   1458   1461     1   108.7700466 392.459200
   1459   1458   1460     1   107.5800459 329.699200
   1460   1458   1461     1   108.7700466 392.459200
   1461   1463   1465     1   106.5500460 417.563200
   1466   1468   1469     1   108.8800464 416.726400
   1466   1468   1471     1   108.8800464 416.726400
   1467   1466   1468     1   117.6800502 383.254400
   1468   1470   1472     1   109.5600471 388.275200
   1468   1470   1473     1   109.5600471 388.275200
   1469   1468   1470     1   109.5600471 388.275200
   1469   1468   1471     1   108.4600466 328.025600
   1470   1468   1471     1   109.5600471 388.275200
   1472   1470   1474     1   109.8800469 414.216000
   1472   1470   1473     1   108.4600466 328.025600
   1473   1470   1474     1   109.8800469 414.216000
   1474   1475   1485     1   109.8800469 414.216000
   1474   1475   1486     1   109.8800469 414.216000
   1474   1476   1477     1   109.8800469 414.216000
   1474   1476   1479     1   109.8800469 414.216000
   1475   1487   1488     1   109.8000471 387.438400
   1475   1487   1489     1   109.8000471 387.438400
   1476   1478   1480     1   109.8000471 387.438400
   1476   1478   1481     1   109.8000471 387.438400
   1477   1476   1478     1   109.5600471 388.275200
   1477   1476   1479     1   108.4600466 328.025600
   1478   1476   1479     1   109.5600471 388.275200
   1480   1478   1482     1   108.7700466 392.459200
   1480   1478   1481     1   107.5800459 329.699200
   1481   1478   1482     1   108.7700466 392.459200
   1482   1483   1493     1   106.5500460 417.563200
   1485   1475   1487     1   109.5600471 388.275200
   1485   1475   1486     1   108.4600466 328.025600
   1486   1475   1487     1   109.5600471 388.275200
   1488   1487   1490     1   108.7700466 392.459200
   1488   1487   1489     1   107.5800459 329.699200
   1489   1487   1490     1   108.7700466 392.459200
   1490   1492   1494     1   106.5500460 417.563200
   1495   1497   1498     1   108.8800464 416.726400
   1495   1497   1500     1   108.8800464 416.726400
   1496   1495   1497     1   117.6800502 383.254400
   1497   1499   1501     1   109.5600471 388.275200
   1497   1499   1502     1   109.5600471 388.275200
   1498   1497   1499     1   109.5600471 388.275200
   1498   1497   1500     1   108.4600466 328.025600
   1499   1497   1500     1   109.5600471 388.275200
   1501   1499   1503     1   109.8800469 414.216000
   1501   1499   1502     1   108.4600466 328.025600
   1502   1499   1503     1   109.8800469 414.216000
   1503   1504   1514     1   109.8800469 414.216000
   1503   1504   1515     1   109.8800469 414.216000
   1503   1505   1506     1   109.8800469 414.216000
   1503   1505   1508     1   109.8800469 414.216000
   1504   1516   1517     1   109.8000471 387.438400
   1504   1516   1518     1   109.8000471 387.438400
   1505   1507   1509     1   109.8000471 387.438400
   1505   1507   1510     1   109.8000471 387.438400
   1506   1505   1507     1   109.5600471 388.275200
   1506   1505   1508     1   108.4600466 328.025600
   1507   1505   1508     1   109.5600471 388.275200
   1509   1507   1511     1   108.7700466 392.459200
   1509   1507   1510     1   107.5800459 329.699200
   1510   1507   1511     1   108.7700466 392.459200
   1511   1512   1522     1   106.5500460 417.563200
   1514   1504   1516     1   109.5600471 388.275200
   1514   1504   1515     1   108.4600466 328.025600
   1515   1504   1516     1   109.5600471 388.275200
   1517   1516   1519     1   108.7700466 392.459200
   1517   1516   1518     1   107.5800459 329.699200
   1518   1516   1519     1   108.7700466 392.459200
   1519   1521   1523     1   106.5500460 417.563200
   1524   1526   1527     1   108.8800464 416.726400
   1524   1526   1529     1   108.8800464 416.726400
   1525   1524   1526     1   117.6800502 383.254400
   1526   1528   1530     1   109.5600471 388.275200
   1526   1528   1531     1   109.5600471 388.275200
   1527   1526   1528     1   109.5600471 388.275200
   1527   1526   1529     1   108.4600466 328.025600
   1528   1526   1529     1   109.5600471 388.275200
   1530   1528   1532     1   109.8800469 414.216000
   1530   1528   1531     1   108.4600466 328.025600
   1531   1528   1532     1   109.8800469 414.216000
   1532   1533   1543     1   109.8800469 414.216000
   1532   1533   1544     1   109.8800469 414.216000
   1532   1534   1535     1   109.8800469 414.216000
   1532   1534   1537     1   109.8800469 414.216000
   1533   1545   1546     1   109.8000471 387.438400
   1533   1545   1547     1   109.8000471 387.438400
   1534   1536   1538     1   109.8000471 387.438400
   1534   1536   1539     1   109.8000471 387.438400
   1535   1534   1536     1   109.5600471 388.275200
   1535   1534   1537     1   108.4600466 328.025600
   1536   1534   1537     1   109.5600471 388.275200
   1538   1536   1540     1   108.7700466 392.459200
   1538   1536   1539     1   107.5800459 329.699200
   1539   1536   1540     1   108.7700466 392.459200
   1540   1541   1551     1   106.5500460 417.563200
   1543   1533   1545     1   109.5600471 388.275200
   1543   1533   1544     1   108.4600466 328.025600
   1544   1533   1545     1   109.5600471 388.275200
   1546   1545   1548     1   108.7700466 392.459200
   1546   1545   1547     1   107.5800459 329.699200
   1547   1545   1548     1   108.7700466 392.459200
   1548   1550   1552     1   106.5500460 417.563200
   1553   1555   1556     1   108.8800464 416.726400
   1553   1555   1558     1   108.8800464 416.726400
   1554   1553   1555     1   117.6800502 383.254400
   1555   1557   1559     1   109.5600471 388.275200
   1555   1557   1560     1   109.5600471 388.275200
   1556   1555   1557     1   109.5600471 388.275200
   1556   1555   1558     1   108.4600466 328.025600
   1557   1555   1558     1   109.5600471 388.275200
   1559   1557   1561     1   109.8800469 414.216000
   1559   1557   1560     1   108.4600466 328.025600
   1560   1557   1561     1   109.8800469 414.216000
   1561   1562   1572     1   109.8800469 414.216000
   1561   1562   1573     1   109.8800469 414.216000
   1561   1563   1564     1   109.8800469 414.216000
   1561   1563   1566     1   109.8800469 414.216000
   1562   1574   1575     1   109.8000471 387.438400
   1562   1574   1576     1   109.8000471 387.438400
   1563   1565   1567     1   109.8000471 387.438400
   1563   1565   1568     1   109.8000471 387.438400
   1564   1563   1565     1   109.5600471 388.275200
   1564   1563   1566     1   108.4600466 328.025600
   1565   1563   1566     1   109.5600471 388.275200
   1567   1565   1569     1   108.7700466 392.459200
   1567   1565   1568     1   107.5800459 329.699200
   1568   1565   1569     1   108.7700466 392.459200
   1569   1570   1580     1   106.5500460 417.563200
   1572   1562   1574     1   109.5600471 388.275200
   1572   1562   1573     1   108.4600466 328.025600
   1573   1562   1574     1   109.5600471 388.275200
   1575   1574   1577     1   108.7700466 392.459200
   1575   1574   1576     1   107.5800459 329.699200
   1576   1574   1577     1   108.7700466 392.459200
   1577   1579   1581     1   106.5500460 417.563200
   1582   1584   1585     1   108.8800464 416.726400
   1582   1584   1587     1   108.8800464 416.726400
   1583   1582   1584     1   117.6800502 383.254400
   1584   1586   1588     1   109.5600471 388.275200
   1584   1586   1589     1   109.5600471 388.275200
   1585   1584   1586     1   109.5600471 388.275200
   1585   1584   1587     1   108.4600466 328.025600
   1586   1584   1587     1   109.5600471 388.275200
   1588   1586   1590     1   109.8800469 414.216000
   1588   1586   1589     1   108.4600466 328.025600
   1589   1586   1590     1   109.8800469 414.216000
   1590   1591   1601     1   109.8800469 414.216000
   1590   1591   1602     1   109.8800469 414.216000
   1590   1592   1593     1   109.8800469 414.216000
   1590   1592   1595     1   109.8800469 414.216000
   1591   1603   1604     1   109.8000471 387.438400
   1591   1603   1605     1   109.8000471 387.438400
   1592   1594   1596     1   109.8000471 387.438400
   1592   1594   1597     1   109.8000471 387.438400
   1593   1592   1594     1   109.5600471 388.275200
   1593   1592   1595     1   108.4600466 328.025600
   1594   1592   1595     1   109.5600471 388.275200
   1596   1594   1598     1   108.7700466 392.459200
   1596   1594   1597     1   107.5800459 329.699200
   1597   1594   1598     1   108.7700466 392.459200
   1598   1599   1609     1   106.5500460 417.563200
   1601   1591   1603     1   109.5600471 388.275200
   1601   1591   1602     1   108.4600466 328.025600
   1602   1591   1603     1   109.5600471 388.275200
   1604   1603   1606     1   108.7700466 392.459200
   1604   1603   1605     1   107.5800459 329.699200
   1605   1603   1606     1   108.7700466 392.459200
   1606   1608   1610     1   106.5500460 417.563200
   1611   1613   1614     1   108.8800464 416.726400
   1611   1613   1616     1   108.8800464 416.726400
   1612   1611   1613     1   117.6800502 383.254400
   1613   1615   1617     1   109.5600471 388.275200
   1613   1615   1618     1   109.5600471 388.275200
   1614   1613   1615     1   109.5600471 388.275200
   1614   1613   1616     1   108.4600466 328.025600
   1615   1613   1616     1   109.5600471 388.275200
   1617   1615   1619     1   109.8800469 414.216000
   1617   1615   1618     1   108.4600466 328.025600
   1618   1615   1619     1   109.8800469 414.216000
   1619   1620   1630     1   109.8800469 414.216000
   1619   1620   1631     1   109.8800469 414.216000
   1619   1621   1622     1   109.8800469 414.216000
   1619   1621   1624     1   109.8800469 414.216000
   1620   1632   1633     1   109.8000471 387.438400
   1620   1632   1634     1   109.8000471 387.438400
   1621   1623   1625     1   109.8000471 387.438400
   1621   1623   1626     1   109.8000471 387.438400
   1622   1621   1623     1   109.5600471 388.275200
   1622   1621   1624     1   108.4600466 328.025600
   1623   1621   1624     1   109.5600471 388.275200
   1625   1623   1627     1   108.7700466 392.459200
   1625   1623   1626     1   107.5800459 329.699200
   1626   1623   1627     1   108.7700466 392.459200
   1627   1628   1638     1   106.5500460 417.563200
   1630   1620   1632     1   109.5600471 388.275200
   1630   1620   1631     1   108.4600466 328.025600
   1631   1620   1632     1   109.5600471 388.275200
   1633   1632   1635     1   108.7700466 392.459200
   1633   1632   1634     1   107.5800459 329.699200
   1634   1632   1635     1   108.7700466 392.459200
   1635   1637   1639     1   106.5500460 417.563200
   1640   1642   1643     1   108.8800464 416.726400
   1640   1642   1645     1   108.8800464 416.726400
   1641   1640   1642     1   117.6800502 383.254400
   1642   1644   1646     1   109.5600471 388.275200
   1642   1644   1647     1   109.5600471 388.275200
   1643   1642   1644     1   109.5600471 388.275200
   1643   1642   1645     1   108.4600466 328.025600
   1644   1642   1645     1   109.5600471 388.275200
   1646   1644   1648     1   109.8800469 414.216000
   1646   1644   1647     1   108.4600466 328.025600
   1647   1644   1648     1   109.8800469 414.216000
   1648   1649   1659     1   109.8800469 414.216000
   1648   1649   1660     1   109.8800469 414.216000
   1648   1650   1651     1   109.8800469 414.216000
   1648   1650   1653     1   109.8800469 414.216000
   1649   1661   1662     1   109.8000471 387.438400
   1649   1661   1663     1   109.8000471 387.438400
   1650   1652   1654     1   109.8000471 387.438400
   1650   1652   1655     1   109.8000471 387.438400
   1651   1650   1652     1   109.5600471 388.275200
   1651   1650   1653     1   108.4600466 328.025600
   1652   1650   1653     1   109.5600471 388.275200
   1654   1652   1656     1   108.7700466 392.459200
   1654   1652   1655     1   107.5800459 329.699200
   1655   1652   1656     1   108.7700466 392.459200
   1656   1657   1667     1   106.5500460 417.563200
   1659   1649   1661     1   109.5600471 388.275200
   1659   1649   1660     1   108.4600466 328.025600
   1660   1649   1661     1   109.5600471 388.275200
   1662   1661   1664     1   108.7700466 392.459200
   1662   1661   1663     1   107.5800459 329.699200
   1663   1661   1664     1   108.7700466 392.459200
   1664   1666   1668     1   106.5500460 417.563200

[ dihedrals ]
;    ai     aj     ak     al funct         c0         c1         c2         c3         c4         c5
      1      4      7     15     1  180.0000771  2.0083200  2
      1      4      7     15     1  0.0000000  1.2552000  3
      1      4      7     18     1  180.0000771  2.0083200  2
      1      4      7     18     1  0.0000000  1.2552000  3
      1      8      9     30     1  180.0000771  2.0083200  2
      1      8      9     30     1  0.0000000  1.2552000  3
      1      8     12     27     1  180.0000771  2.0083200  2
      1      8     12     27     1  0.0000000  1.2552000  3
      4      1      8      9     1  180.0000771  2.0083200  2
      4      1      8      9     1  0.0000000  1.2552000  3
      4      1      8     12     1  180.0000771  2.0083200  2
      4      1      8     12     1  0.0000000  1.2552000  3
      4      7     15     21     1  180.0000771  2.0083200  2
      4      7     15     21     1  0.0000000  1.2552000  3
      4      7     18     24     1  180.0000771  2.0083200  2
      4      7     18     24     1  0.0000000  1.2552000  3
      8      1      4      7     1  0.0000000  0.6508444  3
      7     15     21     35     1  0.0000000  0.6508444  3
      7     18     24     36     1  0.0000000  0.6508444  3
      8      9     30     34     1  0.0000000  0.6508444  3
      8     12     27     33     1  0.0000000  0.6508444  3
      9      8     12     27     1  180.0000771  2.0083200  2
      9      8     12     27     1  0.0000000  1.2552000  3
      9     30     34     40     1  180.0000771  0.0000000  2
      9     30     34     89     1  0.0000000  0.2928800  2
      9     30     34     89     1  0.0000000  0.4184000  4
     12      8      9     30     1  180.0000771  2.0083200  2
     12      8      9     30     1  0.0000000  1.2552000  3
     12     27     33     37     1  180.0000771  0.0000000  2
     12     27     33     64     1  0.0000000  0.2928800  2
     12     27     33     64     1  0.0000000  0.4184000  4
     15      7     18     24     1  180.0000771  2.0083200  2
     15      7     18     24     1  0.0000000  1.2552000  3
     15     21     35     38     1  180.0000771  0.0000000  2
     15     21     35    114     1  0.0000000  0.2928800  2
     15     21     35    114     1  0.0000000  0.4184000  4
     18      7     15     21     1  180.0000771  2.0083200  2
     18      7     15     21     1  0.0000000  1.2552000  3
     18     24     36     39     1  180.0000771  0.0000000  2
     18     24     36    139     1  0.0000000  0.2928800  2
     18     24     36    139     1  0.0000000  0.4184000  4
     21     35    114     94     1  180.0000771  6.2760000  1
     21     35    114     94     1  0.0000000  0.0000000  2
     24     36    139    119     1  180.0000771  6.2760000  1
     24     36    139    119     1  0.0000000  0.0000000  2
     27     33     64     44     1  180.0000771  6.2760000  1
     27     33     64     44     1  0.0000000  0.0000000  2
     30     34     89     69     1  180.0000771  6.2760000  1
     30     34     89     69     1  0.0000000  0.0000000  2
     33     64     44     41     1  0.0000000  2.2175200  1
     33     64     44     41     1  0.0000000  0.0000000  2
     33     64     44     41     1  180.0000771  0.6276000  3
     33     64     44     41     1  180.0000771  2.0920000  4
     34     89     69     66     1  0.0000000  2.2175200  1
     34     89     69     66     1  0.0000000  0.0000000  2
     34     89     69     66     1  180.0000771  0.6276000  3
     34     89     69     66     1  180.0000771  2.0920000  4
     35    114     94     91     1  0.0000000  2.2175200  1
     35    114     94     91     1  0.0000000  0.0000000  2
     35    114     94     91     1  180.0000771  0.6276000  3
     35    114     94     91     1  180.0000771  2.0920000  4
     36    139    119    116     1  0.0000000  2.2175200  1
     36    139    119    116     1  0.0000000  0.0000000  2
     36    139    119    116     1  180.0000771  0.6276000  3
     36    139    119    116     1  180.0000771  2.0920000  4
     37     33     64     44     1  180.0000771  10.4600000  2
     38     35    114     94     1  180.0000771  10.4600000  2
     39     36    139    119     1  180.0000771  10.4600000  2
     40     34     89     69     1  180.0000771  10.4600000  2
     41     47     48     57     1  180.0000771  2.0083200  2
     41     47     48     57     1  0.0000000  1.2552000  3
     41     47     51     54     1  180.0000771  2.0083200  2
     41     47     51     54     1  0.0000000  1.2552000  3
     44     41     47     48     1  180.0000771  2.0083200  2
     44     41     47     48     1  0.0000000  1.2552000  3
     44     41     47     51     1  180.0000771  2.0083200  2
     44     41     47     51     1  0.0000000  1.2552000  3
     47     41     44     64     1  0.0000000  0.6508444  3
     47     48     57     61     1  0.0000000  0.6508444  3
     47     51     54     60     1  0.0000000  0.6508444  3
     48     47     51     54     1  180.0000771  2.0083200  2
     48     47     51     54     1  0.0000000  1.2552000  3
     48     57     61     63     1  180.0000771  0.0000000  2
     48     57     61    189     1  0.0000000  0.2928800  2
     48     57     61    189     1  0.0000000  0.4184000  4
     51     47     48     57     1  180.0000771  2.0083200  2
     51     47     48     57     1  0.0000000  1.2552000  3
     51     54     60     62     1  180.0000771  0.0000000  2
     51     54     60    164     1  0.0000000  0.2928800  2
     51     54     60    164     1  0.0000000  0.4184000  4
     54     60    164    144     1  180.0000771  6.2760000  1
     54     60    164    144     1  0.0000000  0.0000000  2
     57     61    189    169     1  180.0000771  6.2760000  1
     57     61    189    169     1  0.0000000  0.0000000  2
     60    164    144    141     1  0.0000000  2.2175200  1
     60    164    144    141     1  0.0000000  0.0000000  2
     60    164    144    141     1  180.0000771  0.6276000  3
     60    164    144    141     1  180.0000771  2.0920000  4
     61    189    169    166     1  0.0000000  2.2175200  1
     61    189    169    166     1  0.0000000  0.0000000  2
     61    189    169    166     1  180.0000771  0.6276000  3
     61    189    169    166     1  180.0000771  2.0920000  4
     62     60    164    144     1  180.0000771  10.4600000  2
     63     61    189    169     1  180.0000771  10.4600000  2
     66     72     73     82     1  180.0000771  2.0083200  2
     66     72     73     82     1  0.0000000  1.2552000  3
     66     72     76     79     1  180.0000771  2.0083200  2
     66     72     76     79     1  0.0000000  1.2552000  3
     69     66     72     73     1  180.0000771  2.0083200  2
     69     66     72     73     1  0.0000000  1.2552000  3
     69     66     72     76     1  180.0000771  2.0083200  2
     69     66     72     76     1  0.0000000  1.2552000  3
     72     66     69     89     1  0.0000000  0.6508444  3
     72     73     82     86     1  0.0000000  0.6508444  3
     72     76     79     85     1  0.0000000  0.6508444  3
     73     72     76     79     1  180.0000771  2.0083200  2
     73     72     76     79     1  0.0000000  1.2552000  3
     73     82     86     88     1  180.0000771  0.0000000  2
     73     82     86    239     1  0.0000000  0.2928800  2
     73     82     86    239     1  0.0000000  0.4184000  4
     76     72     73     82     1  180.0000771  2.0083200  2
     76     72     73     82     1  0.0000000  1.2552000  3
     76     79     85     87     1  180.0000771  0.0000000  2
     76     79     85    214     1  0.0000000  0.2928800  2
     76     79     85    214     1  0.0000000  0.4184000  4
     79     85    214    194     1  180.0000771  6.2760000  1
     79     85    214    194     1  0.0000000  0.0000000  2
     82     86    239    219     1  180.0000771  6.2760000  1
     82     86    239    219     1  0.0000000  0.0000000  2
     85    214    194    191     1  0.0000000  2.2175200  1
     85    214    194    191     1  0.0000000  0.0000000  2
     85    214    194    191     1  180.0000771  0.6276000  3
     85    214    194    191     1  180.0000771  2.0920000  4
     86    239    219    216     1  0.0000000  2.2175200  1
     86    239    219    216     1  0.0000000  0.0000000  2
     86    239    219    216     1  180.0000771  0.6276000  3
     86    239    219    216     1  180.0000771  2.0920000  4
     87     85    214    194     1  180.0000771  10.4600000  2
     88     86    239    219     1  180.0000771  10.4600000  2
     91     97     98    107     1  180.0000771  2.0083200  2
     91     97     98    107     1  0.0000000  1.2552000  3
     91     97    101    104     1  180.0000771  2.0083200  2
     91     97    101    104     1  0.0000000  1.2552000  3
     94     91     97     98     1  180.0000771  2.0083200  2
     94     91     97     98     1  0.0000000  1.2552000  3
     94     91     97    101     1  180.0000771  2.0083200  2
     94     91     97    101     1  0.0000000  1.2552000  3
     97     91     94    114     1  0.0000000  0.6508444  3
     97     98    107    111     1  0.0000000  0.6508444  3
     97    101    104    110     1  0.0000000  0.6508444  3
     98     97    101    104     1  180.0000771  2.0083200  2
     98     97    101    104     1  0.0000000  1.2552000  3
     98    107    111    113     1  180.0000771  0.0000000  2
     98    107    111    289     1  0.0000000  0.2928800  2
     98    107    111    289     1  0.0000000  0.4184000  4
    101     97     98    107     1  180.0000771  2.0083200  2
    101     97     98    107     1  0.0000000  1.2552000  3
    101    104    110    112     1  180.0000771  0.0000000  2
    101    104    110    264     1  0.0000000  0.2928800  2
    101    104    110    264     1  0.0000000  0.4184000  4
    104    110    264    244     1  180.0000771  6.2760000  1
    104    110    264    244     1  0.0000000  0.0000000  2
    107    111    289    269     1  180.0000771  6.2760000  1
    107    111    289    269     1  0.0000000  0.0000000  2
    110    264    244    241     1  0.0000000  2.2175200  1
    110    264    244    241     1  0.0000000  0.0000000  2
    110    264    244    241     1  180.0000771  0.6276000  3
    110    264    244    241     1  180.0000771  2.0920000  4
    111    289    269    266     1  0.0000000  2.2175200  1
    111    289    269    266     1  0.0000000  0.0000000  2
    111    289    269    266     1  180.0000771  0.6276000  3
    111    289    269    266     1  180.0000771  2.0920000  4
    112    110    264    244     1  180.0000771  10.4600000  2
    113    111    289    269     1  180.0000771  10.4600000  2
    116    122    123    132     1  180.0000771  2.0083200  2
    116    122    123    132     1  0.0000000  1.2552000  3
    116    122    126    129     1  180.0000771  2.0083200  2
    116    122    126    129     1  0.0000000  1.2552000  3
    119    116    122    123     1  180.0000771  2.0083200  2
    119    116    122    123     1  0.0000000  1.2552000  3
    119    116    122    126     1  180.0000771  2.0083200  2
    119    116    122    126     1  0.0000000  1.2552000  3
    122    116    119    139     1  0.0000000  0.6508444  3
    122    123    132    136     1  0.0000000  0.6508444  3
    122    126    129    135     1  0.0000000  0.6508444  3
    123    122    126    129     1  180.0000771  2.0083200  2
    123    122    126    129     1  0.0000000  1.2552000  3
    123    132    136    138     1  180.0000771  0.0000000  2
    123    132    136    339     1  0.0000000  0.2928800  2
    123    132    136    339     1  0.0000000  0.4184000  4
    126    122    123    132     1  180.0000771  2.0083200  2
    126    122    123    132     1  0.0000000  1.2552000  3
    126    129    135    137     1  180.0000771  0.0000000  2
    126    129    135    314     1  0.0000000  0.2928800  2
    126    129    135    314     1  0.0000000  0.4184000  4
    129    135    314    294     1  180.0000771  6.2760000  1
    129    135    314    294     1  0.0000000  0.0000000  2
    132    136    339    319     1  180.0000771  6.2760000  1
    132    136    339    319     1  0.0000000  0.0000000  2
    135    314    294    291     1  0.0000000  2.2175200  1
    135    314    294    291     1  0.0000000  0.0000000  2
    135    314    294    291     1  180.0000771  0.6276000  3
    135    314    294    291     1  180.0000771  2.0920000  4
    136    339    319    316     1  0.0000000  2.2175200  1
    136    339    319    316     1  0.0000000  0.0000000  2
    136    339    319    316     1  180.0000771  0.6276000  3
    136    339    319    316     1  180.0000771  2.0920000  4
    137    135    314    294     1  180.0000771  10.4600000  2
    138    136    339    319     1  180.0000771  10.4600000  2
    141    147    148    157     1  180.0000771  2.0083200  2
    141    147    148    157     1  0.0000000  1.2552000  3
    141    147    151    154     1  180.0000771  2.0083200  2
    141    147    151    154     1  0.0000000  1.2552000  3
    144    141    147    148     1  180.0000771  2.0083200  2
    144    141    147    148     1  0.0000000  1.2552000  3
    144    141    147    151     1  180.0000771  2.0083200  2
    144    141    147    151     1  0.0000000  1.2552000  3
    147    141    144    164     1  0.0000000  0.6508444  3
    147    148    157    161     1  0.0000000  0.6508444  3
    147    151    154    160     1  0.0000000  0.6508444  3
    148    147    151    154     1  180.0000771  2.0083200  2
    148    147    151    154     1  0.0000000  1.2552000  3
    148    157    161    163     1  180.0000771  0.0000000  2
    148    157    161    389     1  0.0000000  0.2928800  2
    148    157    161    389     1  0.0000000  0.4184000  4
    151    147    148    157     1  180.0000771  2.0083200  2
    151    147    148    157     1  0.0000000  1.2552000  3
    151    154    160    162     1  180.0000771  0.0000000  2
    151    154    160    364     1  0.0000000  0.2928800  2
    151    154    160    364     1  0.0000000  0.4184000  4
    154    160    364    344     1  180.0000771  6.2760000  1
    154    160    364    344     1  0.0000000  0.0000000  2
    157    161    389    369     1  180.0000771  6.2760000  1
    157    161    389    369     1  0.0000000  0.0000000  2
    160    364    344    341     1  0.0000000  2.2175200  1
    160    364    344    341     1  0.0000000  0.0000000  2
    160    364    344    341     1  180.0000771  0.6276000  3
    160    364    344    341     1  180.0000771  2.0920000  4
    161    389    369    366     1  0.0000000  2.2175200  1
    161    389    369    366     1  0.0000000  0.0000000  2
    161    389    369    366     1  180.0000771  0.6276000  3
    161    389    369    366     1  180.0000771  2.0920000  4
    162    160    364    344     1  180.0000771  10.4600000  2
    163    161    389    369     1  180.0000771  10.4600000  2
    166    172    173    182     1  180.0000771  2.0083200  2
    166    172    173    182     1  0.0000000  1.2552000  3
    166    172    176    179     1  180.0000771  2.0083200  2
    166    172    176    179     1  0.0000000  1.2552000  3
    169    166    172    173     1  180.0000771  2.0083200  2
    169    166    172    173     1  0.0000000  1.2552000  3
    169    166    172    176     1  180.0000771  2.0083200  2
    169    166    172    176     1  0.0000000  1.2552000  3
    172    166    169    189     1  0.0000000  0.6508444  3
    172    173    182    186     1  0.0000000  0.6508444  3
    172    176    179    185     1  0.0000000  0.6508444  3
    173    172    176    179     1  180.0000771  2.0083200  2
    173    172    176    179     1  0.0000000  1.2552000  3
    173    182    186    188     1  180.0000771  0.0000000  2
    173    182    186    439     1  0.0000000  0.2928800  2
    173    182    186    439     1  0.0000000  0.4184000  4
    176    172    173    182     1  180.0000771  2.0083200  2
    176    172    173    182     1  0.0000000  1.2552000  3
    176    179    185    187     1  180.0000771  0.0000000  2
    176    179    185    414     1  0.0000000  0.2928800  2
    176    179    185    414     1  0.0000000  0.4184000  4
    179    185    414    394     1  180.0000771  6.2760000  1
    179    185    414    394     1  0.0000000  0.0000000  2
    182    186    439    419     1  180.0000771  6.2760000  1
    182    186    439    419     1  0.0000000  0.0000000  2
    185    414    394    391     1  0.0000000  2.2175200  1
    185    414    394    391     1  0.0000000  0.0000000  2
    185    414    394    391     1  180.0000771  0.6276000  3
    185    414    394    391     1  180.0000771  2.0920000  4
    186    439    419    416     1  0.0000000  2.2175200  1
    186    439    419    416     1  0.0000000  0.0000000  2
    186    439    419    416     1  180.0000771  0.6276000  3
    186    439    419    416     1  180.0000771  2.0920000  4
    187    185    414    394     1  180.0000771  10.4600000  2
    188    186    439    419     1  180.0000771  10.4600000  2
    191    197    198    207     1  180.0000771  2.0083200  2
    191    197    198    207     1  0.0000000  1.2552000  3
    191    197    201    204     1  180.0000771  2.0083200  2
    191    197    201    204     1  0.0000000  1.2552000  3
    194    191    197    198     1  180.0000771  2.0083200  2
    194    191    197    198     1  0.0000000  1.2552000  3
    194    191    197    201     1  180.0000771  2.0083200  2
    194    191    197    201     1  0.0000000  1.2552000  3
    197    191    194    214     1  0.0000000  0.6508444  3
    197    198    207    211     1  0.0000000  0.6508444  3
    197    201    204    210     1  0.0000000  0.6508444  3
    198    197    201    204     1  180.0000771  2.0083200  2
    198    197    201    204     1  0.0000000  1.2552000  3
    198    207    211    213     1  180.0000771  0.0000000  2
    198    207    211    489     1  0.0000000  0.2928800  2
    198    207    211    489     1  0.0000000  0.4184000  4
    201    197    198    207     1  180.0000771  2.0083200  2
    201    197    198    207     1  0.0000000  1.2552000  3
    201    204    210    212     1  180.0000771  0.0000000  2
    201    204    210    464     1  0.0000000  0.2928800  2
    201    204    210    464     1  0.0000000  0.4184000  4
    204    210    464    444     1  180.0000771  6.2760000  1
    204    210    464    444     1  0.0000000  0.0000000  2
    207    211    489    469     1  180.0000771  6.2760000  1
    207    211    489    469     1  0.0000000  0.0000000  2
    210    464    444    441     1  0.0000000  2.2175200  1
    210    464    444    441     1  0.0000000  0.0000000  2
    210    464    444    441     1  180.0000771  0.6276000  3
    210    464    444    441     1  180.0000771  2.0920000  4
    211    489    469    466     1  0.0000000  2.2175200  1
    211    489    469    466     1  0.0000000  0.0000000  2
    211    489    469    466     1  180.0000771  0.6276000  3
    211    489    469    466     1  180.0000771  2.0920000  4
    212    210    464    444     1  180.0000771  10.4600000  2
    213    211    489    469     1  180.0000771  10.4600000  2
    216    222    223    232     1  180.0000771  2.0083200  2
    216    222    223    232     1  0.0000000  1.2552000  3
    216    222    226    229     1  180.0000771  2.0083200  2
    216    222    226    229     1  0.0000000  1.2552000  3
    219    216    222    223     1  180.0000771  2.0083200  2
    219    216    222    223     1  0.0000000  1.2552000  3
    219    216    222    226     1  180.0000771  2.0083200  2
    219    216    222    226     1  0.0000000  1.2552000  3
    222    216    219    239     1  0.0000000  0.6508444  3
    222    223    232    236     1  0.0000000  0.6508444  3
    222    226    229    235     1  0.0000000  0.6508444  3
    223    222    226    229     1  180.0000771  2.0083200  2
    223    222    226    229     1  0.0000000  1.2552000  3
    223    232    236    238     1  180.0000771  0.0000000  2
    223    232    236    539     1  0.0000000  0.2928800  2
    223    232    236    539     1  0.0000000  0.4184000  4
    226    222    223    232     1  180.0000771  2.0083200  2
    226    222    223    232     1  0.0000000  1.2552000  3
    226    229    235    237     1  180.0000771  0.0000000  2
    226    229    235    514     1  0.0000000  0.2928800  2
    226    229    235    514     1  0.0000000  0.4184000  4
    229    235    514    494     1  180.0000771  6.2760000  1
    229    235    514    494     1  0.0000000  0.0000000  2
    232    236    539    519     1  180.0000771  6.2760000  1
    232    236    539    519     1  0.0000000  0.0000000  2
    235    514    494    491     1  0.0000000  2.2175200  1
    235    514    494    491     1  0.0000000  0.0000000  2
    235    514    494    491     1  180.0000771  0.6276000  3
    235    514    494    491     1  180.0000771  2.0920000  4
    236    539    519    516     1  0.0000000  2.2175200  1
    236    539    519    516     1  0.0000000  0.0000000  2
    236    539    519    516     1  180.0000771  0.6276000  3
    236    539    519    516     1  180.0000771  2.0920000  4
    237    235    514    494     1  180.0000771  10.4600000  2
    238    236    539    519     1  180.0000771  10.4600000  2
    241    247    248    257     1  180.0000771  2.0083200  2
    241    247    248    257     1  0.0000000  1.2552000  3
    241    247    251    254     1  180.0000771  2.0083200  2
    241    247    251    254     1  0.0000000  1.2552000  3
    244    241    247    248     1  180.0000771  2.0083200  2
    244    241    247    248     1  0.0000000  1.2552000  3
    244    241    247    251     1  180.0000771  2.0083200  2
    244    241    247    251     1  0.0000000  1.2552000  3
    247    241    244    264     1  0.0000000  0.6508444  3
    247    248    257    261     1  0.0000000  0.6508444  3
    247    251    254    260     1  0.0000000  0.6508444  3
    248    247    251    254     1  180.0000771  2.0083200  2
    248    247    251    254     1  0.0000000  1.2552000  3
    248    257    261    263     1  180.0000771  0.0000000  2
    248    257    261    589     1  0.0000000  0.2928800  2
    248    257    261    589     1  0.0000000  0.4184000  4
    251    247    248    257     1  180.0000771  2.0083200  2
    251    247    248    257     1  0.0000000  1.2552000  3
    251    254    260    262     1  180.0000771  0.0000000  2
    251    254    260    564     1  0.0000000  0.2928800  2
    251    254    260    564     1  0.0000000  0.4184000  4
    254    260    564    544     1  180.0000771  6.2760000  1
    254    260    564    544     1  0.0000000  0.0000000  2
    257    261    589    569     1  180.0000771  6.2760000  1
    257    261    589    569     1  0.0000000  0.0000000  2
    260    564    544    541     1  0.0000000  2.2175200  1
    260    564    544    541     1  0.0000000  0.0000000  2
    260    564    544    541     1  180.0000771  0.6276000  3
    260    564    544    541     1  180.0000771  2.0920000  4
    261    589    569    566     1  0.0000000  2.2175200  1
    261    589    569    566     1  0.0000000  0.0000000  2
    261    589    569    566     1  180.0000771  0.6276000  3
    261    589    569    566     1  180.0000771  2.0920000  4
    262    260    564    544     1  180.0000771  10.4600000  2
    263    261    589    569     1  180.0000771  10.4600000  2
    266    272    273    282     1  180.0000771  2.0083200  2
    266    272    273    282     1  0.0000000  1.2552000  3
    266    272    276    279     1  180.0000771  2.0083200  2
    266    272    276    279     1  0.0000000  1.2552000  3
    269    266    272    273     1  180.0000771  2.0083200  2
    269    266    272    273     1  0.0000000  1.2552000  3
    269    266    272    276     1  180.0000771  2.0083200  2
    269    266    272    276     1  0.0000000  1.2552000  3
    272    266    269    289     1  0.0000000  0.6508444  3
    272    273    282    286     1  0.0000000  0.6508444  3
    272    276    279    285     1  0.0000000  0.6508444  3
    273    272    276    279     1  180.0000771  2.0083200  2
    273    272    276    279     1  0.0000000  1.2552000  3
    273    282    286    288     1  180.0000771  0.0000000  2
    273    282    286    639     1  0.0000000  0.2928800  2
    273    282    286    639     1  0.0000000  0.4184000  4
    276    272    273    282     1  180.0000771  2.0083200  2
    276    272    273    282     1  0.0000000  1.2552000  3
    276    279    285    287     1  180.0000771  0.0000000  2
    276    279    285    614     1  0.0000000  0.2928800  2
    276    279    285    614     1  0.0000000  0.4184000  4
    279    285    614    594     1  180.0000771  6.2760000  1
    279    285    614    594     1  0.0000000  0.0000000  2
    282    286    639    619     1  180.0000771  6.2760000  1
    282    286    639    619     1  0.0000000  0.0000000  2
    285    614    594    591     1  0.0000000  2.2175200  1
    285    614    594    591     1  0.0000000  0.0000000  2
    285    614    594    591     1  180.0000771  0.6276000  3
    285    614    594    591     1  180.0000771  2.0920000  4
    286    639    619    616     1  0.0000000  2.2175200  1
    286    639    619    616     1  0.0000000  0.0000000  2
    286    639    619    616     1  180.0000771  0.6276000  3
    286    639    619    616     1  180.0000771  2.0920000  4
    287    285    614    594     1  180.0000771  10.4600000  2
    288    286    639    619     1  180.0000771  10.4600000  2
    291    297    298    307     1  180.0000771  2.0083200  2
    291    297    298    307     1  0.0000000  1.2552000  3
    291    297    301    304     1  180.0000771  2.0083200  2
    291    297    301    304     1  0.0000000  1.2552000  3
    294    291    297    298     1  180.0000771  2.0083200  2
    294    291    297    298     1  0.0000000  1.2552000  3
    294    291    297    301     1  180.0000771  2.0083200  2
    294    291    297    301     1  0.0000000  1.2552000  3
    297    291    294    314     1  0.0000000  0.6508444  3
    297    298    307    311     1  0.0000000  0.6508444  3
    297    301    304    310     1  0.0000000  0.6508444  3
    298    297    301    304     1  180.0000771  2.0083200  2
    298    297    301    304     1  0.0000000  1.2552000  3
    298    307    311    313     1  180.0000771  0.0000000  2
    298    307    311    689     1  0.0000000  0.2928800  2
    298    307    311    689     1  0.0000000  0.4184000  4
    301    297    298    307     1  180.0000771  2.0083200  2
    301    297    298    307     1  0.0000000  1.2552000  3
    301    304    310    312     1  180.0000771  0.0000000  2
    301    304    310    664     1  0.0000000  0.2928800  2
    301    304    310    664     1  0.0000000  0.4184000  4
    304    310    664    644     1  180.0000771  6.2760000  1
    304    310    664    644     1  0.0000000  0.0000000  2
    307    311    689    669     1  180.0000771  6.2760000  1
    307    311    689    669     1  0.0000000  0.0000000  2
    310    664    644    641     1  0.0000000  2.2175200  1
    310    664    644    641     1  0.0000000  0.0000000  2
    310    664    644    641     1  180.0000771  0.6276000  3
    310    664    644    641     1  180.0000771  2.0920000  4
    311    689    669    666     1  0.0000000  2.2175200  1
    311    689    669    666     1  0.0000000  0.0000000  2
    311    689    669    666     1  180.0000771  0.6276000  3
    311    689    669    666     1  180.0000771  2.0920000  4
    312    310    664    644     1  180.0000771  10.4600000  2
    313    311    689    669     1  180.0000771  10.4600000  2
    316    322    323    332     1  180.0000771  2.0083200  2
    316    322    323    332     1  0.0000000  1.2552000  3
    316    322    326    329     1  180.0000771  2.0083200  2
    316    322    326    329     1  0.0000000  1.2552000  3
    319    316    322    323     1  180.0000771  2.0083200  2
    319    316    322    323     1  0.0000000  1.2552000  3
    319    316    322    326     1  180.0000771  2.0083200  2
    319    316    322    326     1  0.0000000  1.2552000  3
    322    316    319    339     1  0.0000000  0.6508444  3
    322    323    332    336     1  0.0000000  0.6508444  3
    322    326    329    335     1  0.0000000  0.6508444  3
    323    322    326    329     1  180.0000771  2.0083200  2
    323    322    326    329     1  0.0000000  1.2552000  3
    323    332    336    338     1  180.0000771  0.0000000  2
    323    332    336    739     1  0.0000000  0.2928800  2
    323    332    336    739     1  0.0000000  0.4184000  4
    326    322    323    332     1  180.0000771  2.0083200  2
    326    322    323    332     1  0.0000000  1.2552000  3
    326    329    335    337     1  180.0000771  0.0000000  2
    326    329    335    714     1  0.0000000  0.2928800  2
    326    329    335    714     1  0.0000000  0.4184000  4
    329    335    714    694     1  180.0000771  6.2760000  1
    329    335    714    694     1  0.0000000  0.0000000  2
    332    336    739    719     1  180.0000771  6.2760000  1
    332    336    739    719     1  0.0000000  0.0000000  2
    335    714    694    691     1  0.0000000  2.2175200  1
    335    714    694    691     1  0.0000000  0.0000000  2
    335    714    694    691     1  180.0000771  0.6276000  3
    335    714    694    691     1  180.0000771  2.0920000  4
    336    739    719    716     1  0.0000000  2.2175200  1
    336    739    719    716     1  0.0000000  0.0000000  2
    336    739    719    716     1  180.0000771  0.6276000  3
    336    739    719    716     1  180.0000771  2.0920000  4
    337    335    714    694     1  180.0000771  10.4600000  2
    338    336    739    719     1  180.0000771  10.4600000  2
    341    347    348    357     1  180.0000771  2.0083200  2
    341    347    348    357     1  0.0000000  1.2552000  3
    341    347    351    354     1  180.0000771  2.0083200  2
    341    347    351    354     1  0.0000000  1.2552000  3
    344    341    347    348     1  180.0000771  2.0083200  2
    344    341    347    348     1  0.0000000  1.2552000  3
    344    341    347    351     1  180.0000771  2.0083200  2
    344    341    347    351     1  0.0000000  1.2552000  3
    347    341    344    364     1  0.0000000  0.6508444  3
    347    348    357    361     1  0.0000000  0.6508444  3
    347    351    354    360     1  0.0000000  0.6508444  3
    348    347    351    354     1  180.0000771  2.0083200  2
    348    347    351    354     1  0.0000000  1.2552000  3
    348    357    361    363     1  180.0000771  0.0000000  2
    348    357    361    770     1  0.0000000  0.2928800  2
    348    357    361    770     1  0.0000000  0.4184000  4
    351    347    348    357     1  180.0000771  2.0083200  2
    351    347    348    357     1  0.0000000  1.2552000  3
    351    354    360    741     1  0.0000000  0.2928800  2
    351    354    360    741     1  0.0000000  0.4184000  4
    351    354    360    362     1  180.0000771  0.0000000  2
    354    360    741    743     1  180.0000771  6.2760000  1
    354    360    741    743     1  0.0000000  0.0000000  2
    357    361    770    772     1  180.0000771  6.2760000  1
    357    361    770    772     1  0.0000000  0.0000000  2
    360    741    743    745     1  0.0000000  2.2175200  1
    360    741    743    745     1  0.0000000  0.0000000  2
    360    741    743    745     1  180.0000771  0.6276000  3
    360    741    743    745     1  180.0000771  2.0920000  4
    361    770    772    774     1  0.0000000  2.2175200  1
    361    770    772    774     1  0.0000000  0.0000000  2
    361    770    772    774     1  180.0000771  0.6276000  3
    361    770    772    774     1  180.0000771  2.0920000  4
    362    360    741    743     1  180.0000771  10.4600000  2
    363    361    770    772     1  180.0000771  10.4600000  2
    366    372    373    382     1  180.0000771  2.0083200  2
    366    372    373    382     1  0.0000000  1.2552000  3
    366    372    376    379     1  180.0000771  2.0083200  2
    366    372    376    379     1  0.0000000  1.2552000  3
    369    366    372    373     1  180.0000771  2.0083200  2
    369    366    372    373     1  0.0000000  1.2552000  3
    369    366    372    376     1  180.0000771  2.0083200  2
    369    366    372    376     1  0.0000000  1.2552000  3
    372    366    369    389     1  0.0000000  0.6508444  3
    372    373    382    386     1  0.0000000  0.6508444  3
    372    376    379    385     1  0.0000000  0.6508444  3
    373    372    376    379     1  180.0000771  2.0083200  2
    373    372    376    379     1  0.0000000  1.2552000  3
    373    382    386    388     1  180.0000771  0.0000000  2
    373    382    386    828     1  0.0000000  0.2928800  2
    373    382    386    828     1  0.0000000  0.4184000  4
    376    372    373    382     1  180.0000771  2.0083200  2
    376    372    373    382     1  0.0000000  1.2552000  3
    376    379    385    799     1  0.0000000  0.2928800  2
    376    379    385    799     1  0.0000000  0.4184000  4
    376    379    385    387     1  180.0000771  0.0000000  2
    379    385    799    801     1  180.0000771  6.2760000  1
    379    385    799    801     1  0.0000000  0.0000000  2
    382    386    828    830     1  180.0000771  6.2760000  1
    382    386    828    830     1  0.0000000  0.0000000  2
    385    799    801    803     1  0.0000000  2.2175200  1
    385    799    801    803     1  0.0000000  0.0000000  2
    385    799    801    803     1  180.0000771  0.6276000  3
    385    799    801    803     1  180.0000771  2.0920000  4
    386    828    830    832     1  0.0000000  2.2175200  1
    386    828    830    832     1  0.0000000  0.0000000  2
    386    828    830    832     1  180.0000771  0.6276000  3
    386    828    830    832     1  180.0000771  2.0920000  4
    387    385    799    801     1  180.0000771  10.4600000  2
    388    386    828    830     1  180.0000771  10.4600000  2
    391    397    398    407     1  180.0000771  2.0083200  2
    391    397    398    407     1  0.0000000  1.2552000  3
    391    397    401    404     1  180.0000771  2.0083200  2
    391    397    401    404     1  0.0000000  1.2552000  3
    394    391    397    398     1  180.0000771  2.0083200  2
    394    391    397    398     1  0.0000000  1.2552000  3
    394    391    397    401     1  180.0000771  2.0083200  2
    394    391    397    401     1  0.0000000  1.2552000  3
    397    391    394    414     1  0.0000000  0.6508444  3
    397    398    407    411     1  0.0000000  0.6508444  3
    397    401    404    410     1  0.0000000  0.6508444  3
    398    397    401    404     1  180.0000771  2.0083200  2
    398    397    401    404     1  0.0000000  1.2552000  3
    398    407    411    413     1  180.0000771  0.0000000  2
    398    407    411    886     1  0.0000000  0.2928800  2
    398    407    411    886     1  0.0000000  0.4184000  4
    401    397    398    407     1  180.0000771  2.0083200  2
    401    397    398    407     1  0.0000000  1.2552000  3
    401    404    410    857     1  0.0000000  0.2928800  2
    401    404    410    857     1  0.0000000  0.4184000  4
    401    404    410    412     1  180.0000771  0.0000000  2
    404    410    857    859     1  180.0000771  6.2760000  1
    404    410    857    859     1  0.0000000  0.0000000  2
    407    411    886    888     1  180.0000771  6.2760000  1
    407    411    886    888     1  0.0000000  0.0000000  2
    410    857    859    861     1  0.0000000  2.2175200  1
    410    857    859    861     1  0.0000000  0.0000000  2
    410    857    859    861     1  180.0000771  0.6276000  3
    410    857    859    861     1  180.0000771  2.0920000  4
    411    886    888    890     1  0.0000000  2.2175200  1
    411    886    888    890     1  0.0000000  0.0000000  2
    411    886    888    890     1  180.0000771  0.6276000  3
    411    886    888    890     1  180.0000771  2.0920000  4
    412    410    857    859     1  180.0000771  10.4600000  2
    413    411    886    888     1  180.0000771  10.4600000  2
    416    422    423    432     1  180.0000771  2.0083200  2
    416    422    423    432     1  0.0000000  1.2552000  3
    416    422    426    429     1  180.0000771  2.0083200  2
    416    422    426    429     1  0.0000000  1.2552000  3
    419    416    422    423     1  180.0000771  2.0083200  2
    419    416    422    423     1  0.0000000  1.2552000  3
    419    416    422    426     1  180.0000771  2.0083200  2
    419    416    422    426     1  0.0000000  1.2552000  3
    422    416    419    439     1  0.0000000  0.6508444  3
    422    423    432    436     1  0.0000000  0.6508444  3
    422    426    429    435     1  0.0000000  0.6508444  3
    423    422    426    429     1  180.0000771  2.0083200  2
    423    422    426    429     1  0.0000000  1.2552000  3
    423    432    436    438     1  180.0000771  0.0000000  2
    423    432    436    944     1  0.0000000  0.2928800  2
    423    432    436    944     1  0.0000000  0.4184000  4
    426    422    423    432     1  180.0000771  2.0083200  2
    426    422    423    432     1  0.0000000  1.2552000  3
    426    429    435    915     1  0.0000000  0.2928800  2
    426    429    435    915     1  0.0000000  0.4184000  4
    426    429    435    437     1  180.0000771  0.0000000  2
    429    435    915    917     1  180.0000771  6.2760000  1
    429    435    915    917     1  0.0000000  0.0000000  2
    432    436    944    946     1  180.0000771  6.2760000  1
    432    436    944    946     1  0.0000000  0.0000000  2
    435    915    917    919     1  0.0000000  2.2175200  1
    435    915    917    919     1  0.0000000  0.0000000  2
    435    915    917    919     1  180.0000771  0.6276000  3
    435    915    917    919     1  180.0000771  2.0920000  4
    436    944    946    948     1  0.0000000  2.2175200  1
    436    944    946    948     1  0.0000000  0.0000000  2
    436    944    946    948     1  180.0000771  0.6276000  3
    436    944    946    948     1  180.0000771  2.0920000  4
    437    435    915    917     1  180.0000771  10.4600000  2
    438    436    944    946     1  180.0000771  10.4600000  2
    441    447    448    457     1  180.0000771  2.0083200  2
    441    447    448    457     1  0.0000000  1.2552000  3
    441    447    451    454     1  180.0000771  2.0083200  2
    441    447    451    454     1  0.0000000  1.2552000  3
    444    441    447    448     1  180.0000771  2.0083200  2
    444    441    447    448     1  0.0000000  1.2552000  3
    444    441    447    451     1  180.0000771  2.0083200  2
    444    441    447    451     1  0.0000000  1.2552000  3
    447    441    444    464     1  0.0000000  0.6508444  3
    447    448    457    461     1  0.0000000  0.6508444  3
    447    451    454    460     1  0.0000000  0.6508444  3
    448    447    451    454     1  180.0000771  2.0083200  2
    448    447    451    454     1  0.0000000  1.2552000  3
    448    457    461    463     1  180.0000771  0.0000000  2
    448    457    461   1002     1  0.0000000  0.2928800  2
    448    457    461   1002     1  0.0000000  0.4184000  4
    451    447    448    457     1  180.0000771  2.0083200  2
    451    447    448    457     1  0.0000000  1.2552000  3
    451    454    460    973     1  0.0000000  0.2928800  2
    451    454    460    973     1  0.0000000  0.4184000  4
    451    454    460    462     1  180.0000771  0.0000000  2
    454    460    973    975     1  180.0000771  6.2760000  1
    454    460    973    975     1  0.0000000  0.0000000  2
    457    461   1002   1004     1  180.0000771  6.2760000  1
    457    461   1002   1004     1  0.0000000  0.0000000  2
    460    973    975    977     1  0.0000000  2.2175200  1
    460    973    975    977     1  0.0000000  0.0000000  2
    460    973    975    977     1  180.0000771  0.6276000  3
    460    973    975    977     1  180.0000771  2.0920000  4
    461   1002   1004   1006     1  0.0000000  2.2175200  1
    461   1002   1004   1006     1  0.0000000  0.0000000  2
    461   1002   1004   1006     1  180.0000771  0.6276000  3
    461   1002   1004   1006     1  180.0000771  2.0920000  4
    462    460    973    975     1  180.0000771  10.4600000  2
    463    461   1002   1004     1  180.0000771  10.4600000  2
    466    472    473    482     1  180.0000771  2.0083200  2
    466    472    473    482     1  0.0000000  1.2552000  3
    466    472    476    479     1  180.0000771  2.0083200  2
    466    472    476    479     1  0.0000000  1.2552000  3
    469    466    472    473     1  180.0000771  2.0083200  2
    469    466    472    473     1  0.0000000  1.2552000  3
    469    466    472    476     1  180.0000771  2.0083200  2
    469    466    472    476     1  0.0000000  1.2552000  3
    472    466    469    489     1  0.0000000  0.6508444  3
    472    473    482    486     1  0.0000000  0.6508444  3
    472    476    479    485     1  0.0000000  0.6508444  3
    473    472    476    479     1  180.0000771  2.0083200  2
    473    472    476    479     1  0.0000000  1.2552000  3
    473    482    486    488     1  180.0000771  0.0000000  2
    473    482    486   1060     1  0.0000000  0.2928800  2
    473    482    486   1060     1  0.0000000  0.4184000  4
    476    472    473    482     1  180.0000771  2.0083200  2
    476    472    473    482     1  0.0000000  1.2552000  3
    476    479    485   1031     1  0.0000000  0.2928800  2
    476    479    485   1031     1  0.0000000  0.4184000  4
    476    479    485    487     1  180.0000771  0.0000000  2
    479    485   1031   1033     1  180.0000771  6.2760000  1
    479    485   1031   1033     1  0.0000000  0.0000000  2
    482    486   1060   1062     1  180.0000771  6.2760000  1
    482    486   1060   1062     1  0.0000000  0.0000000  2
    485   1031   1033   1035     1  0.0000000  2.2175200  1
    485   1031   1033   1035     1  0.0000000  0.0000000  2
    485   1031   1033   1035     1  180.0000771  0.6276000  3
    485   1031   1033   1035     1  180.0000771  2.0920000  4
    486   1060   1062   1064     1  0.0000000  2.2175200  1
    486   1060   1062   1064     1  0.0000000  0.0000000  2
    486   1060   1062   1064     1  180.0000771  0.6276000  3
    486   1060   1062   1064     1  180.0000771  2.0920000  4
    487    485   1031   1033     1  180.0000771  10.4600000  2
    488    486   1060   1062     1  180.0000771  10.4600000  2
    491    497    498    507     1  180.0000771  2.0083200  2
    491    497    498    507     1  0.0000000  1.2552000  3
    491    497    501    504     1  180.0000771  2.0083200  2
    491    497    501    504     1  0.0000000  1.2552000  3
    494    491    497    498     1  180.0000771  2.0083200  2
    494    491    497    498     1  0.0000000  1.2552000  3
    494    491    497    501     1  180.0000771  2.0083200  2
    494    491    497    501     1  0.0000000  1.2552000  3
    497    491    494    514     1  0.0000000  0.6508444  3
    497    498    507    511     1  0.0000000  0.6508444  3
    497    501    504    510     1  0.0000000  0.6508444  3
    498    497    501    504     1  180.0000771  2.0083200  2
    498    497    501    504     1  0.0000000  1.2552000  3
    498    507    511    513     1  180.0000771  0.0000000  2
    498    507    511   1118     1  0.0000000  0.2928800  2
    498    507    511   1118     1  0.0000000  0.4184000  4
    501    497    498    507     1  180.0000771  2.0083200  2
    501    497    498    507     1  0.0000000  1.2552000  3
    501    504    510   1089     1  0.0000000  0.2928800  2
    501    504    510   1089     1  0.0000000  0.4184000  4
    501    504    510    512     1  180.0000771  0.0000000  2
    504    510   1089   1091     1  180.0000771  6.2760000  1
    504    510   1089   1091     1  0.0000000  0.0000000  2
    507    511   1118   1120     1  180.0000771  6.2760000  1
    507    511   1118   1120     1  0.0000000  0.0000000  2
    510   1089   1091   1093     1  0.0000000  2.2175200  1
    510   1089   1091   1093     1  0.0000000  0.0000000  2
    510   1089   1091   1093     1  180.0000771  0.6276000  3
    510   1089   1091   1093     1  180.0000771  2.0920000  4
    511   1118   1120   1122     1  0.0000000  2.2175200  1
    511   1118   1120   1122     1  0.0000000  0.0000000  2
    511   1118   1120   1122     1  180.0000771  0.6276000  3
    511   1118   1120   1122     1  180.0000771  2.0920000  4
    512    510   1089   1091     1  180.0000771  10.4600000  2
    513    511   1118   1120     1  180.0000771  10.4600000  2
    516    522    523    532     1  180.0000771  2.0083200  2
    516    522    523    532     1  0.0000000  1.2552000  3
    516    522    526    529     1  180.0000771  2.0083200  2
    516    522    526    529     1  0.0000000  1.2552000  3
    519    516    522    523     1  180.0000771  2.0083200  2
    519    516    522    523     1  0.0000000  1.2552000  3
    519    516    522    526     1  180.0000771  2.0083200  2
    519    516    522    526     1  0.0000000  1.2552000  3
    522    516    519    539     1  0.0000000  0.6508444  3
    522    523    532    536     1  0.0000000  0.6508444  3
    522    526    529    535     1  0.0000000  0.6508444  3
    523    522    526    529     1  180.0000771  2.0083200  2
    523    522    526    529     1  0.0000000  1.2552000  3
    523    532    536    538     1  180.0000771  0.0000000  2
    523    532    536   1176     1  0.0000000  0.2928800  2
    523    532    536   1176     1  0.0000000  0.4184000  4
    526    522    523    532     1  180.0000771  2.0083200  2
    526    522    523    532     1  0.0000000  1.2552000  3
    526    529    535   1147     1  0.0000000  0.2928800  2
    526    529    535   1147     1  0.0000000  0.4184000  4
    526    529    535    537     1  180.0000771  0.0000000  2
    529    535   1147   1149     1  180.0000771  6.2760000  1
    529    535   1147   1149     1  0.0000000  0.0000000  2
    532    536   1176   1178     1  180.0000771  6.2760000  1
    532    536   1176   1178     1  0.0000000  0.0000000  2
    535   1147   1149   1151     1  0.0000000  2.2175200  1
    535   1147   1149   1151     1  0.0000000  0.0000000  2
    535   1147   1149   1151     1  180.0000771  0.6276000  3
    535   1147   1149   1151     1  180.0000771  2.0920000  4
    536   1176   1178   1180     1  0.0000000  2.2175200  1
    536   1176   1178   1180     1  0.0000000  0.0000000  2
    536   1176   1178   1180     1  180.0000771  0.6276000  3
    536   1176   1178   1180     1  180.0000771  2.0920000  4
    537    535   1147   1149     1  180.0000771  10.4600000  2
    538    536   1176   1178     1  180.0000771  10.4600000  2
    541    547    548    557     1  180.0000771  2.0083200  2
    541    547    548    557     1  0.0000000  1.2552000  3
    541    547    551    554     1  180.0000771  2.0083200  2
    541    547    551    554     1  0.0000000  1.2552000  3
    544    541    547    548     1  180.0000771  2.0083200  2
    544    541    547    548     1  0.0000000  1.2552000  3
    544    541    547    551     1  180.0000771  2.0083200  2
    544    541    547    551     1  0.0000000  1.2552000  3
    547    541    544    564     1  0.0000000  0.6508444  3
    547    548    557    561     1  0.0000000  0.6508444  3
    547    551    554    560     1  0.0000000  0.6508444  3
    548    547    551    554     1  180.0000771  2.0083200  2
    548    547    551    554     1  0.0000000  1.2552000  3
    548    557    561    563     1  180.0000771  0.0000000  2
    548    557    561   1234     1  0.0000000  0.2928800  2
    548    557    561   1234     1  0.0000000  0.4184000  4
    551    547    548    557     1  180.0000771  2.0083200  2
    551    547    548    557     1  0.0000000  1.2552000  3
    551    554    560   1205     1  0.0000000  0.2928800  2
    551    554    560   1205     1  0.0000000  0.4184000  4
    551    554    560    562     1  180.0000771  0.0000000  2
    554    560   1205   1207     1  180.0000771  6.2760000  1
    554    560   1205   1207     1  0.0000000  0.0000000  2
    557    561   1234   1236     1  180.0000771  6.2760000  1
    557    561   1234   1236     1  0.0000000  0.0000000  2
    560   1205   1207   1209     1  0.0000000  2.2175200  1
    560   1205   1207   1209     1  0.0000000  0.0000000  2
    560   1205   1207   1209     1  180.0000771  0.6276000  3
    560   1205   1207   1209     1  180.0000771  2.0920000  4
    561   1234   1236   1238     1  0.0000000  2.2175200  1
    561   1234   1236   1238     1  0.0000000  0.0000000  2
    561   1234   1236   1238     1  180.0000771  0.6276000  3
    561   1234   1236   1238     1  180.0000771  2.0920000  4
    562    560   1205   1207     1  180.0000771  10.4600000  2
    563    561   1234   1236     1  180.0000771  10.4600000  2
    566    572    573    582     1  180.0000771  2.0083200  2
    566    572    573    582     1  0.0000000  1.2552000  3
    566    572    576    579     1  180.0000771  2.0083200  2
    566    572    576    579     1  0.0000000  1.2552000  3
    569    566    572    573     1  180.0000771  2.0083200  2
    569    566    572    573     1  0.0000000  1.2552000  3
    569    566    572    576     1  180.0000771  2.0083200  2
    569    566    572    576     1  0.0000000  1.2552000  3
    572    566    569    589     1  0.0000000  0.6508444  3
    572    573    582    586     1  0.0000000  0.6508444  3
    572    576    579    585     1  0.0000000  0.6508444  3
    573    572    576    579     1  180.0000771  2.0083200  2
    573    572    576    579     1  0.0000000  1.2552000  3
    573    582    586    588     1  180.0000771  0.0000000  2
    573    582    586   1292     1  0.0000000  0.2928800  2
    573    582    586   1292     1  0.0000000  0.4184000  4
    576    572    573    582     1  180.0000771  2.0083200  2
    576    572    573    582     1  0.0000000  1.2552000  3
    576    579    585   1263     1  0.0000000  0.2928800  2
    576    579    585   1263     1  0.0000000  0.4184000  4
    576    579    585    587     1  180.0000771  0.0000000  2
    579    585   1263   1265     1  180.0000771  6.2760000  1
    579    585   1263   1265     1  0.0000000  0.0000000  2
    582    586   1292   1294     1  180.0000771  6.2760000  1
    582    586   1292   1294     1  0.0000000  0.0000000  2
    585   1263   1265   1267     1  0.0000000  2.2175200  1
    585   1263   1265   1267     1  0.0000000  0.0000000  2
    585   1263   1265   1267     1  180.0000771  0.6276000  3
    585   1263   1265   1267     1  180.0000771  2.0920000  4
    586   1292   1294   1296     1  0.0000000  2.2175200  1
    586   1292   1294   1296     1  0.0000000  0.0000000  2
    586   1292   1294   1296     1  180.0000771  0.6276000  3
    586   1292   1294   1296     1  180.0000771  2.0920000  4
    587    585   1263   1265     1  180.0000771  10.4600000  2
    588    586   1292   1294     1  180.0000771  10.4600000  2
    591    597    598    607     1  180.0000771  2.0083200  2
    591    597    598    607     1  0.0000000  1.2552000  3
    591    597    601    604     1  180.0000771  2.0083200  2
    591    597    601    604     1  0.0000000  1.2552000  3
    594    591    597    598     1  180.0000771  2.0083200  2
    594    591    597    598     1  0.0000000  1.2552000  3
    594    591    597    601     1  180.0000771  2.0083200  2
    594    591    597    601     1  0.0000000  1.2552000  3
    597    591    594    614     1  0.0000000  0.6508444  3
    597    598    607    611     1  0.0000000  0.6508444  3
    597    601    604    610     1  0.0000000  0.6508444  3
    598    597    601    604     1  180.0000771  2.0083200  2
    598    597    601    604     1  0.0000000  1.2552000  3
    598    607    611    613     1  180.0000771  0.0000000  2
    598    607    611   1350     1  0.0000000  0.2928800  2
    598    607    611   1350     1  0.0000000  0.4184000  4
    601    597    598    607     1  180.0000771  2.0083200  2
    601    597    598    607     1  0.0000000  1.2552000  3
    601    604    610   1321     1  0.0000000  0.2928800  2
    601    604    610   1321     1  0.0000000  0.4184000  4
    601    604    610    612     1  180.0000771  0.0000000  2
    604    610   1321   1323     1  180.0000771  6.2760000  1
    604    610   1321   1323     1  0.0000000  0.0000000  2
    607    611   1350   1352     1  180.0000771  6.2760000  1
    607    611   1350   1352     1  0.0000000  0.0000000  2
    610   1321   1323   1325     1  0.0000000  2.2175200  1
    610   1321   1323   1325     1  0.0000000  0.0000000  2
    610   1321   1323   1325     1  180.0000771  0.6276000  3
    610   1321   1323   1325     1  180.0000771  2.0920000  4
    611   1350   1352   1354     1  0.0000000  2.2175200  1
    611   1350   1352   1354     1  0.0000000  0.0000000  2
    611   1350   1352   1354     1  180.0000771  0.6276000  3
    611   1350   1352   1354     1  180.0000771  2.0920000  4
    612    610   1321   1323     1  180.0000771  10.4600000  2
    613    611   1350   1352     1  180.0000771  10.4600000  2
    616    622    623    632     1  180.0000771  2.0083200  2
    616    622    623    632     1  0.0000000  1.2552000  3
    616    622    626    629     1  180.0000771  2.0083200  2
    616    622    626    629     1  0.0000000  1.2552000  3
    619    616    622    623     1  180.0000771  2.0083200  2
    619    616    622    623     1  0.0000000  1.2552000  3
    619    616    622    626     1  180.0000771  2.0083200  2
    619    616    622    626     1  0.0000000  1.2552000  3
    622    616    619    639     1  0.0000000  0.6508444  3
    622    623    632    636     1  0.0000000  0.6508444  3
    622    626    629    635     1  0.0000000  0.6508444  3
    623    622    626    629     1  180.0000771  2.0083200  2
    623    622    626    629     1  0.0000000  1.2552000  3
    623    632    636    638     1  180.0000771  0.0000000  2
    623    632    636   1408     1  0.0000000  0.2928800  2
    623    632    636   1408     1  0.0000000  0.4184000  4
    626    622    623    632     1  180.0000771  2.0083200  2
    626    622    623    632     1  0.0000000  1.2552000  3
    626    629    635   1379     1  0.0000000  0.2928800  2
    626    629    635   1379     1  0.0000000  0.4184000  4
    626    629    635    637     1  180.0000771  0.0000000  2
    629    635   1379   1381     1  180.0000771  6.2760000  1
    629    635   1379   1381     1  0.0000000  0.0000000  2
    632    636   1408   1410     1  180.0000771  6.2760000  1
    632    636   1408   1410     1  0.0000000  0.0000000  2
    635   1379   1381   1383     1  0.0000000  2.2175200  1
    635   1379   1381   1383     1  0.0000000  0.0000000  2
    635   1379   1381   1383     1  180.0000771  0.6276000  3
    635   1379   1381   1383     1  180.0000771  2.0920000  4
    636   1408   1410   1412     1  0.0000000  2.2175200  1
    636   1408   1410   1412     1  0.0000000  0.0000000  2
    636   1408   1410   1412     1  180.0000771  0.6276000  3
    636   1408   1410   1412     1  180.0000771  2.0920000  4
    637    635   1379   1381     1  180.0000771  10.4600000  2
    638    636   1408   1410     1  180.0000771  10.4600000  2
    641    647    648    657     1  180.0000771  2.0083200  2
    641    647    648    657     1  0.0000000  1.2552000  3
    641    647    651    654     1  180.0000771  2.0083200  2
    641    647    651    654     1  0.0000000  1.2552000  3
    644    641    647    648     1  180.0000771  2.0083200  2
    644    641    647    648     1  0.0000000  1.2552000  3
    644    641    647    651     1  180.0000771  2.0083200  2
    644    641    647    651     1  0.0000000  1.2552000  3
    647    641    644    664     1  0.0000000  0.6508444  3
    647    648    657    661     1  0.0000000  0.6508444  3
    647    651    654    660     1  0.0000000  0.6508444  3
    648    647    651    654     1  180.0000771  2.0083200  2
    648    647    651    654     1  0.0000000  1.2552000  3
    648    657    661    663     1  180.0000771  0.0000000  2
    648    657    661   1466     1  0.0000000  0.2928800  2
    648    657    661   1466     1  0.0000000  0.4184000  4
    651    647    648    657     1  180.0000771  2.0083200  2
    651    647    648    657     1  0.0000000  1.2552000  3
    651    654    660   1437     1  0.0000000  0.2928800  2
    651    654    660   1437     1  0.0000000  0.4184000  4
    651    654    660    662     1  180.0000771  0.0000000  2
    654    660   1437   1439     1  180.0000771  6.2760000  1
    654    660   1437   1439     1  0.0000000  0.0000000  2
    657    661   1466   1468     1  180.0000771  6.2760000  1
    657    661   1466   1468     1  0.0000000  0.0000000  2
    660   1437   1439   1441     1  0.0000000  2.2175200  1
    660   1437   1439   1441     1  0.0000000  0.0000000  2
    660   1437   1439   1441     1  180.0000771  0.6276000  3
    660   1437   1439   1441     1  180.0000771  2.0920000  4
    661   1466   1468   1470     1  0.0000000  2.2175200  1
    661   1466   1468   1470     1  0.0000000  0.0000000  2
    661   1466   1468   1470     1  180.0000771  0.6276000  3
    661   1466   1468   1470     1  180.0000771  2.0920000  4
    662    660   1437   1439     1  180.0000771  10.4600000  2
    663    661   1466   1468     1  180.0000771  10.4600000  2
    666    672    673    682     1  180.0000771  2.0083200  2
    666    672    673    682     1  0.0000000  1.2552000  3
    666    672    676    679     1  180.0000771  2.0083200  2
    666    672    676    679     1  0.0000000  1.2552000  3
    669    666    672    673     1  180.0000771  2.0083200  2
    669    666    672    673     1  0.0000000  1.2552000  3
    669    666    672    676     1  180.0000771  2.0083200  2
    669    666    672    676     1  0.0000000  1.2552000  3
    672    666    669    689     1  0.0000000  0.6508444  3
    672    673    682    686     1  0.0000000  0.6508444  3
    672    676    679    685     1  0.0000000  0.6508444  3
    673    672    676    679     1  180.0000771  2.0083200  2
    673    672    676    679     1  0.0000000  1.2552000  3
    673    682    686    688     1  180.0000771  0.0000000  2
    673    682    686   1524     1  0.0000000  0.2928800  2
    673    682    686   1524     1  0.0000000  0.4184000  4
    676    672    673    682     1  180.0000771  2.0083200  2
    676    672    673    682     1  0.0000000  1.2552000  3
    676    679    685   1495     1  0.0000000  0.2928800  2
    676    679    685   1495     1  0.0000000  0.4184000  4
    676    679    685    687     1  180.0000771  0.0000000  2
    679    685   1495   1497     1  180.0000771  6.2760000  1
    679    685   1495   1497     1  0.0000000  0.0000000  2
    682    686   1524   1526     1  180.0000771  6.2760000  1
    682    686   1524   1526     1  0.0000000  0.0000000  2
    685   1495   1497   1499     1  0.0000000  2.2175200  1
    685   1495   1497   1499     1  0.0000000  0.0000000  2
    685   1495   1497   1499     1  180.0000771  0.6276000  3
    685   1495   1497   1499     1  180.0000771  2.0920000  4
    686   1524   1526   1528     1  0.0000000  2.2175200  1
    686   1524   1526   1528     1  0.0000000  0.0000000  2
    686   1524   1526   1528     1  180.0000771  0.6276000  3
    686   1524   1526   1528     1  180.0000771  2.0920000  4
    687    685   1495   1497     1  180.0000771  10.4600000  2
    688    686   1524   1526     1  180.0000771  10.4600000  2
    691    697    698    707     1  180.0000771  2.0083200  2
    691    697    698    707     1  0.0000000  1.2552000  3
    691    697    701    704     1  180.0000771  2.0083200  2
    691    697    701    704     1  0.0000000  1.2552000  3
    694    691    697    698     1  180.0000771  2.0083200  2
    694    691    697    698     1  0.0000000  1.2552000  3
    694    691    697    701     1  180.0000771  2.0083200  2
    694    691    697    701     1  0.0000000  1.2552000  3
    697    691    694    714     1  0.0000000  0.6508444  3
    697    698    707    711     1  0.0000000  0.6508444  3
    697    701    704    710     1  0.0000000  0.6508444  3
    698    697    701    704     1  180.0000771  2.0083200  2
    698    697    701    704     1  0.0000000  1.2552000  3
    698    707    711    713     1  180.0000771  0.0000000  2
    698    707    711   1582     1  0.0000000  0.2928800  2
    698    707    711   1582     1  0.0000000  0.4184000  4
    701    697    698    707     1  180.0000771  2.0083200  2
    701    697    698    707     1  0.0000000  1.2552000  3
    701    704    710   1553     1  0.0000000  0.2928800  2
    701    704    710   1553     1  0.0000000  0.4184000  4
    701    704    710    712     1  180.0000771  0.0000000  2
    704    710   1553   1555     1  180.0000771  6.2760000  1
    704    710   1553   1555     1  0.0000000  0.0000000  2
    707    711   1582   1584     1  180.0000771  6.2760000  1
    707    711   1582   1584     1  0.0000000  0.0000000  2
    710   1553   1555   1557     1  0.0000000  2.2175200  1
    710   1553   1555   1557     1  0.0000000  0.0000000  2
    710   1553   1555   1557     1  180.0000771  0.6276000  3
    710   1553   1555   1557     1  180.0000771  2.0920000  4
    711   1582   1584   1586     1  0.0000000  2.2175200  1
    711   1582   1584   1586     1  0.0000000  0.0000000  2
    711   1582   1584   1586     1  180.0000771  0.6276000  3
    711   1582   1584   1586     1  180.0000771  2.0920000  4
    712    710   1553   1555     1  180.0000771  10.4600000  2
    713    711   1582   1584     1  180.0000771  10.4600000  2
    716    722    723    732     1  180.0000771  2.0083200  2
    716    722    723    732     1  0.0000000  1.2552000  3
    716    722    726    729     1  180.0000771  2.0083200  2
    716    722    726    729     1  0.0000000  1.2552000  3
    719    716    722    723     1  180.0000771  2.0083200  2
    719    716    722    723     1  0.0000000  1.2552000  3
    719    716    722    726     1  180.0000771  2.0083200  2
    719    716    722    726     1  0.0000000  1.2552000  3
    722    716    719    739     1  0.0000000  0.6508444  3
    722    723    732    736     1  0.0000000  0.6508444  3
    722    726    729    735     1  0.0000000  0.6508444  3
    723    722    726    729     1  180.0000771  2.0083200  2
    723    722    726    729     1  0.0000000  1.2552000  3
    723    732    736   1640     1  0.0000000  0.2928800  2
    723    732    736   1640     1  0.0000000  0.4184000  4
    723    732    736    738     1  180.0000771  0.0000000  2
    726    722    723    732     1  180.0000771  2.0083200  2
    726    722    723    732     1  0.0000000  1.2552000  3
    726    729    735   1611     1  0.0000000  0.2928800  2
    726    729    735   1611     1  0.0000000  0.4184000  4
    726    729    735    737     1  180.0000771  0.0000000  2
    729    735   1611   1613     1  180.0000771  6.2760000  1
    729    735   1611   1613     1  0.0000000  0.0000000  2
    732    736   1640   1642     1  180.0000771  6.2760000  1
    732    736   1640   1642     1  0.0000000  0.0000000  2
    735   1611   1613   1615     1  0.0000000  2.2175200  1
    735   1611   1613   1615     1  0.0000000  0.0000000  2
    735   1611   1613   1615     1  180.0000771  0.6276000  3
    735   1611   1613   1615     1  180.0000771  2.0920000  4
    736   1640   1642   1644     1  0.0000000  2.2175200  1
    736   1640   1642   1644     1  0.0000000  0.0000000  2
    736   1640   1642   1644     1  180.0000771  0.6276000  3
    736   1640   1642   1644     1  180.0000771  2.0920000  4
    737    735   1611   1613     1  180.0000771  10.4600000  2
    738    736   1640   1642     1  180.0000771  10.4600000  2
    741    743    745    749     1  0.0000000  0.6508444  3
    743    745    749    750     1  180.0000771  2.0083200  2
    743    745    749    750     1  0.0000000  1.2552000  3
    743    745    749    751     1  180.0000771  2.0083200  2
    743    745    749    751     1  0.0000000  1.2552000  3
    745    749    750    762     1  180.0000771  2.0083200  2
    745    749    750    762     1  0.0000000  1.2552000  3
    745    749    751    753     1  180.0000771  2.0083200  2
    745    749    751    753     1  0.0000000  1.2552000  3
    749    750    762    765     1  0.0000000  0.6508444  3
    749    751    753    757     1  0.0000000  0.6508444  3
    750    749    751    753     1  180.0000771  2.0083200  2
    750    749    751    753     1  0.0000000  1.2552000  3
    750    762    765    766     1  180.0000771  0.0000000  2
    750    762    765    767     1  180.0000771  0.0000000  2
    751    749    750    762     1  180.0000771  2.0083200  2
    751    749    750    762     1  0.0000000  1.2552000  3
    751    753    757    758     1  180.0000771  0.0000000  2
    751    753    757    759     1  180.0000771  0.0000000  2
    770    772    774    778     1  0.0000000  0.6508444  3
    772    774    778    779     1  180.0000771  2.0083200  2
    772    774    778    779     1  0.0000000  1.2552000  3
    772    774    778    780     1  180.0000771  2.0083200  2
    772    774    778    780     1  0.0000000  1.2552000  3
    774    778    779    791     1  180.0000771  2.0083200  2
    774    778    779    791     1  0.0000000  1.2552000  3
    774    778    780    782     1  180.0000771  2.0083200  2
    774    778    780    782     1  0.0000000  1.2552000  3
    778    779    791    794     1  0.0000000  0.6508444  3
    778    780    782    786     1  0.0000000  0.6508444  3
    779    791    794    795     1  180.0000771  0.0000000  2
    779    791    794    796     1  180.0000771  0.0000000  2
    779    778    780    782     1  180.0000771  2.0083200  2
    779    778    780    782     1  0.0000000  1.2552000  3
    780    782    786    787     1  180.0000771  0.0000000  2
    780    782    786    788     1  180.0000771  0.0000000  2
    780    778    779    791     1  180.0000771  2.0083200  2
    780    778    779    791     1  0.0000000  1.2552000  3
    799    801    803    807     1  0.0000000  0.6508444  3
    801    803    807    808     1  180.0000771  2.0083200  2
    801    803    807    808     1  0.0000000  1.2552000  3
    801    803    807    809     1  180.0000771  2.0083200  2
    801    803    807    809     1  0.0000000  1.2552000  3
    803    807    808    820     1  180.0000771  2.0083200  2
    803    807    808    820     1  0.0000000  1.2552000  3
    803    807    809    811     1  180.0000771  2.0083200  2
    803    807    809    811     1  0.0000000  1.2552000  3
    807    808    820    823     1  0.0000000  0.6508444  3
    807    809    811    815     1  0.0000000  0.6508444  3
    808    807    809    811     1  180.0000771  2.0083200  2
    808    807    809    811     1  0.0000000  1.2552000  3
    808    820    823    824     1  180.0000771  0.0000000  2
    808    820    823    825     1  180.0000771  0.0000000  2
    809    807    808    820     1  180.0000771  2.0083200  2
    809    807    808    820     1  0.0000000  1.2552000  3
    809    811    815    816     1  180.0000771  0.0000000  2
    809    811    815    817     1  180.0000771  0.0000000  2
    828    830    832    836     1  0.0000000  0.6508444  3
    830    832    836    837     1  180.0000771  2.0083200  2
    830    832    836    837     1  0.0000000  1.2552000  3
    830    832    836    838     1  180.0000771  2.0083200  2
    830    832    836    838     1  0.0000000  1.2552000  3
    832    836    837    849     1  180.0000771  2.0083200  2
    832    836    837    849     1  0.0000000  1.2552000  3
    832    836    838    840     1  180.0000771  2.0083200  2
    832    836    838    840     1  0.0000000  1.2552000  3
    836    837    849    852     1  0.0000000  0.6508444  3
    836    838    840    844     1  0.0000000  0.6508444  3
    837    849    852    853     1  180.0000771  0.0000000  2
    837    849    852    854     1  180.0000771  0.0000000  2
    837    836    838    840     1  180.0000771  2.0083200  2
    837    836    838    840     1  0.0000000  1.2552000  3
    838    840    844    845     1  180.0000771  0.0000000  2
    838    840    844    846     1  180.0000771  0.0000000  2
    838    836    837    849     1  180.0000771  2.0083200  2
    838    836    837    849     1  0.0000000  1.2552000  3
    857    859    861    865     1  0.0000000  0.6508444  3
    859    861    865    866     1  180.0000771  2.0083200  2
    859    861    865    866     1  0.0000000  1.2552000  3
    859    861    865    867     1  180.0000771  2.0083200  2
    859    861    865    867     1  0.0000000  1.2552000  3
    861    865    866    878     1  180.0000771  2.0083200  2
    861    865    866    878     1  0.0000000  1.2552000  3
    861    865    867    869     1  180.0000771  2.0083200  2
    861    865    867    869     1  0.0000000  1.2552000  3
    865    866    878    881     1  0.0000000  0.6508444  3
    865    867    869    873     1  0.0000000  0.6508444  3
    866    865    867    869     1  180.0000771  2.0083200  2
    866    865    867    869     1  0.0000000  1.2552000  3
    866    878    881    882     1  180.0000771  0.0000000  2
    866    878    881    883     1  180.0000771  0.0000000  2
    867    865    866    878     1  180.0000771  2.0083200  2
    867    865    866    878     1  0.0000000  1.2552000  3
    867    869    873    874     1  180.0000771  0.0000000  2
    867    869    873    875     1  180.0000771  0.0000000  2
    886    888    890    894     1  0.0000000  0.6508444  3
    888    890    894    895     1  180.0000771  2.0083200  2
    888    890    894    895     1  0.0000000  1.2552000  3
    888    890    894    896     1  180.0000771  2.0083200  2
    888    890    894    896     1  0.0000000  1.2552000  3
    890    894    895    907     1  180.0000771  2.0083200  2
    890    894    895    907     1  0.0000000  1.2552000  3
    890    894    896    898     1  180.0000771  2.0083200  2
    890    894    896    898     1  0.0000000  1.2552000  3
    894    895    907    910     1  0.0000000  0.6508444  3
    894    896    898    902     1  0.0000000  0.6508444  3
    895    907    910    911     1  180.0000771  0.0000000  2
    895    907    910    912     1  180.0000771  0.0000000  2
    895    894    896    898     1  180.0000771  2.0083200  2
    895    894    896    898     1  0.0000000  1.2552000  3
    896    898    902    903     1  180.0000771  0.0000000  2
    896    898    902    904     1  180.0000771  0.0000000  2
    896    894    895    907     1  180.0000771  2.0083200  2
    896    894    895    907     1  0.0000000  1.2552000  3
    915    917    919    923     1  0.0000000  0.6508444  3
    917    919    923    924     1  180.0000771  2.0083200  2
    917    919    923    924     1  0.0000000  1.2552000  3
    917    919    923    925     1  180.0000771  2.0083200  2
    917    919    923    925     1  0.0000000  1.2552000  3
    919    923    924    936     1  180.0000771  2.0083200  2
    919    923    924    936     1  0.0000000  1.2552000  3
    919    923    925    927     1  180.0000771  2.0083200  2
    919    923    925    927     1  0.0000000  1.2552000  3
    923    924    936    939     1  0.0000000  0.6508444  3
    923    925    927    931     1  0.0000000  0.6508444  3
    924    923    925    927     1  180.0000771  2.0083200  2
    924    923    925    927     1  0.0000000  1.2552000  3
    924    936    939    940     1  180.0000771  0.0000000  2
    924    936    939    941     1  180.0000771  0.0000000  2
    925    923    924    936     1  180.0000771  2.0083200  2
    925    923    924    936     1  0.0000000  1.2552000  3
    925    927    931    932     1  180.0000771  0.0000000  2
    925    927    931    933     1  180.0000771  0.0000000  2
    944    946    948    952     1  0.0000000  0.6508444  3
    946    948    952    953     1  180.0000771  2.0083200  2
    946    948    952    953     1  0.0000000  1.2552000  3
    946    948    952    954     1  180.0000771  2.0083200  2
    946    948    952    954     1  0.0000000  1.2552000  3
    948    952    953    965     1  180.0000771  2.0083200  2
    948    952    953    965     1  0.0000000  1.2552000  3
    948    952    954    956     1  180.0000771  2.0083200  2
    948    952    954    956     1  0.0000000  1.2552000  3
    952    953    965    968     1  0.0000000  0.6508444  3
    952    954    956    960     1  0.0000000  0.6508444  3
    953    965    968    969     1  180.0000771  0.0000000  2
    953    965    968    970     1  180.0000771  0.0000000  2
    953    952    954    956     1  180.0000771  2.0083200  2
    953    952    954    956     1  0.0000000  1.2552000  3
    954    956    960    961     1  180.0000771  0.0000000  2
    954    956    960    962     1  180.0000771  0.0000000  2
    954    952    953    965     1  180.0000771  2.0083200  2
    954    952    953    965     1  0.0000000  1.2552000  3
    973    975    977    981     1  0.0000000  0.6508444  3
    975    977    981    982     1  180.0000771  2.0083200  2
    975    977    981    982     1  0.0000000  1.2552000  3
    975    977    981    983     1  180.0000771  2.0083200  2
    975    977    981    983     1  0.0000000  1.2552000  3
    977    981    982    994     1  180.0000771  2.0083200  2
    977    981    982    994     1  0.0000000  1.2552000  3
    977    981    983    985     1  180.0000771  2.0083200  2
    977    981    983    985     1  0.0000000  1.2552000  3
    981    982    994    997     1  0.0000000  0.6508444  3
    981    983    985    989     1  0.0000000  0.6508444  3
    982    981    983    985     1  180.0000771  2.0083200  2
    982    981    983    985     1  0.0000000  1.2552000  3
    982    994    997    998     1  180.0000771  0.0000000  2
    982    994    997    999     1  180.0000771  0.0000000  2
    983    981    982    994     1  180.0000771  2.0083200  2
    983    981    982    994     1  0.0000000  1.2552000  3
    983    985    989    990     1  180.0000771  0.0000000  2
    983    985    989    991     1  180.0000771  0.0000000  2
   1002   1004   1006   1010     1  0.0000000  0.6508444  3
   1004   1006   1010   1011     1  180.0000771  2.0083200  2
   1004   1006   1010   1011     1  0.0000000  1.2552000  3
   1004   1006   1010   1012     1  180.0000771  2.0083200  2
   1004   1006   1010   1012     1  0.0000000  1.2552000  3
   1006   1010   1011   1023     1  180.0000771  2.0083200  2
   1006   1010   1011   1023     1  0.0000000  1.2552000  3
   1006   1010   1012   1014     1  180.0000771  2.0083200  2
   1006   1010   1012   1014     1  0.0000000  1.2552000  3
   1010   1011   1023   1026     1  0.0000000  0.6508444  3
   1010   1012   1014   1018     1  0.0000000  0.6508444  3
   1011   1023   1026   1027     1  180.0000771  0.0000000  2
   1011   1023   1026   1028     1  180.0000771  0.0000000  2
   1011   1010   1012   1014     1  180.0000771  2.0083200  2
   1011   1010   1012   1014     1  0.0000000  1.2552000  3
   1012   1014   1018   1019     1  180.0000771  0.0000000  2
   1012   1014   1018   1020     1  180.0000771  0.0000000  2
   1012   1010   1011   1023     1  180.0000771  2.0083200  2
   1012   1010   1011   1023     1  0.0000000  1.2552000  3
   1031   1033   1035   1039     1  0.0000000  0.6508444  3
   1033   1035   1039   1040     1  180.0000771  2.0083200  2
   1033   1035   1039   1040     1  0.0000000  1.2552000  3
   1033   1035   1039   1041     1  180.0000771  2.0083200  2
   1033   1035   1039   1041     1  0.0000000  1.2552000  3
   1035   1039   1040   1052     1  180.0000771  2.0083200  2
   1035   1039   1040   1052     1  0.0000000  1.2552000  3
   1035   1039   1041   1043     1  180.0000771  2.0083200  2
   1035   1039   1041   1043     1  0.0000000  1.2552000  3
   1039   1040   1052   1055     1  0.0000000  0.6508444  3
   1039   1041   1043   1047     1  0.0000000  0.6508444  3
   1040   1039   1041   1043     1  180.0000771  2.0083200  2
   1040   1039   1041   1043     1  0.0000000  1.2552000  3
   1040   1052   1055   1056     1  180.0000771  0.0000000  2
   1040   1052   1055   1057     1  180.0000771  0.0000000  2
   1041   1039   1040   1052     1  180.0000771  2.0083200  2
   1041   1039   1040   1052     1  0.0000000  1.2552000  3
   1041   1043   1047   1048     1  180.0000771  0.0000000  2
   1041   1043   1047   1049     1  180.0000771  0.0000000  2
   1060   1062   1064   1068     1  0.0000000  0.6508444  3
   1062   1064   1068   1069     1  180.0000771  2.0083200  2
   1062   1064   1068   1069     1  0.0000000  1.2552000  3
   1062   1064   1068   1070     1  180.0000771  2.0083200  2
   1062   1064   1068   1070     1  0.0000000  1.2552000  3
   1064   1068   1069   1081     1  180.0000771  2.0083200  2
   1064   1068   1069   1081     1  0.0000000  1.2552000  3
   1064   1068   1070   1072     1  180.0000771  2.0083200  2
   1064   1068   1070   1072     1  0.0000000  1.2552000  3
   1068   1069   1081   1084     1  0.0000000  0.6508444  3
   1068   1070   1072   1076     1  0.0000000  0.6508444  3
   1069   1081   1084   1085     1  180.0000771  0.0000000  2
   1069   1081   1084   1086     1  180.0000771  0.0000000  2
   1069   1068   1070   1072     1  180.0000771  2.0083200  2
   1069   1068   1070   1072     1  0.0000000  1.2552000  3
   1070   1072   1076   1077     1  180.0000771  0.0000000  2
   1070   1072   1076   1078     1  180.0000771  0.0000000  2
   1070   1068   1069   1081     1  180.0000771  2.0083200  2
   1070   1068   1069   1081     1  0.0000000  1.2552000  3
   1089   1091   1093   1097     1  0.0000000  0.6508444  3
   1091   1093   1097   1098     1  180.0000771  2.0083200  2
   1091   1093   1097   1098     1  0.0000000  1.2552000  3
   1091   1093   1097   1099     1  180.0000771  2.0083200  2
   1091   1093   1097   1099     1  0.0000000  1.2552000  3
   1093   1097   1098   1110     1  180.0000771  2.0083200  2
   1093   1097   1098   1110     1  0.0000000  1.2552000  3
   1093   1097   1099   1101     1  180.0000771  2.0083200  2
   1093   1097   1099   1101     1  0.0000000  1.2552000  3
   1097   1098   1110   1113     1  0.0000000  0.6508444  3
   1097   1099   1101   1105     1  0.0000000  0.6508444  3
   1098   1097   1099   1101     1  180.0000771  2.0083200  2
   1098   1097   1099   1101     1  0.0000000  1.2552000  3
   1098   1110   1113   1114     1  180.0000771  0.0000000  2
   1098   1110   1113   1115     1  180.0000771  0.0000000  2
   1099   1097   1098   1110     1  180.0000771  2.0083200  2
   1099   1097   1098   1110     1  0.0000000  1.2552000  3
   1099   1101   1105   1106     1  180.0000771  0.0000000  2
   1099   1101   1105   1107     1  180.0000771  0.0000000  2
   1118   1120   1122   1126     1  0.0000000  0.6508444  3
   1120   1122   1126   1127     1  180.0000771  2.0083200  2
   1120   1122   1126   1127     1  0.0000000  1.2552000  3
   1120   1122   1126   1128     1  180.0000771  2.0083200  2
   1120   1122   1126   1128     1  0.0000000  1.2552000  3
   1122   1126   1127   1139     1  180.0000771  2.0083200  2
   1122   1126   1127   1139     1  0.0000000  1.2552000  3
   1122   1126   1128   1130     1  180.0000771  2.0083200  2
   1122   1126   1128   1130     1  0.0000000  1.2552000  3
   1126   1127   1139   1142     1  0.0000000  0.6508444  3
   1126   1128   1130   1134     1  0.0000000  0.6508444  3
   1127   1139   1142   1143     1  180.0000771  0.0000000  2
   1127   1139   1142   1144     1  180.0000771  0.0000000  2
   1127   1126   1128   1130     1  180.0000771  2.0083200  2
   1127   1126   1128   1130     1  0.0000000  1.2552000  3
   1128   1130   1134   1135     1  180.0000771  0.0000000  2
   1128   1130   1134   1136     1  180.0000771  0.0000000  2
   1128   1126   1127   1139     1  180.0000771  2.0083200  2
   1128   1126   1127   1139     1  0.0000000  1.2552000  3
   1147   1149   1151   1155     1  0.0000000  0.6508444  3
   1149   1151   1155   1156     1  180.0000771  2.0083200  2
   1149   1151   1155   1156     1  0.0000000  1.2552000  3
   1149   1151   1155   1157     1  180.0000771  2.0083200  2
   1149   1151   1155   1157     1  0.0000000  1.2552000  3
   1151   1155   1156   1168     1  180.0000771  2.0083200  2
   1151   1155   1156   1168     1  0.0000000  1.2552000  3
   1151   1155   1157   1159     1  180.0000771  2.0083200  2
   1151   1155   1157   1159     1  0.0000000  1.2552000  3
   1155   1156   1168   1171     1  0.0000000  0.6508444  3
   1155   1157   1159   1163     1  0.0000000  0.6508444  3
   1156   1155   1157   1159     1  180.0000771  2.0083200  2
   1156   1155   1157   1159     1  0.0000000  1.2552000  3
   1156   1168   1171   1172     1  180.0000771  0.0000000  2
   1156   1168   1171   1173     1  180.0000771  0.0000000  2
   1157   1155   1156   1168     1  180.0000771  2.0083200  2
   1157   1155   1156   1168     1  0.0000000  1.2552000  3
   1157   1159   1163   1164     1  180.0000771  0.0000000  2
   1157   1159   1163   1165     1  180.0000771  0.0000000  2
   1176   1178   1180   1184     1  0.0000000  0.6508444  3
   1178   1180   1184   1185     1  180.0000771  2.0083200  2
   1178   1180   1184   1185     1  0.0000000  1.2552000  3
   1178   1180   1184   1186     1  180.0000771  2.0083200  2
   1178   1180   1184   1186     1  0.0000000  1.2552000  3
   1180   1184   1185   1197     1  180.0000771  2.0083200  2
   1180   1184   1185   1197     1  0.0000000  1.2552000  3
   1180   1184   1186   1188     1  180.0000771  2.0083200  2
   1180   1184   1186   1188     1  0.0000000  1.2552000  3
   1184   1185   1197   1200     1  0.0000000  0.6508444  3
   1184   1186   1188   1192     1  0.0000000  0.6508444  3
   1185   1197   1200   1201     1  180.0000771  0.0000000  2
   1185   1197   1200   1202     1  180.0000771  0.0000000  2
   1185   1184   1186   1188     1  180.0000771  2.0083200  2
   1185   1184   1186   1188     1  0.0000000  1.2552000  3
   1186   1188   1192   1193     1  180.0000771  0.0000000  2
   1186   1188   1192   1194     1  180.0000771  0.0000000  2
   1186   1184   1185   1197     1  180.0000771  2.0083200  2
   1186   1184   1185   1197     1  0.0000000  1.2552000  3
   1205   1207   1209   1213     1  0.0000000  0.6508444  3
   1207   1209   1213   1214     1  180.0000771  2.0083200  2
   1207   1209   1213   1214     1  0.0000000  1.2552000  3
   1207   1209   1213   1215     1  180.0000771  2.0083200  2
   1207   1209   1213   1215     1  0.0000000  1.2552000  3
   1209   1213   1214   1226     1  180.0000771  2.0083200  2
   1209   1213   1214   1226     1  0.0000000  1.2552000  3
   1209   1213   1215   1217     1  180.0000771  2.0083200  2
   1209   1213   1215   1217     1  0.0000000  1.2552000  3
   1213   1214   1226   1229     1  0.0000000  0.6508444  3
   1213   1215   1217   1221     1  0.0000000  0.6508444  3
   1214   1213   1215   1217     1  180.0000771  2.0083200  2
   1214   1213   1215   1217     1  0.0000000  1.2552000  3
   1214   1226   1229   1230     1  180.0000771  0.0000000  2
   1214   1226   1229   1231     1  180.0000771  0.0000000  2
   1215   1213   1214   1226     1  180.0000771  2.0083200  2
   1215   1213   1214   1226     1  0.0000000  1.2552000  3
   1215   1217   1221   1222     1  180.0000771  0.0000000  2
   1215   1217   1221   1223     1  180.0000771  0.0000000  2
   1234   1236   1238   1242     1  0.0000000  0.6508444  3
   1236   1238   1242   1243     1  180.0000771  2.0083200  2
   1236   1238   1242   1243     1  0.0000000  1.2552000  3
   1236   1238   1242   1244     1  180.0000771  2.0083200  2
   1236   1238   1242   1244     1  0.0000000  1.2552000  3
   1238   1242   1243   1255     1  180.0000771  2.0083200  2
   1238   1242   1243   1255     1  0.0000000  1.2552000  3
   1238   1242   1244   1246     1  180.0000771  2.0083200  2
   1238   1242   1244   1246     1  0.0000000  1.2552000  3
   1242   1243   1255   1258     1  0.0000000  0.6508444  3
   1242   1244   1246   1250     1  0.0000000  0.6508444  3
   1243   1255   1258   1259     1  180.0000771  0.0000000  2
   1243   1255   1258   1260     1  180.0000771  0.0000000  2
   1243   1242   1244   1246     1  180.0000771  2.0083200  2
   1243   1242   1244   1246     1  0.0000000  1.2552000  3
   1244   1246   1250   1251     1  180.0000771  0.0000000  2
   1244   1246   1250   1252     1  180.0000771  0.0000000  2
   1244   1242   1243   1255     1  180.0000771  2.0083200  2
   1244   1242   1243   1255     1  0.0000000  1.2552000  3
   1263   1265   1267   1271     1  0.0000000  0.6508444  3
   1265   1267   1271   1272     1  180.0000771  2.0083200  2
   1265   1267   1271   1272     1  0.0000000  1.2552000  3
   1265   1267   1271   1273     1  180.0000771  2.0083200  2
   1265   1267   1271   1273     1  0.0000000  1.2552000  3
   1267   1271   1272   1284     1  180.0000771  2.0083200  2
   1267   1271   1272   1284     1  0.0000000  1.2552000  3
   1267   1271   1273   1275     1  180.0000771  2.0083200  2
   1267   1271   1273   1275     1  0.0000000  1.2552000  3
   1271   1272   1284   1287     1  0.0000000  0.6508444  3
   1271   1273   1275   1279     1  0.0000000  0.6508444  3
   1272   1271   1273   1275     1  180.0000771  2.0083200  2
   1272   1271   1273   1275     1  0.0000000  1.2552000  3
   1272   1284   1287   1288     1  180.0000771  0.0000000  2
   1272   1284   1287   1289     1  180.0000771  0.0000000  2
   1273   1271   1272   1284     1  180.0000771  2.0083200  2
   1273   1271   1272   1284     1  0.0000000  1.2552000  3
   1273   1275   1279   1280     1  180.0000771  0.0000000  2
   1273   1275   1279   1281     1  180.0000771  0.0000000  2
   1292   1294   1296   1300     1  0.0000000  0.6508444  3
   1294   1296   1300   1301     1  180.0000771  2.0083200  2
   1294   1296   1300   1301     1  0.0000000  1.2552000  3
   1294   1296   1300   1302     1  180.0000771  2.0083200  2
   1294   1296   1300   1302     1  0.0000000  1.2552000  3
   1296   1300   1301   1313     1  180.0000771  2.0083200  2
   1296   1300   1301   1313     1  0.0000000  1.2552000  3
   1296   1300   1302   1304     1  180.0000771  2.0083200  2
   1296   1300   1302   1304     1  0.0000000  1.2552000  3
   1300   1301   1313   1316     1  0.0000000  0.6508444  3
   1300   1302   1304   1308     1  0.0000000  0.6508444  3
   1301   1313   1316   1317     1  180.0000771  0.0000000  2
   1301   1313   1316   1318     1  180.0000771  0.0000000  2
   1301   1300   1302   1304     1  180.0000771  2.0083200  2
   1301   1300   1302   1304     1  0.0000000  1.2552000  3
   1302   1304   1308   1309     1  180.0000771  0.0000000  2
   1302   1304   1308   1310     1  180.0000771  0.0000000  2
   1302   1300   1301   1313     1  180.0000771  2.0083200  2
   1302   1300   1301   1313     1  0.0000000  1.2552000  3
   1321   1323   1325   1329     1  0.0000000  0.6508444  3
   1323   1325   1329   1330     1  180.0000771  2.0083200  2
   1323   1325   1329   1330     1  0.0000000  1.2552000  3
   1323   1325   1329   1331     1  180.0000771  2.0083200  2
   1323   1325   1329   1331     1  0.0000000  1.2552000  3
   1325   1329   1330   1342     1  180.0000771  2.0083200  2
   1325   1329   1330   1342     1  0.0000000  1.2552000  3
   1325   1329   1331   1333     1  180.0000771  2.0083200  2
   1325   1329   1331   1333     1  0.0000000  1.2552000  3
   1329   1330   1342   1345     1  0.0000000  0.6508444  3
   1329   1331   1333   1337     1  0.0000000  0.6508444  3
   1330   1329   1331   1333     1  180.0000771  2.0083200  2
   1330   1329   1331   1333     1  0.0000000  1.2552000  3
   1330   1342   1345   1346     1  180.0000771  0.0000000  2
   1330   1342   1345   1347     1  180.0000771  0.0000000  2
   1331   1329   1330   1342     1  180.0000771  2.0083200  2
   1331   1329   1330   1342     1  0.0000000  1.2552000  3
   1331   1333   1337   1338     1  180.0000771  0.0000000  2
   1331   1333   1337   1339     1  180.0000771  0.0000000  2
   1350   1352   1354   1358     1  0.0000000  0.6508444  3
   1352   1354   1358   1359     1  180.0000771  2.0083200  2
   1352   1354   1358   1359     1  0.0000000  1.2552000  3
   1352   1354   1358   1360     1  180.0000771  2.0083200  2
   1352   1354   1358   1360     1  0.0000000  1.2552000  3
   1354   1358   1359   1371     1  180.0000771  2.0083200  2
   1354   1358   1359   1371     1  0.0000000  1.2552000  3
   1354   1358   1360   1362     1  180.0000771  2.0083200  2
   1354   1358   1360   1362     1  0.0000000  1.2552000  3
   1358   1359   1371   1374     1  0.0000000  0.6508444  3
   1358   1360   1362   1366     1  0.0000000  0.6508444  3
   1359   1371   1374   1375     1  180.0000771  0.0000000  2
   1359   1371   1374   1376     1  180.0000771  0.0000000  2
   1359   1358   1360   1362     1  180.0000771  2.0083200  2
   1359   1358   1360   1362     1  0.0000000  1.2552000  3
   1360   1362   1366   1367     1  180.0000771  0.0000000  2
   1360   1362   1366   1368     1  180.0000771  0.0000000  2
   1360   1358   1359   1371     1  180.0000771  2.0083200  2
   1360   1358   1359   1371     1  0.0000000  1.2552000  3
   1379   1381   1383   1387     1  0.0000000  0.6508444  3
   1381   1383   1387   1388     1  180.0000771  2.0083200  2
   1381   1383   1387   1388     1  0.0000000  1.2552000  3
   1381   1383   1387   1389     1  180.0000771  2.0083200  2
   1381   1383   1387   1389     1  0.0000000  1.2552000  3
   1383   1387   1388   1400     1  180.0000771  2.0083200  2
   1383   1387   1388   1400     1  0.0000000  1.2552000  3
   1383   1387   1389   1391     1  180.0000771  2.0083200  2
   1383   1387   1389   1391     1  0.0000000  1.2552000  3
   1387   1388   1400   1403     1  0.0000000  0.6508444  3
   1387   1389   1391   1395     1  0.0000000  0.6508444  3
   1388   1387   1389   1391     1  180.0000771  2.0083200  2
   1388   1387   1389   1391     1  0.0000000  1.2552000  3
   1388   1400   1403   1404     1  180.0000771  0.0000000  2
   1388   1400   1403   1405     1  180.0000771  0.0000000  2
   1389   1387   1388   1400     1  180.0000771  2.0083200  2
   1389   1387   1388   1400     1  0.0000000  1.2552000  3
   1389   1391   1395   1396     1  180.0000771  0.0000000  2
   1389   1391   1395   1397     1  180.0000771  0.0000000  2
   1408   1410   1412   1416     1  0.0000000  0.6508444  3
   1410   1412   1416   1417     1  180.0000771  2.0083200  2
   1410   1412   1416   1417     1  0.0000000  1.2552000  3
   1410   1412   1416   1418     1  180.0000771  2.0083200  2
   1410   1412   1416   1418     1  0.0000000  1.2552000  3
   1412   1416   1417   1429     1  180.0000771  2.0083200  2
   1412   1416   1417   1429     1  0.0000000  1.2552000  3
   1412   1416   1418   1420     1  180.0000771  2.0083200  2
   1412   1416   1418   1420     1  0.0000000  1.2552000  3
   1416   1417   1429   1432     1  0.0000000  0.6508444  3
   1416   1418   1420   1424     1  0.0000000  0.6508444  3
   1417   1429   1432   1433     1  180.0000771  0.0000000  2
   1417   1429   1432   1434     1  180.0000771  0.0000000  2
   1417   1416   1418   1420     1  180.0000771  2.0083200  2
   1417   1416   1418   1420     1  0.0000000  1.2552000  3
   1418   1420   1424   1425     1  180.0000771  0.0000000  2
   1418   1420   1424   1426     1  180.0000771  0.0000000  2
   1418   1416   1417   1429     1  180.0000771  2.0083200  2
   1418   1416   1417   1429     1  0.0000000  1.2552000  3
   1437   1439   1441   1445     1  0.0000000  0.6508444  3
   1439   1441   1445   1446     1  180.0000771  2.0083200  2
   1439   1441   1445   1446     1  0.0000000  1.2552000  3
   1439   1441   1445   1447     1  180.0000771  2.0083200  2
   1439   1441   1445   1447     1  0.0000000  1.2552000  3
   1441   1445   1446   1458     1  180.0000771  2.0083200  2
   1441   1445   1446   1458     1  0.0000000  1.2552000  3
   1441   1445   1447   1449     1  180.0000771  2.0083200  2
   1441   1445   1447   1449     1  0.0000000  1.2552000  3
   1445   1446   1458   1461     1  0.0000000  0.6508444  3
   1445   1447   1449   1453     1  0.0000000  0.6508444  3
   1446   1445   1447   1449     1  180.0000771  2.0083200  2
   1446   1445   1447   1449     1  0.0000000  1.2552000  3
   1446   1458   1461   1462     1  180.0000771  0.0000000  2
   1446   1458   1461   1463     1  180.0000771  0.0000000  2
   1447   1445   1446   1458     1  180.0000771  2.0083200  2
   1447   1445   1446   1458     1  0.0000000  1.2552000  3
   1447   1449   1453   1454     1  180.0000771  0.0000000  2
   1447   1449   1453   1455     1  180.0000771  0.0000000  2
   1466   1468   1470   1474     1  0.0000000  0.6508444  3
   1468   1470   1474   1475     1  180.0000771  2.0083200  2
   1468   1470   1474   1475     1  0.0000000  1.2552000  3
   1468   1470   1474   1476     1  180.0000771  2.0083200  2
   1468   1470   1474   1476     1  0.0000000  1.2552000  3
   1470   1474   1475   1487     1  180.0000771  2.0083200  2
   1470   1474   1475   1487     1  0.0000000  1.2552000  3
   1470   1474   1476   1478     1  180.0000771  2.0083200  2
   1470   1474   1476   1478     1  0.0000000  1.2552000  3
   1474   1475   1487   1490     1  0.0000000  0.6508444  3
   1474   1476   1478   1482     1  0.0000000  0.6508444  3
   1475   1487   1490   1491     1  180.0000771  0.0000000  2
   1475   1487   1490   1492     1  180.0000771  0.0000000  2
   1475   1474   1476   1478     1  180.0000771  2.0083200  2
   1475   1474   1476   1478     1  0.0000000  1.2552000  3
   1476   1478   1482   1483     1  180.0000771  0.0000000  2
   1476   1478   1482   1484     1  180.0000771  0.0000000  2
   1476   1474   1475   1487     1  180.0000771  2.0083200  2
   1476   1474   1475   1487     1  0.0000000  1.2552000  3
   1495   1497   1499   1503     1  0.0000000  0.6508444  3
   1497   1499   1503   1504     1  180.0000771  2.0083200  2
   1497   1499   1503   1504     1  0.0000000  1.2552000  3
   1497   1499   1503   1505     1  180.0000771  2.0083200  2
   1497   1499   1503   1505     1  0.0000000  1.2552000  3
   1499   1503   1504   1516     1  180.0000771  2.0083200  2
   1499   1503   1504   1516     1  0.0000000  1.2552000  3
   1499   1503   1505   1507     1  180.0000771  2.0083200  2
   1499   1503   1505   1507     1  0.0000000  1.2552000  3
   1503   1504   1516   1519     1  0.0000000  0.6508444  3
   1503   1505   1507   1511     1  0.0000000  0.6508444  3
   1504   1503   1505   1507     1  180.0000771  2.0083200  2
   1504   1503   1505   1507     1  0.0000000  1.2552000  3
   1504   1516   1519   1520     1  180.0000771  0.0000000  2
   1504   1516   1519   1521     1  180.0000771  0.0000000  2
   1505   1503   1504   1516     1  180.0000771  2.0083200  2
   1505   1503   1504   1516     1  0.0000000  1.2552000  3
   1505   1507   1511   1512     1  180.0000771  0.0000000  2
   1505   1507   1511   1513     1  180.0000771  0.0000000  2
   1524   1526   1528   1532     1  0.0000000  0.6508444  3
   1526   1528   1532   1533     1  180.0000771  2.0083200  2
   1526   1528   1532   1533     1  0.0000000  1.2552000  3
   1526   1528   1532   1534     1  180.0000771  2.0083200  2
   1526   1528   1532   1534     1  0.0000000  1.2552000  3
   1528   1532   1533   1545     1  180.0000771  2.0083200  2
   1528   1532   1533   1545     1  0.0000000  1.2552000  3
   1528   1532   1534   1536     1  180.0000771  2.0083200  2
   1528   1532   1534   1536     1  0.0000000  1.2552000  3
   1532   1533   1545   1548     1  0.0000000  0.6508444  3
   1532   1534   1536   1540     1  0.0000000  0.6508444  3
   1533   1545   1548   1549     1  180.0000771  0.0000000  2
   1533   1545   1548   1550     1  180.0000771  0.0000000  2
   1533   1532   1534   1536     1  180.0000771  2.0083200  2
   1533   1532   1534   1536     1  0.0000000  1.2552000  3
   1534   1536   1540   1541     1  180.0000771  0.0000000  2
   1534   1536   1540   1542     1  180.0000771  0.0000000  2
   1534   1532   1533   1545     1  180.0000771  2.0083200  2
   1534   1532   1533   1545     1  0.0000000  1.2552000  3
   1553   1555   1557   1561     1  0.0000000  0.6508444  3
   1555   1557   1561   1562     1  180.0000771  2.0083200  2
   1555   1557   1561   1562     1  0.0000000  1.2552000  3
   1555   1557   1561   1563     1  180.0000771  2.0083200  2
   1555   1557   1561   1563     1  0.0000000  1.2552000  3
   1557   1561   1562   1574     1  180.0000771  2.0083200  2
   1557   1561   1562   1574     1  0.0000000  1.2552000  3
   1557   1561   1563   1565     1  180.0000771  2.0083200  2
   1557   1561   1563   1565     1  0.0000000  1.2552000  3
   1561   1562   1574   1577     1  0.0000000  0.6508444  3
   1561   1563   1565   1569     1  0.0000000  0.6508444  3
   1562   1561   1563   1565     1  180.0000771  2.0083200  2
   1562   1561   1563   1565     1  0.0000000  1.2552000  3
   1562   1574   1577   1578     1  180.0000771  0.0000000  2
   1562   1574   1577   1579     1  180.0000771  0.0000000  2
   1563   1561   1562   1574     1  180.0000771  2.0083200  2
   1563   1561   1562   1574     1  0.0000000  1.2552000  3
   1563   1565   1569   1570     1  180.0000771  0.0000000  2
   1563   1565   1569   1571     1  180.0000771  0.0000000  2
   1582   1584   1586   1590     1  0.0000000  0.6508444  3
   1584   1586   1590   1591     1  180.0000771  2.0083200  2
   1584   1586   1590   1591     1  0.0000000  1.2552000  3
   1584   1586   1590   1592     1  180.0000771  2.0083200  2
   1584   1586   1590   1592     1  0.0000000  1.2552000  3
   1586   1590   1591   1603     1  180.0000771  2.0083200  2
   1586   1590   1591   1603     1  0.0000000  1.2552000  3
   1586   1590   1592   1594     1  180.0000771  2.0083200  2
   1586   1590   1592   1594     1  0.0000000  1.2552000  3
   1590   1591   1603   1606     1  0.0000000  0.6508444  3
   1590   1592   1594   1598     1  0.0000000  0.6508444  3
   1591   1603   1606   1607     1  180.0000771  0.0000000  2
   1591   1603   1606   1608     1  180.0000771  0.0000000  2
   1591   1590   1592   1594     1  180.0000771  2.0083200  2
   1591   1590   1592   1594     1  0.0000000  1.2552000  3
   1592   1594   1598   1599     1  180.0000771  0.0000000  2
   1592   1594   1598   1600     1  180.0000771  0.0000000  2
   1592   1590   1591   1603     1  180.0000771  2.0083200  2
   1592   1590   1591   1603     1  0.0000000  1.2552000  3
   1611   1613   1615   1619     1  0.0000000  0.6508444  3
   1613   1615   1619   1620     1  180.0000771  2.0083200  2
   1613   1615   1619   1620     1  0.0000000  1.2552000  3
   1613   1615   1619   1621     1  180.0000771  2.0083200  2
   1613   1615   1619   1621     1  0.0000000  1.2552000  3
   1615   1619   1620   1632     1  180.0000771  2.0083200  2
   1615   1619   1620   1632     1  0.0000000  1.2552000  3
   1615   1619   1621   1623     1  180.0000771  2.0083200  2
   1615   1619   1621   1623     1  0.0000000  1.2552000  3
   1619   1620   1632   1635     1  0.0000000  0.6508444  3
   1619   1621   1623   1627     1  0.0000000  0.6508444  3
   1620   1619   1621   1623     1  180.0000771  2.0083200  2
   1620   1619   1621   1623     1  0.0000000  1.2552000  3
   1620   1632   1635   1636     1  180.0000771  0.0000000  2
   1620   1632   1635   1637     1  180.0000771  0.0000000  2
   1621   1619   1620   1632     1  180.0000771  2.0083200  2
   1621   1619   1620   1632     1  0.0000000  1.2552000  3
   1621   1623   1627   1628     1  180.0000771  0.0000000  2
   1621   1623   1627   1629     1  180.0000771  0.0000000  2
   1640   1642   1644   1648     1  0.0000000  0.6508444  3
   1642   1644   1648   1649     1  180.0000771  2.0083200  2
   1642   1644   1648   1649     1  0.0000000  1.2552000  3
   1642   1644   1648   1650     1  180.0000771  2.0083200  2
   1642   1644   1648   1650     1  0.0000000  1.2552000  3
   1644   1648   1649   1661     1  180.0000771  2.0083200  2
   1644   1648   1649   1661     1  0.0000000  1.2552000  3
   1644   1648   1650   1652     1  180.0000771  2.0083200  2
   1644   1648   1650   1652     1  0.0000000  1.2552000  3
   1648   1649   1661   1664     1  0.0000000  0.6508444  3
   1648   1650   1652   1656     1  0.0000000  0.6508444  3
   1649   1661   1664   1665     1  180.0000771  0.0000000  2
   1649   1661   1664   1666     1  180.0000771  0.0000000  2
   1649   1648   1650   1652     1  180.0000771  2.0083200  2
   1649   1648   1650   1652     1  0.0000000  1.2552000  3
   1650   1652   1656   1657     1  180.0000771  0.0000000  2
   1650   1652   1656   1658     1  180.0000771  0.0000000  2
   1650   1648   1649   1661     1  180.0000771  2.0083200  2
   1650   1648   1649   1661     1  0.0000000  1.2552000  3
     27     64     33     37     4  180.0000771  43.9320000  2
     30     89     34     40     4  180.0000771  43.9320000  2
     21    114     35     38     4  180.0000771  43.9320000  2
     24    139     36     39     4  180.0000771  43.9320000  2
     54    164     60     62     4  180.0000771  43.9320000  2
     57    189     61     63     4  180.0000771  43.9320000  2
     79    214     85     87     4  180.0000771  43.9320000  2
     82    239     86     88     4  180.0000771  43.9320000  2
    104    264    110    112     4  180.0000771  43.9320000  2
    107    289    111    113     4  180.0000771  43.9320000  2
    129    314    135    137     4  180.0000771  43.9320000  2
    132    339    136    138     4  180.0000771  43.9320000  2
    154    364    160    162     4  180.0000771  43.9320000  2
    157    389    161    163     4  180.0000771  43.9320000  2
    179    414    185    187     4  180.0000771  43.9320000  2
    182    439    186    188     4  180.0000771  43.9320000  2
    204    464    210    212     4  180.0000771  43.9320000  2
    207    489    211    213     4  180.0000771  43.9320000  2
    229    514    235    237     4  180.0000771  43.9320000  2
    232    539    236    238     4  180.0000771  43.9320000  2
    254    564    260    262     4  180.0000771  43.9320000  2
    257    589    261    263     4  180.0000771  43.9320000  2
    279    614    285    287     4  180.0000771  43.9320000  2
    282    639    286    288     4  180.0000771  43.9320000  2
    304    664    310    312     4  180.0000771  43.9320000  2
    307    689    311    313     4  180.0000771  43.9320000  2
    329    714    335    337     4  180.0000771  43.9320000  2
    332    739    336    338     4  180.0000771  43.9320000  2
    354    741    360    362     4  180.0000771  43.9320000  2
    357    770    361    363     4  180.0000771  43.9320000  2
    379    799    385    387     4  180.0000771  43.9320000  2
    382    828    386    388     4  180.0000771  43.9320000  2
    404    857    410    412     4  180.0000771  43.9320000  2
    407    886    411    413     4  180.0000771  43.9320000  2
    429    915    435    437     4  180.0000771  43.9320000  2
    432    944    436    438     4  180.0000771  43.9320000  2
    454    973    460    462     4  180.0000771  43.9320000  2
    457   1002    461    463     4  180.0000771  43.9320000  2
    479   1031    485    487     4  180.0000771  43.9320000  2
    482   1060    486    488     4  180.0000771  43.9320000  2
    504   1089    510    512     4  180.0000771  43.9320000  2
    507   1118    511    513     4  180.0000771  43.9320000  2
    529   1147    535    537     4  180.0000771  43.9320000  2
    532   1176    536    538     4  180.0000771  43.9320000  2
    554   1205    560    562     4  180.0000771  43.9320000  2
    557   1234    561    563     4  180.0000771  43.9320000  2
    579   1263    585    587     4  180.0000771  43.9320000  2
    582   1292    586    588     4  180.0000771  43.9320000  2
    604   1321    610    612     4  180.0000771  43.9320000  2
    607   1350    611    613     4  180.0000771  43.9320000  2
    629   1379    635    637     4  180.0000771  43.9320000  2
    632   1408    636    638     4  180.0000771  43.9320000  2
    654   1437    660    662     4  180.0000771  43.9320000  2
    657   1466    661    663     4  180.0000771  43.9320000  2
    679   1495    685    687     4  180.0000771  43.9320000  2
    682   1524    686    688     4  180.0000771  43.9320000  2
    704   1553    710    712     4  180.0000771  43.9320000  2
    707   1582    711    713     4  180.0000771  43.9320000  2
    729   1611    735    737     4  180.0000771  43.9320000  2
    732   1640    736    738     4  180.0000771  43.9320000  2
    753    759    757    758     4  180.0000771  4.6024000  2
    762    766    765    767     4  180.0000771  4.6024000  2
    782    788    786    787     4  180.0000771  4.6024000  2
    791    795    794    796     4  180.0000771  4.6024000  2
    811    817    815    816     4  180.0000771  4.6024000  2
    820    824    823    825     4  180.0000771  4.6024000  2
    840    846    844    845     4  180.0000771  4.6024000  2
    849    853    852    854     4  180.0000771  4.6024000  2
    869    875    873    874     4  180.0000771  4.6024000  2
    878    882    881    883     4  180.0000771  4.6024000  2
    898    904    902    903     4  180.0000771  4.6024000  2
    907    911    910    912     4  180.0000771  4.6024000  2
    927    933    931    932     4  180.0000771  4.6024000  2
    936    940    939    941     4  180.0000771  4.6024000  2
    956    962    960    961     4  180.0000771  4.6024000  2
    965    969    968    970     4  180.0000771  4.6024000  2
    985    991    989    990     4  180.0000771  4.6024000  2
    994    998    997    999     4  180.0000771  4.6024000  2
   1014   1020   1018   1019     4  180.0000771  4.6024000  2
   1023   1027   1026   1028     4  180.0000771  4.6024000  2
   1043   1049   1047   1048     4  180.0000771  4.6024000  2
   1052   1056   1055   1057     4  180.0000771  4.6024000  2
   1072   1078   1076   1077     4  180.0000771  4.6024000  2
   1081   1085   1084   1086     4  180.0000771  4.6024000  2
   1101   1107   1105   1106     4  180.0000771  4.6024000  2
   1110   1114   1113   1115     4  180.0000771  4.6024000  2
   1130   1136   1134   1135     4  180.0000771  4.6024000  2
   1139   1143   1142   1144     4  180.0000771  4.6024000  2
   1159   1165   1163   1164     4  180.0000771  4.6024000  2
   1168   1172   1171   1173     4  180.0000771  4.6024000  2
   1188   1194   1192   1193     4  180.0000771  4.6024000  2
   1197   1201   1200   1202     4  180.0000771  4.6024000  2
   1217   1223   1221   1222     4  180.0000771  4.6024000  2
   1226   1230   1229   1231     4  180.0000771  4.6024000  2
   1246   1252   1250   1251     4  180.0000771  4.6024000  2
   1255   1259   1258   1260     4  180.0000771  4.6024000  2
   1275   1281   1279   1280     4  180.0000771  4.6024000  2
   1284   1288   1287   1289     4  180.0000771  4.6024000  2
   1304   1310   1308   1309     4  180.0000771  4.6024000  2
   1313   1317   1316   1318     4  180.0000771  4.6024000  2
   1333   1339   1337   1338     4  180.0000771  4.6024000  2
   1342   1346   1345   1347     4  180.0000771  4.6024000  2
   1362   1368   1366   1367     4  180.0000771  4.6024000  2
   1371   1375   1374   1376     4  180.0000771  4.6024000  2
   1391   1397   1395   1396     4  180.0000771  4.6024000  2
   1400   1404   1403   1405     4  180.0000771  4.6024000  2
   1420   1426   1424   1425     4  180.0000771  4.6024000  2
   1429   1433   1432   1434     4  180.0000771  4.6024000  2
   1449   1455   1453   1454     4  180.0000771  4.6024000  2
   1458   1462   1461   1463     4  180.0000771  4.6024000  2
   1478   1484   1482   1483     4  180.0000771  4.6024000  2
   1487   1491   1490   1492     4  180.0000771  4.6024000  2
   1507   1513   1511   1512     4  180.0000771  4.6024000  2
   1516   1520   1519   1521     4  180.0000771  4.6024000  2
   1536   1542   1540   1541     4  180.0000771  4.6024000  2
   1545   1549   1548   1550     4  180.0000771  4.6024000  2
   1565   1571   1569   1570     4  180.0000771  4.6024000  2
   1574   1578   1577   1579     4  180.0000771  4.6024000  2
   1594   1600   1598   1599     4  180.0000771  4.6024000  2
   1603   1607   1606   1608     4  180.0000771  4.6024000  2
   1623   1629   1627   1628     4  180.0000771  4.6024000  2
   1632   1636   1635   1637     4  180.0000771  4.6024000  2
   1652   1658   1656   1657     4  180.0000771  4.6024000  2
   1661   1665   1664   1666     4  180.0000771  4.6024000  2
      1      8      9     10     1  0.0000000  1.2552000  3
      1      8      9     11     1  0.0000000  1.2552000  3
      1      8     12     13     1  0.0000000  1.2552000  3
      1      8     12     14     1  0.0000000  1.2552000  3
      2      1      4      7     1  0.0000000  0.6508444  3
      2      1      4      5     1  0.0000000  0.6508444  3
      2      1      4      6     1  0.0000000  0.6508444  3
      2      1      8      9     1  0.0000000  1.2552000  3
      2      1      8     12     1  0.0000000  1.2552000  3
      3      1      4      7     1  0.0000000  0.6508444  3
      3      1      4      5     1  0.0000000  0.6508444  3
      3      1      4      6     1  0.0000000  0.6508444  3
      3      1      8      9     1  0.0000000  1.2552000  3
      3      1      8     12     1  0.0000000  1.2552000  3
      4      7     15     16     1  0.0000000  1.2552000  3
      4      7     15     17     1  0.0000000  1.2552000  3
      4      7     18     19     1  0.0000000  1.2552000  3
      4      7     18     20     1  0.0000000  1.2552000  3
      8      1      4      5     1  0.0000000  0.6508444  3
      5      4      7     15     1  0.0000000  1.2552000  3
      5      4      7     18     1  0.0000000  1.2552000  3
      8      1      4      6     1  0.0000000  0.6508444  3
      6      4      7     15     1  0.0000000  1.2552000  3
      6      4      7     18     1  0.0000000  1.2552000  3
      7     15     21     22     1  0.0000000  0.6508444  3
      7     15     21     23     1  0.0000000  0.6508444  3
      7     18     24     25     1  0.0000000  0.6508444  3
      7     18     24     26     1  0.0000000  0.6508444  3
      8      9     30     31     1  0.0000000  0.6508444  3
      8      9     30     32     1  0.0000000  0.6508444  3
      8     12     27     28     1  0.0000000  0.6508444  3
      8     12     27     29     1  0.0000000  0.6508444  3
      9      8     12     13     1  0.0000000  1.2552000  3
      9      8     12     14     1  0.0000000  1.2552000  3
     10      9      8     12     1  0.0000000  1.2552000  3
     10      9     30     34     1  0.0000000  0.6508444  3
     10      9     30     31     1  0.0000000  0.6508444  3
     10      9     30     32     1  0.0000000  0.6508444  3
     11      9      8     12     1  0.0000000  1.2552000  3
     11      9     30     34     1  0.0000000  0.6508444  3
     11      9     30     31     1  0.0000000  0.6508444  3
     11      9     30     32     1  0.0000000  0.6508444  3
     13     12     27     33     1  0.0000000  0.6508444  3
     13     12     27     28     1  0.0000000  0.6508444  3
     13     12     27     29     1  0.0000000  0.6508444  3
     14     12     27     33     1  0.0000000  0.6508444  3
     14     12     27     28     1  0.0000000  0.6508444  3
     14     12     27     29     1  0.0000000  0.6508444  3
     15      7     18     19     1  0.0000000  1.2552000  3
     15      7     18     20     1  0.0000000  1.2552000  3
     16     15      7     18     1  0.0000000  1.2552000  3
     16     15     21     35     1  0.0000000  0.6508444  3
     16     15     21     22     1  0.0000000  0.6508444  3
     16     15     21     23     1  0.0000000  0.6508444  3
     17     15      7     18     1  0.0000000  1.2552000  3
     17     15     21     35     1  0.0000000  0.6508444  3
     17     15     21     22     1  0.0000000  0.6508444  3
     17     15     21     23     1  0.0000000  0.6508444  3
     19     18     24     36     1  0.0000000  0.6508444  3
     19     18     24     25     1  0.0000000  0.6508444  3
     19     18     24     26     1  0.0000000  0.6508444  3
     20     18     24     36     1  0.0000000  0.6508444  3
     20     18     24     25     1  0.0000000  0.6508444  3
     20     18     24     26     1  0.0000000  0.6508444  3
     21     35    114    115     1  180.0000771  10.4600000  2
     22     21     35     38     1  0.0000000  3.3472000  1
     22     21     35     38     1  0.0000000  0.0000000  2
     22     21     35     38     1  180.0000771  0.3347200  3
     22     21     35    114     1  180.0000771  0.0000000  2
     23     21     35     38     1  0.0000000  3.3472000  1
     23     21     35     38     1  0.0000000  0.0000000  2
     23     21     35     38     1  180.0000771  0.3347200  3
     23     21     35    114     1  180.0000771  0.0000000  2
     24     36    139    140     1  180.0000771  10.4600000  2
     25     24     36     39     1  0.0000000  3.3472000  1
     25     24     36     39     1  0.0000000  0.0000000  2
     25     24     36     39     1  180.0000771  0.3347200  3
     25     24     36    139     1  180.0000771  0.0000000  2
     26     24     36     39     1  0.0000000  3.3472000  1
     26     24     36     39     1  0.0000000  0.0000000  2
     26     24     36     39     1  180.0000771  0.3347200  3
     26     24     36    139     1  180.0000771  0.0000000  2
     27     33     64     65     1  180.0000771  10.4600000  2
     28     27     33     37     1  0.0000000  3.3472000  1
     28     27     33     37     1  0.0000000  0.0000000  2
     28     27     33     37     1  180.0000771  0.3347200  3
     28     27     33     64     1  180.0000771  0.0000000  2
     29     27     33     37     1  0.0000000  3.3472000  1
     29     27     33     37     1  0.0000000  0.0000000  2
     29     27     33     37     1  180.0000771  0.3347200  3
     29     27     33     64     1  180.0000771  0.0000000  2
     30     34     89     90     1  180.0000771  10.4600000  2
     31     30     34     40     1  0.0000000  3.3472000  1
     31     30     34     40     1  0.0000000  0.0000000  2
     31     30     34     40     1  180.0000771  0.3347200  3
     31     30     34     89     1  180.0000771  0.0000000  2
     32     30     34     40     1  0.0000000  3.3472000  1
     32     30     34     40     1  0.0000000  0.0000000  2
     32     30     34     40     1  180.0000771  0.3347200  3
     32     30     34     89     1  180.0000771  0.0000000  2
     33     64     44     45     1  0.0000000  0.0000000  2
     33     64     44     46     1  0.0000000  0.0000000  2
     34     89     69     70     1  0.0000000  0.0000000  2
     34     89     69     71     1  0.0000000  0.0000000  2
     35    114     94     95     1  0.0000000  0.0000000  2
     35    114     94     96     1  0.0000000  0.0000000  2
     36    139    119    120     1  0.0000000  0.0000000  2
     36    139    119    121     1  0.0000000  0.0000000  2
     37     33     64     65     1  0.0000000  8.3680000  1
     37     33     64     65     1  180.0000771  10.4600000  2
     38     35    114    115     1  0.0000000  8.3680000  1
     38     35    114    115     1  180.0000771  10.4600000  2
     39     36    139    140     1  0.0000000  8.3680000  1
     39     36    139    140     1  180.0000771  10.4600000  2
     40     34     89     90     1  0.0000000  8.3680000  1
     40     34     89     90     1  180.0000771  10.4600000  2
     41     44     64     65     1  0.0000000  0.0000000  2
     41     47     48     49     1  0.0000000  1.2552000  3
     41     47     48     50     1  0.0000000  1.2552000  3
     41     47     51     52     1  0.0000000  1.2552000  3
     41     47     51     53     1  0.0000000  1.2552000  3
     42     41     44     64     1  0.0000000  0.6508444  3
     42     41     44     45     1  0.0000000  0.6508444  3
     42     41     44     46     1  0.0000000  0.6508444  3
     42     41     47     48     1  0.0000000  1.2552000  3
     42     41     47     51     1  0.0000000  1.2552000  3
     43     41     44     64     1  0.0000000  0.6508444  3
     43     41     44     45     1  0.0000000  0.6508444  3
     43     41     44     46     1  0.0000000  0.6508444  3
     43     41     47     48     1  0.0000000  1.2552000  3
     43     41     47     51     1  0.0000000  1.2552000  3
     45     44     41     47     1  0.0000000  0.6508444  3
     45     44     64     65     1  0.0000000  0.0000000  2
     46     44     41     47     1  0.0000000  0.6508444  3
     46     44     64     65     1  0.0000000  0.0000000  2
     47     48     57     58     1  0.0000000  0.6508444  3
     47     48     57     59     1  0.0000000  0.6508444  3
     47     51     54     55     1  0.0000000  0.6508444  3
     47     51     54     56     1  0.0000000  0.6508444  3
     48     47     51     52     1  0.0000000  1.2552000  3
     48     47     51     53     1  0.0000000  1.2552000  3
     49     48     47     51     1  0.0000000  1.2552000  3
     49     48     57     61     1  0.0000000  0.6508444  3
     49     48     57     58     1  0.0000000  0.6508444  3
     49     48     57     59     1  0.0000000  0.6508444  3
     50     48     47     51     1  0.0000000  1.2552000  3
     50     48     57     61     1  0.0000000  0.6508444  3
     50     48     57     58     1  0.0000000  0.6508444  3
     50     48     57     59     1  0.0000000  0.6508444  3
     52     51     54     60     1  0.0000000  0.6508444  3
     52     51     54     55     1  0.0000000  0.6508444  3
     52     51     54     56     1  0.0000000  0.6508444  3
     53     51     54     60     1  0.0000000  0.6508444  3
     53     51     54     55     1  0.0000000  0.6508444  3
     53     51     54     56     1  0.0000000  0.6508444  3
     54     60    164    165     1  180.0000771  10.4600000  2
     55     54     60     62     1  0.0000000  3.3472000  1
     55     54     60     62     1  0.0000000  0.0000000  2
     55     54     60     62     1  180.0000771  0.3347200  3
     55     54     60    164     1  180.0000771  0.0000000  2
     56     54     60     62     1  0.0000000  3.3472000  1
     56     54     60     62     1  0.0000000  0.0000000  2
     56     54     60     62     1  180.0000771  0.3347200  3
     56     54     60    164     1  180.0000771  0.0000000  2
     57     61    189    190     1  180.0000771  10.4600000  2
     58     57     61     63     1  0.0000000  3.3472000  1
     58     57     61     63     1  0.0000000  0.0000000  2
     58     57     61     63     1  180.0000771  0.3347200  3
     58     57     61    189     1  180.0000771  0.0000000  2
     59     57     61     63     1  0.0000000  3.3472000  1
     59     57     61     63     1  0.0000000  0.0000000  2
     59     57     61     63     1  180.0000771  0.3347200  3
     59     57     61    189     1  180.0000771  0.0000000  2
     60    164    144    145     1  0.0000000  0.0000000  2
     60    164    144    146     1  0.0000000  0.0000000  2
     61    189    169    170     1  0.0000000  0.0000000  2
     61    189    169    171     1  0.0000000  0.0000000  2
     62     60    164    165     1  0.0000000  8.3680000  1
     62     60    164    165     1  180.0000771  10.4600000  2
     63     61    189    190     1  0.0000000  8.3680000  1
     63     61    189    190     1  180.0000771  10.4600000  2
     66     69     89     90     1  0.0000000  0.0000000  2
     66     72     73     74     1  0.0000000  1.2552000  3
     66     72     73     75     1  0.0000000  1.2552000  3
     66     72     76     77     1  0.0000000  1.2552000  3
     66     72     76     78     1  0.0000000  1.2552000  3
     67     66     69     89     1  0.0000000  0.6508444  3
     67     66     69     70     1  0.0000000  0.6508444  3
     67     66     69     71     1  0.0000000  0.6508444  3
     67     66     72     73     1  0.0000000  1.2552000  3
     67     66     72     76     1  0.0000000  1.2552000  3
     68     66     69     89     1  0.0000000  0.6508444  3
     68     66     69     70     1  0.0000000  0.6508444  3
     68     66     69     71     1  0.0000000  0.6508444  3
     68     66     72     73     1  0.0000000  1.2552000  3
     68     66     72     76     1  0.0000000  1.2552000  3
     70     69     66     72     1  0.0000000  0.6508444  3
     70     69     89     90     1  0.0000000  0.0000000  2
     71     69     66     72     1  0.0000000  0.6508444  3
     71     69     89     90     1  0.0000000  0.0000000  2
     72     73     82     83     1  0.0000000  0.6508444  3
     72     73     82     84     1  0.0000000  0.6508444  3
     72     76     79     80     1  0.0000000  0.6508444  3
     72     76     79     81     1  0.0000000  0.6508444  3
     73     72     76     77     1  0.0000000  1.2552000  3
     73     72     76     78     1  0.0000000  1.2552000  3
     74     73     72     76     1  0.0000000  1.2552000  3
     74     73     82     86     1  0.0000000  0.6508444  3
     74     73     82     83     1  0.0000000  0.6508444  3
     74     73     82     84     1  0.0000000  0.6508444  3
     75     73     72     76     1  0.0000000  1.2552000  3
     75     73     82     86     1  0.0000000  0.6508444  3
     75     73     82     83     1  0.0000000  0.6508444  3
     75     73     82     84     1  0.0000000  0.6508444  3
     77     76     79     85     1  0.0000000  0.6508444  3
     77     76     79     80     1  0.0000000  0.6508444  3
     77     76     79     81     1  0.0000000  0.6508444  3
     78     76     79     85     1  0.0000000  0.6508444  3
     78     76     79     80     1  0.0000000  0.6508444  3
     78     76     79     81     1  0.0000000  0.6508444  3
     79     85    214    215     1  180.0000771  10.4600000  2
     80     79     85     87     1  0.0000000  3.3472000  1
     80     79     85     87     1  0.0000000  0.0000000  2
     80     79     85     87     1  180.0000771  0.3347200  3
     80     79     85    214     1  180.0000771  0.0000000  2
     81     79     85     87     1  0.0000000  3.3472000  1
     81     79     85     87     1  0.0000000  0.0000000  2
     81     79     85     87     1  180.0000771  0.3347200  3
     81     79     85    214     1  180.0000771  0.0000000  2
     82     86    239    240     1  180.0000771  10.4600000  2
     83     82     86     88     1  0.0000000  3.3472000  1
     83     82     86     88     1  0.0000000  0.0000000  2
     83     82     86     88     1  180.0000771  0.3347200  3
     83     82     86    239     1  180.0000771  0.0000000  2
     84     82     86     88     1  0.0000000  3.3472000  1
     84     82     86     88     1  0.0000000  0.0000000  2
     84     82     86     88     1  180.0000771  0.3347200  3
     84     82     86    239     1  180.0000771  0.0000000  2
     85    214    194    195     1  0.0000000  0.0000000  2
     85    214    194    196     1  0.0000000  0.0000000  2
     86    239    219    220     1  0.0000000  0.0000000  2
     86    239    219    221     1  0.0000000  0.0000000  2
     87     85    214    215     1  0.0000000  8.3680000  1
     87     85    214    215     1  180.0000771  10.4600000  2
     88     86    239    240     1  0.0000000  8.3680000  1
     88     86    239    240     1  180.0000771  10.4600000  2
     91     94    114    115     1  0.0000000  0.0000000  2
     91     97     98     99     1  0.0000000  1.2552000  3
     91     97     98    100     1  0.0000000  1.2552000  3
     91     97    101    102     1  0.0000000  1.2552000  3
     91     97    101    103     1  0.0000000  1.2552000  3
     92     91     94    114     1  0.0000000  0.6508444  3
     92     91     94     95     1  0.0000000  0.6508444  3
     92     91     94     96     1  0.0000000  0.6508444  3
     92     91     97     98     1  0.0000000  1.2552000  3
     92     91     97    101     1  0.0000000  1.2552000  3
     93     91     94    114     1  0.0000000  0.6508444  3
     93     91     94     95     1  0.0000000  0.6508444  3
     93     91     94     96     1  0.0000000  0.6508444  3
     93     91     97     98     1  0.0000000  1.2552000  3
     93     91     97    101     1  0.0000000  1.2552000  3
     95     94     91     97     1  0.0000000  0.6508444  3
     95     94    114    115     1  0.0000000  0.0000000  2
     96     94     91     97     1  0.0000000  0.6508444  3
     96     94    114    115     1  0.0000000  0.0000000  2
     97     98    107    108     1  0.0000000  0.6508444  3
     97     98    107    109     1  0.0000000  0.6508444  3
     97    101    104    105     1  0.0000000  0.6508444  3
     97    101    104    106     1  0.0000000  0.6508444  3
     98     97    101    102     1  0.0000000  1.2552000  3
     98     97    101    103     1  0.0000000  1.2552000  3
     99     98     97    101     1  0.0000000  1.2552000  3
     99     98    107    111     1  0.0000000  0.6508444  3
     99     98    107    108     1  0.0000000  0.6508444  3
     99     98    107    109     1  0.0000000  0.6508444  3
    100     98     97    101     1  0.0000000  1.2552000  3
    100     98    107    111     1  0.0000000  0.6508444  3
    100     98    107    108     1  0.0000000  0.6508444  3
    100     98    107    109     1  0.0000000  0.6508444  3
    102    101    104    110     1  0.0000000  0.6508444  3
    102    101    104    105     1  0.0000000  0.6508444  3
    102    101    104    106     1  0.0000000  0.6508444  3
    103    101    104    110     1  0.0000000  0.6508444  3
    103    101    104    105     1  0.0000000  0.6508444  3
    103    101    104    106     1  0.0000000  0.6508444  3
    104    110    264    265     1  180.0000771  10.4600000  2
    105    104    110    112     1  0.0000000  3.3472000  1
    105    104    110    112     1  0.0000000  0.0000000  2
    105    104    110    112     1  180.0000771  0.3347200  3
    105    104    110    264     1  180.0000771  0.0000000  2
    106    104    110    112     1  0.0000000  3.3472000  1
    106    104    110    112     1  0.0000000  0.0000000  2
    106    104    110    112     1  180.0000771  0.3347200  3
    106    104    110    264     1  180.0000771  0.0000000  2
    107    111    289    290     1  180.0000771  10.4600000  2
    108    107    111    113     1  0.0000000  3.3472000  1
    108    107    111    113     1  0.0000000  0.0000000  2
    108    107    111    113     1  180.0000771  0.3347200  3
    108    107    111    289     1  180.0000771  0.0000000  2
    109    107    111    113     1  0.0000000  3.3472000  1
    109    107    111    113     1  0.0000000  0.0000000  2
    109    107    111    113     1  180.0000771  0.3347200  3
    109    107    111    289     1  180.0000771  0.0000000  2
    110    264    244    245     1  0.0000000  0.0000000  2
    110    264    244    246     1  0.0000000  0.0000000  2
    111    289    269    270     1  0.0000000  0.0000000  2
    111    289    269    271     1  0.0000000  0.0000000  2
    112    110    264    265     1  0.0000000  8.3680000  1
    112    110    264    265     1  180.0000771  10.4600000  2
    113    111    289    290     1  0.0000000  8.3680000  1
    113    111    289    290     1  180.0000771  10.4600000  2
    116    119    139    140     1  0.0000000  0.0000000  2
    116    122    123    124     1  0.0000000  1.2552000  3
    116    122    123    125     1  0.0000000  1.2552000  3
    116    122    126    127     1  0.0000000  1.2552000  3
    116    122    126    128     1  0.0000000  1.2552000  3
    117    116    119    139     1  0.0000000  0.6508444  3
    117    116    119    120     1  0.0000000  0.6508444  3
    117    116    119    121     1  0.0000000  0.6508444  3
    117    116    122    123     1  0.0000000  1.2552000  3
    117    116    122    126     1  0.0000000  1.2552000  3
    118    116    119    139     1  0.0000000  0.6508444  3
    118    116    119    120     1  0.0000000  0.6508444  3
    118    116    119    121     1  0.0000000  0.6508444  3
    118    116    122    123     1  0.0000000  1.2552000  3
    118    116    122    126     1  0.0000000  1.2552000  3
    120    119    116    122     1  0.0000000  0.6508444  3
    120    119    139    140     1  0.0000000  0.0000000  2
    121    119    116    122     1  0.0000000  0.6508444  3
    121    119    139    140     1  0.0000000  0.0000000  2
    122    123    132    133     1  0.0000000  0.6508444  3
    122    123    132    134     1  0.0000000  0.6508444  3
    122    126    129    130     1  0.0000000  0.6508444  3
    122    126    129    131     1  0.0000000  0.6508444  3
    123    122    126    127     1  0.0000000  1.2552000  3
    123    122    126    128     1  0.0000000  1.2552000  3
    124    123    122    126     1  0.0000000  1.2552000  3
    124    123    132    136     1  0.0000000  0.6508444  3
    124    123    132    133     1  0.0000000  0.6508444  3
    124    123    132    134     1  0.0000000  0.6508444  3
    125    123    122    126     1  0.0000000  1.2552000  3
    125    123    132    136     1  0.0000000  0.6508444  3
    125    123    132    133     1  0.0000000  0.6508444  3
    125    123    132    134     1  0.0000000  0.6508444  3
    127    126    129    135     1  0.0000000  0.6508444  3
    127    126    129    130     1  0.0000000  0.6508444  3
    127    126    129    131     1  0.0000000  0.6508444  3
    128    126    129    135     1  0.0000000  0.6508444  3
    128    126    129    130     1  0.0000000  0.6508444  3
    128    126    129    131     1  0.0000000  0.6508444  3
    129    135    314    315     1  180.0000771  10.4600000  2
    130    129    135    137     1  0.0000000  3.3472000  1
    130    129    135    137     1  0.0000000  0.0000000  2
    130    129    135    137     1  180.0000771  0.3347200  3
    130    129    135    314     1  180.0000771  0.0000000  2
    131    129    135    137     1  0.0000000  3.3472000  1
    131    129    135    137     1  0.0000000  0.0000000  2
    131    129    135    137     1  180.0000771  0.3347200  3
    131    129    135    314     1  180.0000771  0.0000000  2
    132    136    339    340     1  180.0000771  10.4600000  2
    133    132    136    138     1  0.0000000  3.3472000  1
    133    132    136    138     1  0.0000000  0.0000000  2
    133    132    136    138     1  180.0000771  0.3347200  3
    133    132    136    339     1  180.0000771  0.0000000  2
    134    132    136    138     1  0.0000000  3.3472000  1
    134    132    136    138     1  0.0000000  0.0000000  2
    134    132    136    138     1  180.0000771  0.3347200  3
    134    132    136    339     1  180.0000771  0.0000000  2
    135    314    294    295     1  0.0000000  0.0000000  2
    135    314    294    296     1  0.0000000  0.0000000  2
    136    339    319    320     1  0.0000000  0.0000000  2
    136    339    319    321     1  0.0000000  0.0000000  2
    137    135    314    315     1  0.0000000  8.3680000  1
    137    135    314    315     1  180.0000771  10.4600000  2
    138    136    339    340     1  0.0000000  8.3680000  1
    138    136    339    340     1  180.0000771  10.4600000  2
    141    144    164    165     1  0.0000000  0.0000000  2
    141    147    148    149     1  0.0000000  1.2552000  3
    141    147    148    150     1  0.0000000  1.2552000  3
    141    147    151    152     1  0.0000000  1.2552000  3
    141    147    151    153     1  0.0000000  1.2552000  3
    142    141    144    164     1  0.0000000  0.6508444  3
    142    141    144    145     1  0.0000000  0.6508444  3
    142    141    144    146     1  0.0000000  0.6508444  3
    142    141    147    148     1  0.0000000  1.2552000  3
    142    141    147    151     1  0.0000000  1.2552000  3
    143    141    144    164     1  0.0000000  0.6508444  3
    143    141    144    145     1  0.0000000  0.6508444  3
    143    141    144    146     1  0.0000000  0.6508444  3
    143    141    147    148     1  0.0000000  1.2552000  3
    143    141    147    151     1  0.0000000  1.2552000  3
    145    144    141    147     1  0.0000000  0.6508444  3
    145    144    164    165     1  0.0000000  0.0000000  2
    146    144    141    147     1  0.0000000  0.6508444  3
    146    144    164    165     1  0.0000000  0.0000000  2
    147    148    157    158     1  0.0000000  0.6508444  3
    147    148    157    159     1  0.0000000  0.6508444  3
    147    151    154    155     1  0.0000000  0.6508444  3
    147    151    154    156     1  0.0000000  0.6508444  3
    148    147    151    152     1  0.0000000  1.2552000  3
    148    147    151    153     1  0.0000000  1.2552000  3
    149    148    147    151     1  0.0000000  1.2552000  3
    149    148    157    161     1  0.0000000  0.6508444  3
    149    148    157    158     1  0.0000000  0.6508444  3
    149    148    157    159     1  0.0000000  0.6508444  3
    150    148    147    151     1  0.0000000  1.2552000  3
    150    148    157    161     1  0.0000000  0.6508444  3
    150    148    157    158     1  0.0000000  0.6508444  3
    150    148    157    159     1  0.0000000  0.6508444  3
    152    151    154    160     1  0.0000000  0.6508444  3
    152    151    154    155     1  0.0000000  0.6508444  3
    152    151    154    156     1  0.0000000  0.6508444  3
    153    151    154    160     1  0.0000000  0.6508444  3
    153    151    154    155     1  0.0000000  0.6508444  3
    153    151    154    156     1  0.0000000  0.6508444  3
    154    160    364    365     1  180.0000771  10.4600000  2
    155    154    160    162     1  0.0000000  3.3472000  1
    155    154    160    162     1  0.0000000  0.0000000  2
    155    154    160    162     1  180.0000771  0.3347200  3
    155    154    160    364     1  180.0000771  0.0000000  2
    156    154    160    162     1  0.0000000  3.3472000  1
    156    154    160    162     1  0.0000000  0.0000000  2
    156    154    160    162     1  180.0000771  0.3347200  3
    156    154    160    364     1  180.0000771  0.0000000  2
    157    161    389    390     1  180.0000771  10.4600000  2
    158    157    161    163     1  0.0000000  3.3472000  1
    158    157    161    163     1  0.0000000  0.0000000  2
    158    157    161    163     1  180.0000771  0.3347200  3
    158    157    161    389     1  180.0000771  0.0000000  2
    159    157    161    163     1  0.0000000  3.3472000  1
    159    157    161    163     1  0.0000000  0.0000000  2
    159    157    161    163     1  180.0000771  0.3347200  3
    159    157    161    389     1  180.0000771  0.0000000  2
    160    364    344    345     1  0.0000000  0.0000000  2
    160    364    344    346     1  0.0000000  0.0000000  2
    161    389    369    370     1  0.0000000  0.0000000  2
    161    389    369    371     1  0.0000000  0.0000000  2
    162    160    364    365     1  0.0000000  8.3680000  1
    162    160    364    365     1  180.0000771  10.4600000  2
    163    161    389    390     1  0.0000000  8.3680000  1
    163    161    389    390     1  180.0000771  10.4600000  2
    166    169    189    190     1  0.0000000  0.0000000  2
    166    172    173    174     1  0.0000000  1.2552000  3
    166    172    173    175     1  0.0000000  1.2552000  3
    166    172    176    177     1  0.0000000  1.2552000  3
    166    172    176    178     1  0.0000000  1.2552000  3
    167    166    169    189     1  0.0000000  0.6508444  3
    167    166    169    170     1  0.0000000  0.6508444  3
    167    166    169    171     1  0.0000000  0.6508444  3
    167    166    172    173     1  0.0000000  1.2552000  3
    167    166    172    176     1  0.0000000  1.2552000  3
    168    166    169    189     1  0.0000000  0.6508444  3
    168    166    169    170     1  0.0000000  0.6508444  3
    168    166    169    171     1  0.0000000  0.6508444  3
    168    166    172    173     1  0.0000000  1.2552000  3
    168    166    172    176     1  0.0000000  1.2552000  3
    170    169    166    172     1  0.0000000  0.6508444  3
    170    169    189    190     1  0.0000000  0.0000000  2
    171    169    166    172     1  0.0000000  0.6508444  3
    171    169    189    190     1  0.0000000  0.0000000  2
    172    173    182    183     1  0.0000000  0.6508444  3
    172    173    182    184     1  0.0000000  0.6508444  3
    172    176    179    180     1  0.0000000  0.6508444  3
    172    176    179    181     1  0.0000000  0.6508444  3
    173    172    176    177     1  0.0000000  1.2552000  3
    173    172    176    178     1  0.0000000  1.2552000  3
    174    173    172    176     1  0.0000000  1.2552000  3
    174    173    182    186     1  0.0000000  0.6508444  3
    174    173    182    183     1  0.0000000  0.6508444  3
    174    173    182    184     1  0.0000000  0.6508444  3
    175    173    172    176     1  0.0000000  1.2552000  3
    175    173    182    186     1  0.0000000  0.6508444  3
    175    173    182    183     1  0.0000000  0.6508444  3
    175    173    182    184     1  0.0000000  0.6508444  3
    177    176    179    185     1  0.0000000  0.6508444  3
    177    176    179    180     1  0.0000000  0.6508444  3
    177    176    179    181     1  0.0000000  0.6508444  3
    178    176    179    185     1  0.0000000  0.6508444  3
    178    176    179    180     1  0.0000000  0.6508444  3
    178    176    179    181     1  0.0000000  0.6508444  3
    179    185    414    415     1  180.0000771  10.4600000  2
    180    179    185    187     1  0.0000000  3.3472000  1
    180    179    185    187     1  0.0000000  0.0000000  2
    180    179    185    187     1  180.0000771  0.3347200  3
    180    179    185    414     1  180.0000771  0.0000000  2
    181    179    185    187     1  0.0000000  3.3472000  1
    181    179    185    187     1  0.0000000  0.0000000  2
    181    179    185    187     1  180.0000771  0.3347200  3
    181    179    185    414     1  180.0000771  0.0000000  2
    182    186    439    440     1  180.0000771  10.4600000  2
    183    182    186    188     1  0.0000000  3.3472000  1
    183    182    186    188     1  0.0000000  0.0000000  2
    183    182    186    188     1  180.0000771  0.3347200  3
    183    182    186    439     1  180.0000771  0.0000000  2
    184    182    186    188     1  0.0000000  3.3472000  1
    184    182    186    188     1  0.0000000  0.0000000  2
    184    182    186    188     1  180.0000771  0.3347200  3
    184    182    186    439     1  180.0000771  0.0000000  2
    185    414    394    395     1  0.0000000  0.0000000  2
    185    414    394    396     1  0.0000000  0.0000000  2
    186    439    419    420     1  0.0000000  0.0000000  2
    186    439    419    421     1  0.0000000  0.0000000  2
    187    185    414    415     1  0.0000000  8.3680000  1
    187    185    414    415     1  180.0000771  10.4600000  2
    188    186    439    440     1  0.0000000  8.3680000  1
    188    186    439    440     1  180.0000771  10.4600000  2
    191    194    214    215     1  0.0000000  0.0000000  2
    191    197    198    199     1  0.0000000  1.2552000  3
    191    197    198    200     1  0.0000000  1.2552000  3
    191    197    201    202     1  0.0000000  1.2552000  3
    191    197    201    203     1  0.0000000  1.2552000  3
    192    191    194    214     1  0.0000000  0.6508444  3
    192    191    194    195     1  0.0000000  0.6508444  3
    192    191    194    196     1  0.0000000  0.6508444  3
    192    191    197    198     1  0.0000000  1.2552000  3
    192    191    197    201     1  0.0000000  1.2552000  3
    193    191    194    214     1  0.0000000  0.6508444  3
    193    191    194    195     1  0.0000000  0.6508444  3
    193    191    194    196     1  0.0000000  0.6508444  3
    193    191    197    198     1  0.0000000  1.2552000  3
    193    191    197    201     1  0.0000000  1.2552000  3
    195    194    191    197     1  0.0000000  0.6508444  3
    195    194    214    215     1  0.0000000  0.0000000  2
    196    194    191    197     1  0.0000000  0.6508444  3
    196    194    214    215     1  0.0000000  0.0000000  2
    197    198    207    208     1  0.0000000  0.6508444  3
    197    198    207    209     1  0.0000000  0.6508444  3
    197    201    204    205     1  0.0000000  0.6508444  3
    197    201    204    206     1  0.0000000  0.6508444  3
    198    197    201    202     1  0.0000000  1.2552000  3
    198    197    201    203     1  0.0000000  1.2552000  3
    199    198    197    201     1  0.0000000  1.2552000  3
    199    198    207    211     1  0.0000000  0.6508444  3
    199    198    207    208     1  0.0000000  0.6508444  3
    199    198    207    209     1  0.0000000  0.6508444  3
    200    198    197    201     1  0.0000000  1.2552000  3
    200    198    207    211     1  0.0000000  0.6508444  3
    200    198    207    208     1  0.0000000  0.6508444  3
    200    198    207    209     1  0.0000000  0.6508444  3
    202    201    204    210     1  0.0000000  0.6508444  3
    202    201    204    205     1  0.0000000  0.6508444  3
    202    201    204    206     1  0.0000000  0.6508444  3
    203    201    204    210     1  0.0000000  0.6508444  3
    203    201    204    205     1  0.0000000  0.6508444  3
    203    201    204    206     1  0.0000000  0.6508444  3
    204    210    464    465     1  180.0000771  10.4600000  2
    205    204    210    212     1  0.0000000  3.3472000  1
    205    204    210    212     1  0.0000000  0.0000000  2
    205    204    210    212     1  180.0000771  0.3347200  3
    205    204    210    464     1  180.0000771  0.0000000  2
    206    204    210    212     1  0.0000000  3.3472000  1
    206    204    210    212     1  0.0000000  0.0000000  2
    206    204    210    212     1  180.0000771  0.3347200  3
    206    204    210    464     1  180.0000771  0.0000000  2
    207    211    489    490     1  180.0000771  10.4600000  2
    208    207    211    213     1  0.0000000  3.3472000  1
    208    207    211    213     1  0.0000000  0.0000000  2
    208    207    211    213     1  180.0000771  0.3347200  3
    208    207    211    489     1  180.0000771  0.0000000  2
    209    207    211    213     1  0.0000000  3.3472000  1
    209    207    211    213     1  0.0000000  0.0000000  2
    209    207    211    213     1  180.0000771  0.3347200  3
    209    207    211    489     1  180.0000771  0.0000000  2
    210    464    444    445     1  0.0000000  0.0000000  2
    210    464    444    446     1  0.0000000  0.0000000  2
    211    489    469    470     1  0.0000000  0.0000000  2
    211    489    469    471     1  0.0000000  0.0000000  2
    212    210    464    465     1  0.0000000  8.3680000  1
    212    210    464    465     1  180.0000771  10.4600000  2
    213    211    489    490     1  0.0000000  8.3680000  1
    213    211    489    490     1  180.0000771  10.4600000  2
    216    219    239    240     1  0.0000000  0.0000000  2
    216    222    223    224     1  0.0000000  1.2552000  3
    216    222    223    225     1  0.0000000  1.2552000  3
    216    222    226    227     1  0.0000000  1.2552000  3
    216    222    226    228     1  0.0000000  1.2552000  3
    217    216    219    239     1  0.0000000  0.6508444  3
    217    216    219    220     1  0.0000000  0.6508444  3
    217    216    219    221     1  0.0000000  0.6508444  3
    217    216    222    223     1  0.0000000  1.2552000  3
    217    216    222    226     1  0.0000000  1.2552000  3
    218    216    219    239     1  0.0000000  0.6508444  3
    218    216    219    220     1  0.0000000  0.6508444  3
    218    216    219    221     1  0.0000000  0.6508444  3
    218    216    222    223     1  0.0000000  1.2552000  3
    218    216    222    226     1  0.0000000  1.2552000  3
    220    219    216    222     1  0.0000000  0.6508444  3
    220    219    239    240     1  0.0000000  0.0000000  2
    221    219    216    222     1  0.0000000  0.6508444  3
    221    219    239    240     1  0.0000000  0.0000000  2
    222    223    232    233     1  0.0000000  0.6508444  3
    222    223    232    234     1  0.0000000  0.6508444  3
    222    226    229    230     1  0.0000000  0.6508444  3
    222    226    229    231     1  0.0000000  0.6508444  3
    223    222    226    227     1  0.0000000  1.2552000  3
    223    222    226    228     1  0.0000000  1.2552000  3
    224    223    222    226     1  0.0000000  1.2552000  3
    224    223    232    236     1  0.0000000  0.6508444  3
    224    223    232    233     1  0.0000000  0.6508444  3
    224    223    232    234     1  0.0000000  0.6508444  3
    225    223    222    226     1  0.0000000  1.2552000  3
    225    223    232    236     1  0.0000000  0.6508444  3
    225    223    232    233     1  0.0000000  0.6508444  3
    225    223    232    234     1  0.0000000  0.6508444  3
    227    226    229    235     1  0.0000000  0.6508444  3
    227    226    229    230     1  0.0000000  0.6508444  3
    227    226    229    231     1  0.0000000  0.6508444  3
    228    226    229    235     1  0.0000000  0.6508444  3
    228    226    229    230     1  0.0000000  0.6508444  3
    228    226    229    231     1  0.0000000  0.6508444  3
    229    235    514    515     1  180.0000771  10.4600000  2
    230    229    235    237     1  0.0000000  3.3472000  1
    230    229    235    237     1  0.0000000  0.0000000  2
    230    229    235    237     1  180.0000771  0.3347200  3
    230    229    235    514     1  180.0000771  0.0000000  2
    231    229    235    237     1  0.0000000  3.3472000  1
    231    229    235    237     1  0.0000000  0.0000000  2
    231    229    235    237     1  180.0000771  0.3347200  3
    231    229    235    514     1  180.0000771  0.0000000  2
    232    236    539    540     1  180.0000771  10.4600000  2
    233    232    236    238     1  0.0000000  3.3472000  1
    233    232    236    238     1  0.0000000  0.0000000  2
    233    232    236    238     1  180.0000771  0.3347200  3
    233    232    236    539     1  180.0000771  0.0000000  2
    234    232    236    238     1  0.0000000  3.3472000  1
    234    232    236    238     1  0.0000000  0.0000000  2
    234    232    236    238     1  180.0000771  0.3347200  3
    234    232    236    539     1  180.0000771  0.0000000  2
    235    514    494    495     1  0.0000000  0.0000000  2
    235    514    494    496     1  0.0000000  0.0000000  2
    236    539    519    520     1  0.0000000  0.0000000  2
    236    539    519    521     1  0.0000000  0.0000000  2
    237    235    514    515     1  0.0000000  8.3680000  1
    237    235    514    515     1  180.0000771  10.4600000  2
    238    236    539    540     1  0.0000000  8.3680000  1
    238    236    539    540     1  180.0000771  10.4600000  2
    241    244    264    265     1  0.0000000  0.0000000  2
    241    247    248    249     1  0.0000000  1.2552000  3
    241    247    248    250     1  0.0000000  1.2552000  3
    241    247    251    252     1  0.0000000  1.2552000  3
    241    247    251    253     1  0.0000000  1.2552000  3
    242    241    244    264     1  0.0000000  0.6508444  3
    242    241    244    245     1  0.0000000  0.6508444  3
    242    241    244    246     1  0.0000000  0.6508444  3
    242    241    247    248     1  0.0000000  1.2552000  3
    242    241    247    251     1  0.0000000  1.2552000  3
    243    241    244    264     1  0.0000000  0.6508444  3
    243    241    244    245     1  0.0000000  0.6508444  3
    243    241    244    246     1  0.0000000  0.6508444  3
    243    241    247    248     1  0.0000000  1.2552000  3
    243    241    247    251     1  0.0000000  1.2552000  3
    245    244    241    247     1  0.0000000  0.6508444  3
    245    244    264    265     1  0.0000000  0.0000000  2
    246    244    241    247     1  0.0000000  0.6508444  3
    246    244    264    265     1  0.0000000  0.0000000  2
    247    248    257    258     1  0.0000000  0.6508444  3
    247    248    257    259     1  0.0000000  0.6508444  3
    247    251    254    255     1  0.0000000  0.6508444  3
    247    251    254    256     1  0.0000000  0.6508444  3
    248    247    251    252     1  0.0000000  1.2552000  3
    248    247    251    253     1  0.0000000  1.2552000  3
    249    248    247    251     1  0.0000000  1.2552000  3
    249    248    257    261     1  0.0000000  0.6508444  3
    249    248    257    258     1  0.0000000  0.6508444  3
    249    248    257    259     1  0.0000000  0.6508444  3
    250    248    247    251     1  0.0000000  1.2552000  3
    250    248    257    261     1  0.0000000  0.6508444  3
    250    248    257    258     1  0.0000000  0.6508444  3
    250    248    257    259     1  0.0000000  0.6508444  3
    252    251    254    260     1  0.0000000  0.6508444  3
    252    251    254    255     1  0.0000000  0.6508444  3
    252    251    254    256     1  0.0000000  0.6508444  3
    253    251    254    260     1  0.0000000  0.6508444  3
    253    251    254    255     1  0.0000000  0.6508444  3
    253    251    254    256     1  0.0000000  0.6508444  3
    254    260    564    565     1  180.0000771  10.4600000  2
    255    254    260    262     1  0.0000000  3.3472000  1
    255    254    260    262     1  0.0000000  0.0000000  2
    255    254    260    262     1  180.0000771  0.3347200  3
    255    254    260    564     1  180.0000771  0.0000000  2
    256    254    260    262     1  0.0000000  3.3472000  1
    256    254    260    262     1  0.0000000  0.0000000  2
    256    254    260    262     1  180.0000771  0.3347200  3
    256    254    260    564     1  180.0000771  0.0000000  2
    257    261    589    590     1  180.0000771  10.4600000  2
    258    257    261    263     1  0.0000000  3.3472000  1
    258    257    261    263     1  0.0000000  0.0000000  2
    258    257    261    263     1  180.0000771  0.3347200  3
    258    257    261    589     1  180.0000771  0.0000000  2
    259    257    261    263     1  0.0000000  3.3472000  1
    259    257    261    263     1  0.0000000  0.0000000  2
    259    257    261    263     1  180.0000771  0.3347200  3
    259    257    261    589     1  180.0000771  0.0000000  2
    260    564    544    545     1  0.0000000  0.0000000  2
    260    564    544    546     1  0.0000000  0.0000000  2
    261    589    569    570     1  0.0000000  0.0000000  2
    261    589    569    571     1  0.0000000  0.0000000  2
    262    260    564    565     1  0.0000000  8.3680000  1
    262    260    564    565     1  180.0000771  10.4600000  2
    263    261    589    590     1  0.0000000  8.3680000  1
    263    261    589    590     1  180.0000771  10.4600000  2
    266    269    289    290     1  0.0000000  0.0000000  2
    266    272    273    274     1  0.0000000  1.2552000  3
    266    272    273    275     1  0.0000000  1.2552000  3
    266    272    276    277     1  0.0000000  1.2552000  3
    266    272    276    278     1  0.0000000  1.2552000  3
    267    266    269    289     1  0.0000000  0.6508444  3
    267    266    269    270     1  0.0000000  0.6508444  3
    267    266    269    271     1  0.0000000  0.6508444  3
    267    266    272    273     1  0.0000000  1.2552000  3
    267    266    272    276     1  0.0000000  1.2552000  3
    268    266    269    289     1  0.0000000  0.6508444  3
    268    266    269    270     1  0.0000000  0.6508444  3
    268    266    269    271     1  0.0000000  0.6508444  3
    268    266    272    273     1  0.0000000  1.2552000  3
    268    266    272    276     1  0.0000000  1.2552000  3
    270    269    266    272     1  0.0000000  0.6508444  3
    270    269    289    290     1  0.0000000  0.0000000  2
    271    269    266    272     1  0.0000000  0.6508444  3
    271    269    289    290     1  0.0000000  0.0000000  2
    272    273    282    283     1  0.0000000  0.6508444  3
    272    273    282    284     1  0.0000000  0.6508444  3
    272    276    279    280     1  0.0000000  0.6508444  3
    272    276    279    281     1  0.0000000  0.6508444  3
    273    272    276    277     1  0.0000000  1.2552000  3
    273    272    276    278     1  0.0000000  1.2552000  3
    274    273    272    276     1  0.0000000  1.2552000  3
    274    273    282    286     1  0.0000000  0.6508444  3
    274    273    282    283     1  0.0000000  0.6508444  3
    274    273    282    284     1  0.0000000  0.6508444  3
    275    273    272    276     1  0.0000000  1.2552000  3
    275    273    282    286     1  0.0000000  0.6508444  3
    275    273    282    283     1  0.0000000  0.6508444  3
    275    273    282    284     1  0.0000000  0.6508444  3
    277    276    279    285     1  0.0000000  0.6508444  3
    277    276    279    280     1  0.0000000  0.6508444  3
    277    276    279    281     1  0.0000000  0.6508444  3
    278    276    279    285     1  0.0000000  0.6508444  3
    278    276    279    280     1  0.0000000  0.6508444  3
    278    276    279    281     1  0.0000000  0.6508444  3
    279    285    614    615     1  180.0000771  10.4600000  2
    280    279    285    287     1  0.0000000  3.3472000  1
    280    279    285    287     1  0.0000000  0.0000000  2
    280    279    285    287     1  180.0000771  0.3347200  3
    280    279    285    614     1  180.0000771  0.0000000  2
    281    279    285    287     1  0.0000000  3.3472000  1
    281    279    285    287     1  0.0000000  0.0000000  2
    281    279    285    287     1  180.0000771  0.3347200  3
    281    279    285    614     1  180.0000771  0.0000000  2
    282    286    639    640     1  180.0000771  10.4600000  2
    283    282    286    288     1  0.0000000  3.3472000  1
    283    282    286    288     1  0.0000000  0.0000000  2
    283    282    286    288     1  180.0000771  0.3347200  3
    283    282    286    639     1  180.0000771  0.0000000  2
    284    282    286    288     1  0.0000000  3.3472000  1
    284    282    286    288     1  0.0000000  0.0000000  2
    284    282    286    288     1  180.0000771  0.3347200  3
    284    282    286    639     1  180.0000771  0.0000000  2
    285    614    594    595     1  0.0000000  0.0000000  2
    285    614    594    596     1  0.0000000  0.0000000  2
    286    639    619    620     1  0.0000000  0.0000000  2
    286    639    619    621     1  0.0000000  0.0000000  2
    287    285    614    615     1  0.0000000  8.3680000  1
    287    285    614    615     1  180.0000771  10.4600000  2
    288    286    639    640     1  0.0000000  8.3680000  1
    288    286    639    640     1  180.0000771  10.4600000  2
    291    294    314    315     1  0.0000000  0.0000000  2
    291    297    298    299     1  0.0000000  1.2552000  3
    291    297    298    300     1  0.0000000  1.2552000  3
    291    297    301    302     1  0.0000000  1.2552000  3
    291    297    301    303     1  0.0000000  1.2552000  3
    292    291    294    314     1  0.0000000  0.6508444  3
    292    291    294    295     1  0.0000000  0.6508444  3
    292    291    294    296     1  0.0000000  0.6508444  3
    292    291    297    298     1  0.0000000  1.2552000  3
    292    291    297    301     1  0.0000000  1.2552000  3
    293    291    294    314     1  0.0000000  0.6508444  3
    293    291    294    295     1  0.0000000  0.6508444  3
    293    291    294    296     1  0.0000000  0.6508444  3
    293    291    297    298     1  0.0000000  1.2552000  3
    293    291    297    301     1  0.0000000  1.2552000  3
    295    294    291    297     1  0.0000000  0.6508444  3
    295    294    314    315     1  0.0000000  0.0000000  2
    296    294    291    297     1  0.0000000  0.6508444  3
    296    294    314    315     1  0.0000000  0.0000000  2
    297    298    307    308     1  0.0000000  0.6508444  3
    297    298    307    309     1  0.0000000  0.6508444  3
    297    301    304    305     1  0.0000000  0.6508444  3
    297    301    304    306     1  0.0000000  0.6508444  3
    298    297    301    302     1  0.0000000  1.2552000  3
    298    297    301    303     1  0.0000000  1.2552000  3
    299    298    297    301     1  0.0000000  1.2552000  3
    299    298    307    311     1  0.0000000  0.6508444  3
    299    298    307    308     1  0.0000000  0.6508444  3
    299    298    307    309     1  0.0000000  0.6508444  3
    300    298    297    301     1  0.0000000  1.2552000  3
    300    298    307    311     1  0.0000000  0.6508444  3
    300    298    307    308     1  0.0000000  0.6508444  3
    300    298    307    309     1  0.0000000  0.6508444  3
    302    301    304    310     1  0.0000000  0.6508444  3
    302    301    304    305     1  0.0000000  0.6508444  3
    302    301    304    306     1  0.0000000  0.6508444  3
    303    301    304    310     1  0.0000000  0.6508444  3
    303    301    304    305     1  0.0000000  0.6508444  3
    303    301    304    306     1  0.0000000  0.6508444  3
    304    310    664    665     1  180.0000771  10.4600000  2
    305    304    310    312     1  0.0000000  3.3472000  1
    305    304    310    312     1  0.0000000  0.0000000  2
    305    304    310    312     1  180.0000771  0.3347200  3
    305    304    310    664     1  180.0000771  0.0000000  2
    306    304    310    312     1  0.0000000  3.3472000  1
    306    304    310    312     1  0.0000000  0.0000000  2
    306    304    310    312     1  180.0000771  0.3347200  3
    306    304    310    664     1  180.0000771  0.0000000  2
    307    311    689    690     1  180.0000771  10.4600000  2
    308    307    311    313     1  0.0000000  3.3472000  1
    308    307    311    313     1  0.0000000  0.0000000  2
    308    307    311    313     1  180.0000771  0.3347200  3
    308    307    311    689     1  180.0000771  0.0000000  2
    309    307    311    313     1  0.0000000  3.3472000  1
    309    307    311    313     1  0.0000000  0.0000000  2
    309    307    311    313     1  180.0000771  0.3347200  3
    309    307    311    689     1  180.0000771  0.0000000  2
    310    664    644    645     1  0.0000000  0.0000000  2
    310    664    644    646     1  0.0000000  0.0000000  2
    311    689    669    670     1  0.0000000  0.0000000  2
    311    689    669    671     1  0.0000000  0.0000000  2
    312    310    664    665     1  0.0000000  8.3680000  1
    312    310    664    665     1  180.0000771  10.4600000  2
    313    311    689    690     1  0.0000000  8.3680000  1
    313    311    689    690     1  180.0000771  10.4600000  2
    316    319    339    340     1  0.0000000  0.0000000  2
    316    322    323    324     1  0.0000000  1.2552000  3
    316    322    323    325     1  0.0000000  1.2552000  3
    316    322    326    327     1  0.0000000  1.2552000  3
    316    322    326    328     1  0.0000000  1.2552000  3
    317    316    319    339     1  0.0000000  0.6508444  3
    317    316    319    320     1  0.0000000  0.6508444  3
    317    316    319    321     1  0.0000000  0.6508444  3
    317    316    322    323     1  0.0000000  1.2552000  3
    317    316    322    326     1  0.0000000  1.2552000  3
    318    316    319    339     1  0.0000000  0.6508444  3
    318    316    319    320     1  0.0000000  0.6508444  3
    318    316    319    321     1  0.0000000  0.6508444  3
    318    316    322    323     1  0.0000000  1.2552000  3
    318    316    322    326     1  0.0000000  1.2552000  3
    320    319    316    322     1  0.0000000  0.6508444  3
    320    319    339    340     1  0.0000000  0.0000000  2
    321    319    316    322     1  0.0000000  0.6508444  3
    321    319    339    340     1  0.0000000  0.0000000  2
    322    323    332    333     1  0.0000000  0.6508444  3
    322    323    332    334     1  0.0000000  0.6508444  3
    322    326    329    330     1  0.0000000  0.6508444  3
    322    326    329    331     1  0.0000000  0.6508444  3
    323    322    326    327     1  0.0000000  1.2552000  3
    323    322    326    328     1  0.0000000  1.2552000  3
    324    323    322    326     1  0.0000000  1.2552000  3
    324    323    332    336     1  0.0000000  0.6508444  3
    324    323    332    333     1  0.0000000  0.6508444  3
    324    323    332    334     1  0.0000000  0.6508444  3
    325    323    322    326     1  0.0000000  1.2552000  3
    325    323    332    336     1  0.0000000  0.6508444  3
    325    323    332    333     1  0.0000000  0.6508444  3
    325    323    332    334     1  0.0000000  0.6508444  3
    327    326    329    335     1  0.0000000  0.6508444  3
    327    326    329    330     1  0.0000000  0.6508444  3
    327    326    329    331     1  0.0000000  0.6508444  3
    328    326    329    335     1  0.0000000  0.6508444  3
    328    326    329    330     1  0.0000000  0.6508444  3
    328    326    329    331     1  0.0000000  0.6508444  3
    329    335    714    715     1  180.0000771  10.4600000  2
    330    329    335    337     1  0.0000000  3.3472000  1
    330    329    335    337     1  0.0000000  0.0000000  2
    330    329    335    337     1  180.0000771  0.3347200  3
    330    329    335    714     1  180.0000771  0.0000000  2
    331    329    335    337     1  0.0000000  3.3472000  1
    331    329    335    337     1  0.0000000  0.0000000  2
    331    329    335    337     1  180.0000771  0.3347200  3
    331    329    335    714     1  180.0000771  0.0000000  2
    332    336    739    740     1  180.0000771  10.4600000  2
    333    332    336    338     1  0.0000000  3.3472000  1
    333    332    336    338     1  0.0000000  0.0000000  2
    333    332    336    338     1  180.0000771  0.3347200  3
    333    332    336    739     1  180.0000771  0.0000000  2
    334    332    336    338     1  0.0000000  3.3472000  1
    334    332    336    338     1  0.0000000  0.0000000  2
    334    332    336    338     1  180.0000771  0.3347200  3
    334    332    336    739     1  180.0000771  0.0000000  2
    335    714    694    695     1  0.0000000  0.0000000  2
    335    714    694    696     1  0.0000000  0.0000000  2
    336    739    719    720     1  0.0000000  0.0000000  2
    336    739    719    721     1  0.0000000  0.0000000  2
    337    335    714    715     1  0.0000000  8.3680000  1
    337    335    714    715     1  180.0000771  10.4600000  2
    338    336    739    740     1  0.0000000  8.3680000  1
    338    336    739    740     1  180.0000771  10.4600000  2
    341    344    364    365     1  0.0000000  0.0000000  2
    341    347    348    349     1  0.0000000  1.2552000  3
    341    347    348    350     1  0.0000000  1.2552000  3
    341    347    351    352     1  0.0000000  1.2552000  3
    341    347    351    353     1  0.0000000  1.2552000  3
    342    341    344    364     1  0.0000000  0.6508444  3
    342    341    344    345     1  0.0000000  0.6508444  3
    342    341    344    346     1  0.0000000  0.6508444  3
    342    341    347    348     1  0.0000000  1.2552000  3
    342    341    347    351     1  0.0000000  1.2552000  3
    343    341    344    364     1  0.0000000  0.6508444  3
    343    341    344    345     1  0.0000000  0.6508444  3
    343    341    344    346     1  0.0000000  0.6508444  3
    343    341    347    348     1  0.0000000  1.2552000  3
    343    341    347    351     1  0.0000000  1.2552000  3
    345    344    341    347     1  0.0000000  0.6508444  3
    345    344    364    365     1  0.0000000  0.0000000  2
    346    344    341    347     1  0.0000000  0.6508444  3
    346    344    364    365     1  0.0000000  0.0000000  2
    347    348    357    358     1  0.0000000  0.6508444  3
    347    348    357    359     1  0.0000000  0.6508444  3
    347    351    354    355     1  0.0000000  0.6508444  3
    347    351    354    356     1  0.0000000  0.6508444  3
    348    347    351    352     1  0.0000000  1.2552000  3
    348    347    351    353     1  0.0000000  1.2552000  3
    349    348    347    351     1  0.0000000  1.2552000  3
    349    348    357    361     1  0.0000000  0.6508444  3
    349    348    357    358     1  0.0000000  0.6508444  3
    349    348    357    359     1  0.0000000  0.6508444  3
    350    348    347    351     1  0.0000000  1.2552000  3
    350    348    357    361     1  0.0000000  0.6508444  3
    350    348    357    358     1  0.0000000  0.6508444  3
    350    348    357    359     1  0.0000000  0.6508444  3
    352    351    354    360     1  0.0000000  0.6508444  3
    352    351    354    355     1  0.0000000  0.6508444  3
    352    351    354    356     1  0.0000000  0.6508444  3
    353    351    354    360     1  0.0000000  0.6508444  3
    353    351    354    355     1  0.0000000  0.6508444  3
    353    351    354    356     1  0.0000000  0.6508444  3
    354    360    741    742     1  180.0000771  10.4600000  2
    355    354    360    741     1  180.0000771  0.0000000  2
    355    354    360    362     1  0.0000000  3.3472000  1
    355    354    360    362     1  0.0000000  0.0000000  2
    355    354    360    362     1  180.0000771  0.3347200  3
    356    354    360    741     1  180.0000771  0.0000000  2
    356    354    360    362     1  0.0000000  3.3472000  1
    356    354    360    362     1  0.0000000  0.0000000  2
    356    354    360    362     1  180.0000771  0.3347200  3
    357    361    770    771     1  180.0000771  10.4600000  2
    358    357    361    363     1  0.0000000  3.3472000  1
    358    357    361    363     1  0.0000000  0.0000000  2
    358    357    361    363     1  180.0000771  0.3347200  3
    358    357    361    770     1  180.0000771  0.0000000  2
    359    357    361    363     1  0.0000000  3.3472000  1
    359    357    361    363     1  0.0000000  0.0000000  2
    359    357    361    363     1  180.0000771  0.3347200  3
    359    357    361    770     1  180.0000771  0.0000000  2
    360    741    743    744     1  0.0000000  0.0000000  2
    360    741    743    746     1  0.0000000  0.0000000  2
    361    770    772    773     1  0.0000000  0.0000000  2
    361    770    772    775     1  0.0000000  0.0000000  2
    362    360    741    742     1  0.0000000  8.3680000  1
    362    360    741    742     1  180.0000771  10.4600000  2
    363    361    770    771     1  0.0000000  8.3680000  1
    363    361    770    771     1  180.0000771  10.4600000  2
    366    369    389    390     1  0.0000000  0.0000000  2
    366    372    373    374     1  0.0000000  1.2552000  3
    366    372    373    375     1  0.0000000  1.2552000  3
    366    372    376    377     1  0.0000000  1.2552000  3
    366    372    376    378     1  0.0000000  1.2552000  3
    367    366    369    389     1  0.0000000  0.6508444  3
    367    366    369    370     1  0.0000000  0.6508444  3
    367    366    369    371     1  0.0000000  0.6508444  3
    367    366    372    373     1  0.0000000  1.2552000  3
    367    366    372    376     1  0.0000000  1.2552000  3
    368    366    369    389     1  0.0000000  0.6508444  3
    368    366    369    370     1  0.0000000  0.6508444  3
    368    366    369    371     1  0.0000000  0.6508444  3
    368    366    372    373     1  0.0000000  1.2552000  3
    368    366    372    376     1  0.0000000  1.2552000  3
    370    369    366    372     1  0.0000000  0.6508444  3
    370    369    389    390     1  0.0000000  0.0000000  2
    371    369    366    372     1  0.0000000  0.6508444  3
    371    369    389    390     1  0.0000000  0.0000000  2
    372    373    382    383     1  0.0000000  0.6508444  3
    372    373    382    384     1  0.0000000  0.6508444  3
    372    376    379    380     1  0.0000000  0.6508444  3
    372    376    379    381     1  0.0000000  0.6508444  3
    373    372    376    377     1  0.0000000  1.2552000  3
    373    372    376    378     1  0.0000000  1.2552000  3
    374    373    372    376     1  0.0000000  1.2552000  3
    374    373    382    386     1  0.0000000  0.6508444  3
    374    373    382    383     1  0.0000000  0.6508444  3
    374    373    382    384     1  0.0000000  0.6508444  3
    375    373    372    376     1  0.0000000  1.2552000  3
    375    373    382    386     1  0.0000000  0.6508444  3
    375    373    382    383     1  0.0000000  0.6508444  3
    375    373    382    384     1  0.0000000  0.6508444  3
    377    376    379    385     1  0.0000000  0.6508444  3
    377    376    379    380     1  0.0000000  0.6508444  3
    377    376    379    381     1  0.0000000  0.6508444  3
    378    376    379    385     1  0.0000000  0.6508444  3
    378    376    379    380     1  0.0000000  0.6508444  3
    378    376    379    381     1  0.0000000  0.6508444  3
    379    385    799    800     1  180.0000771  10.4600000  2
    380    379    385    799     1  180.0000771  0.0000000  2
    380    379    385    387     1  0.0000000  3.3472000  1
    380    379    385    387     1  0.0000000  0.0000000  2
    380    379    385    387     1  180.0000771  0.3347200  3
    381    379    385    799     1  180.0000771  0.0000000  2
    381    379    385    387     1  0.0000000  3.3472000  1
    381    379    385    387     1  0.0000000  0.0000000  2
    381    379    385    387     1  180.0000771  0.3347200  3
    382    386    828    829     1  180.0000771  10.4600000  2
    383    382    386    388     1  0.0000000  3.3472000  1
    383    382    386    388     1  0.0000000  0.0000000  2
    383    382    386    388     1  180.0000771  0.3347200  3
    383    382    386    828     1  180.0000771  0.0000000  2
    384    382    386    388     1  0.0000000  3.3472000  1
    384    382    386    388     1  0.0000000  0.0000000  2
    384    382    386    388     1  180.0000771  0.3347200  3
    384    382    386    828     1  180.0000771  0.0000000  2
    385    799    801    802     1  0.0000000  0.0000000  2
    385    799    801    804     1  0.0000000  0.0000000  2
    386    828    830    831     1  0.0000000  0.0000000  2
    386    828    830    833     1  0.0000000  0.0000000  2
    387    385    799    800     1  0.0000000  8.3680000  1
    387    385    799    800     1  180.0000771  10.4600000  2
    388    386    828    829     1  0.0000000  8.3680000  1
    388    386    828    829     1  180.0000771  10.4600000  2
    391    394    414    415     1  0.0000000  0.0000000  2
    391    397    398    399     1  0.0000000  1.2552000  3
    391    397    398    400     1  0.0000000  1.2552000  3
    391    397    401    402     1  0.0000000  1.2552000  3
    391    397    401    403     1  0.0000000  1.2552000  3
    392    391    394    414     1  0.0000000  0.6508444  3
    392    391    394    395     1  0.0000000  0.6508444  3
    392    391    394    396     1  0.0000000  0.6508444  3
    392    391    397    398     1  0.0000000  1.2552000  3
    392    391    397    401     1  0.0000000  1.2552000  3
    393    391    394    414     1  0.0000000  0.6508444  3
    393    391    394    395     1  0.0000000  0.6508444  3
    393    391    394    396     1  0.0000000  0.6508444  3
    393    391    397    398     1  0.0000000  1.2552000  3
    393    391    397    401     1  0.0000000  1.2552000  3
    395    394    391    397     1  0.0000000  0.6508444  3
    395    394    414    415     1  0.0000000  0.0000000  2
    396    394    391    397     1  0.0000000  0.6508444  3
    396    394    414    415     1  0.0000000  0.0000000  2
    397    398    407    408     1  0.0000000  0.6508444  3
    397    398    407    409     1  0.0000000  0.6508444  3
    397    401    404    405     1  0.0000000  0.6508444  3
    397    401    404    406     1  0.0000000  0.6508444  3
    398    397    401    402     1  0.0000000  1.2552000  3
    398    397    401    403     1  0.0000000  1.2552000  3
    399    398    397    401     1  0.0000000  1.2552000  3
    399    398    407    411     1  0.0000000  0.6508444  3
    399    398    407    408     1  0.0000000  0.6508444  3
    399    398    407    409     1  0.0000000  0.6508444  3
    400    398    397    401     1  0.0000000  1.2552000  3
    400    398    407    411     1  0.0000000  0.6508444  3
    400    398    407    408     1  0.0000000  0.6508444  3
    400    398    407    409     1  0.0000000  0.6508444  3
    402    401    404    410     1  0.0000000  0.6508444  3
    402    401    404    405     1  0.0000000  0.6508444  3
    402    401    404    406     1  0.0000000  0.6508444  3
    403    401    404    410     1  0.0000000  0.6508444  3
    403    401    404    405     1  0.0000000  0.6508444  3
    403    401    404    406     1  0.0000000  0.6508444  3
    404    410    857    858     1  180.0000771  10.4600000  2
    405    404    410    857     1  180.0000771  0.0000000  2
    405    404    410    412     1  0.0000000  3.3472000  1
    405    404    410    412     1  0.0000000  0.0000000  2
    405    404    410    412     1  180.0000771  0.3347200  3
    406    404    410    857     1  180.0000771  0.0000000  2
    406    404    410    412     1  0.0000000  3.3472000  1
    406    404    410    412     1  0.0000000  0.0000000  2
    406    404    410    412     1  180.0000771  0.3347200  3
    407    411    886    887     1  180.0000771  10.4600000  2
    408    407    411    413     1  0.0000000  3.3472000  1
    408    407    411    413     1  0.0000000  0.0000000  2
    408    407    411    413     1  180.0000771  0.3347200  3
    408    407    411    886     1  180.0000771  0.0000000  2
    409    407    411    413     1  0.0000000  3.3472000  1
    409    407    411    413     1  0.0000000  0.0000000  2
    409    407    411    413     1  180.0000771  0.3347200  3
    409    407    411    886     1  180.0000771  0.0000000  2
    410    857    859    860     1  0.0000000  0.0000000  2
    410    857    859    862     1  0.0000000  0.0000000  2
    411    886    888    889     1  0.0000000  0.0000000  2
    411    886    888    891     1  0.0000000  0.0000000  2
    412    410    857    858     1  0.0000000  8.3680000  1
    412    410    857    858     1  180.0000771  10.4600000  2
    413    411    886    887     1  0.0000000  8.3680000  1
    413    411    886    887     1  180.0000771  10.4600000  2
    416    419    439    440     1  0.0000000  0.0000000  2
    416    422    423    424     1  0.0000000  1.2552000  3
    416    422    423    425     1  0.0000000  1.2552000  3
    416    422    426    427     1  0.0000000  1.2552000  3
    416    422    426    428     1  0.0000000  1.2552000  3
    417    416    419    439     1  0.0000000  0.6508444  3
    417    416    419    420     1  0.0000000  0.6508444  3
    417    416    419    421     1  0.0000000  0.6508444  3
    417    416    422    423     1  0.0000000  1.2552000  3
    417    416    422    426     1  0.0000000  1.2552000  3
    418    416    419    439     1  0.0000000  0.6508444  3
    418    416    419    420     1  0.0000000  0.6508444  3
    418    416    419    421     1  0.0000000  0.6508444  3
    418    416    422    423     1  0.0000000  1.2552000  3
    418    416    422    426     1  0.0000000  1.2552000  3
    420    419    416    422     1  0.0000000  0.6508444  3
    420    419    439    440     1  0.0000000  0.0000000  2
    421    419    416    422     1  0.0000000  0.6508444  3
    421    419    439    440     1  0.0000000  0.0000000  2
    422    423    432    433     1  0.0000000  0.6508444  3
    422    423    432    434     1  0.0000000  0.6508444  3
    422    426    429    430     1  0.0000000  0.6508444  3
    422    426    429    431     1  0.0000000  0.6508444  3
    423    422    426    427     1  0.0000000  1.2552000  3
    423    422    426    428     1  0.0000000  1.2552000  3
    424    423    422    426     1  0.0000000  1.2552000  3
    424    423    432    436     1  0.0000000  0.6508444  3
    424    423    432    433     1  0.0000000  0.6508444  3
    424    423    432    434     1  0.0000000  0.6508444  3
    425    423    422    426     1  0.0000000  1.2552000  3
    425    423    432    436     1  0.0000000  0.6508444  3
    425    423    432    433     1  0.0000000  0.6508444  3
    425    423    432    434     1  0.0000000  0.6508444  3
    427    426    429    435     1  0.0000000  0.6508444  3
    427    426    429    430     1  0.0000000  0.6508444  3
    427    426    429    431     1  0.0000000  0.6508444  3
    428    426    429    435     1  0.0000000  0.6508444  3
    428    426    429    430     1  0.0000000  0.6508444  3
    428    426    429    431     1  0.0000000  0.6508444  3
    429    435    915    916     1  180.0000771  10.4600000  2
    430    429    435    915     1  180.0000771  0.0000000  2
    430    429    435    437     1  0.0000000  3.3472000  1
    430    429    435    437     1  0.0000000  0.0000000  2
    430    429    435    437     1  180.0000771  0.3347200  3
    431    429    435    915     1  180.0000771  0.0000000  2
    431    429    435    437     1  0.0000000  3.3472000  1
    431    429    435    437     1  0.0000000  0.0000000  2
    431    429    435    437     1  180.0000771  0.3347200  3
    432    436    944    945     1  180.0000771  10.4600000  2
    433    432    436    438     1  0.0000000  3.3472000  1
    433    432    436    438     1  0.0000000  0.0000000  2
    433    432    436    438     1  180.0000771  0.3347200  3
    433    432    436    944     1  180.0000771  0.0000000  2
    434    432    436    438     1  0.0000000  3.3472000  1
    434    432    436    438     1  0.0000000  0.0000000  2
    434    432    436    438     1  180.0000771  0.3347200  3
    434    432    436    944     1  180.0000771  0.0000000  2
    435    915    917    918     1  0.0000000  0.0000000  2
    435    915    917    920     1  0.0000000  0.0000000  2
    436    944    946    947     1  0.0000000  0.0000000  2
    436    944    946    949     1  0.0000000  0.0000000  2
    437    435    915    916     1  0.0000000  8.3680000  1
    437    435    915    916     1  180.0000771  10.4600000  2
    438    436    944    945     1  0.0000000  8.3680000  1
    438    436    944    945     1  180.0000771  10.4600000  2
    441    444    464    465     1  0.0000000  0.0000000  2
    441    447    448    449     1  0.0000000  1.2552000  3
    441    447    448    450     1  0.0000000  1.2552000  3
    441    447    451    452     1  0.0000000  1.2552000  3
    441    447    451    453     1  0.0000000  1.2552000  3
    442    441    444    464     1  0.0000000  0.6508444  3
    442    441    444    445     1  0.0000000  0.6508444  3
    442    441    444    446     1  0.0000000  0.6508444  3
    442    441    447    448     1  0.0000000  1.2552000  3
    442    441    447    451     1  0.0000000  1.2552000  3
    443    441    444    464     1  0.0000000  0.6508444  3
    443    441    444    445     1  0.0000000  0.6508444  3
    443    441    444    446     1  0.0000000  0.6508444  3
    443    441    447    448     1  0.0000000  1.2552000  3
    443    441    447    451     1  0.0000000  1.2552000  3
    445    444    441    447     1  0.0000000  0.6508444  3
    445    444    464    465     1  0.0000000  0.0000000  2
    446    444    441    447     1  0.0000000  0.6508444  3
    446    444    464    465     1  0.0000000  0.0000000  2
    447    448    457    458     1  0.0000000  0.6508444  3
    447    448    457    459     1  0.0000000  0.6508444  3
    447    451    454    455     1  0.0000000  0.6508444  3
    447    451    454    456     1  0.0000000  0.6508444  3
    448    447    451    452     1  0.0000000  1.2552000  3
    448    447    451    453     1  0.0000000  1.2552000  3
    449    448    447    451     1  0.0000000  1.2552000  3
    449    448    457    461     1  0.0000000  0.6508444  3
    449    448    457    458     1  0.0000000  0.6508444  3
    449    448    457    459     1  0.0000000  0.6508444  3
    450    448    447    451     1  0.0000000  1.2552000  3
    450    448    457    461     1  0.0000000  0.6508444  3
    450    448    457    458     1  0.0000000  0.6508444  3
    450    448    457    459     1  0.0000000  0.6508444  3
    452    451    454    460     1  0.0000000  0.6508444  3
    452    451    454    455     1  0.0000000  0.6508444  3
    452    451    454    456     1  0.0000000  0.6508444  3
    453    451    454    460     1  0.0000000  0.6508444  3
    453    451    454    455     1  0.0000000  0.6508444  3
    453    451    454    456     1  0.0000000  0.6508444  3
    454    460    973    974     1  180.0000771  10.4600000  2
    455    454    460    973     1  180.0000771  0.0000000  2
    455    454    460    462     1  0.0000000  3.3472000  1
    455    454    460    462     1  0.0000000  0.0000000  2
    455    454    460    462     1  180.0000771  0.3347200  3
    456    454    460    973     1  180.0000771  0.0000000  2
    456    454    460    462     1  0.0000000  3.3472000  1
    456    454    460    462     1  0.0000000  0.0000000  2
    456    454    460    462     1  180.0000771  0.3347200  3
    457    461   1002   1003     1  180.0000771  10.4600000  2
    458    457    461    463     1  0.0000000  3.3472000  1
    458    457    461    463     1  0.0000000  0.0000000  2
    458    457    461    463     1  180.0000771  0.3347200  3
    458    457    461   1002     1  180.0000771  0.0000000  2
    459    457    461    463     1  0.0000000  3.3472000  1
    459    457    461    463     1  0.0000000  0.0000000  2
    459    457    461    463     1  180.0000771  0.3347200  3
    459    457    461   1002     1  180.0000771  0.0000000  2
    460    973    975    976     1  0.0000000  0.0000000  2
    460    973    975    978     1  0.0000000  0.0000000  2
    461   1002   1004   1005     1  0.0000000  0.0000000  2
    461   1002   1004   1007     1  0.0000000  0.0000000  2
    462    460    973    974     1  0.0000000  8.3680000  1
    462    460    973    974     1  180.0000771  10.4600000  2
    463    461   1002   1003     1  0.0000000  8.3680000  1
    463    461   1002   1003     1  180.0000771  10.4600000  2
    466    469    489    490     1  0.0000000  0.0000000  2
    466    472    473    474     1  0.0000000  1.2552000  3
    466    472    473    475     1  0.0000000  1.2552000  3
    466    472    476    477     1  0.0000000  1.2552000  3
    466    472    476    478     1  0.0000000  1.2552000  3
    467    466    469    489     1  0.0000000  0.6508444  3
    467    466    469    470     1  0.0000000  0.6508444  3
    467    466    469    471     1  0.0000000  0.6508444  3
    467    466    472    473     1  0.0000000  1.2552000  3
    467    466    472    476     1  0.0000000  1.2552000  3
    468    466    469    489     1  0.0000000  0.6508444  3
    468    466    469    470     1  0.0000000  0.6508444  3
    468    466    469    471     1  0.0000000  0.6508444  3
    468    466    472    473     1  0.0000000  1.2552000  3
    468    466    472    476     1  0.0000000  1.2552000  3
    470    469    466    472     1  0.0000000  0.6508444  3
    470    469    489    490     1  0.0000000  0.0000000  2
    471    469    466    472     1  0.0000000  0.6508444  3
    471    469    489    490     1  0.0000000  0.0000000  2
    472    473    482    483     1  0.0000000  0.6508444  3
    472    473    482    484     1  0.0000000  0.6508444  3
    472    476    479    480     1  0.0000000  0.6508444  3
    472    476    479    481     1  0.0000000  0.6508444  3
    473    472    476    477     1  0.0000000  1.2552000  3
    473    472    476    478     1  0.0000000  1.2552000  3
    474    473    472    476     1  0.0000000  1.2552000  3
    474    473    482    486     1  0.0000000  0.6508444  3
    474    473    482    483     1  0.0000000  0.6508444  3
    474    473    482    484     1  0.0000000  0.6508444  3
    475    473    472    476     1  0.0000000  1.2552000  3
    475    473    482    486     1  0.0000000  0.6508444  3
    475    473    482    483     1  0.0000000  0.6508444  3
    475    473    482    484     1  0.0000000  0.6508444  3
    477    476    479    485     1  0.0000000  0.6508444  3
    477    476    479    480     1  0.0000000  0.6508444  3
    477    476    479    481     1  0.0000000  0.6508444  3
    478    476    479    485     1  0.0000000  0.6508444  3
    478    476    479    480     1  0.0000000  0.6508444  3
    478    476    479    481     1  0.0000000  0.6508444  3
    479    485   1031   1032     1  180.0000771  10.4600000  2
    480    479    485   1031     1  180.0000771  0.0000000  2
    480    479    485    487     1  0.0000000  3.3472000  1
    480    479    485    487     1  0.0000000  0.0000000  2
    480    479    485    487     1  180.0000771  0.3347200  3
    481    479    485   1031     1  180.0000771  0.0000000  2
    481    479    485    487     1  0.0000000  3.3472000  1
    481    479    485    487     1  0.0000000  0.0000000  2
    481    479    485    487     1  180.0000771  0.3347200  3
    482    486   1060   1061     1  180.0000771  10.4600000  2
    483    482    486    488     1  0.0000000  3.3472000  1
    483    482    486    488     1  0.0000000  0.0000000  2
    483    482    486    488     1  180.0000771  0.3347200  3
    483    482    486   1060     1  180.0000771  0.0000000  2
    484    482    486    488     1  0.0000000  3.3472000  1
    484    482    486    488     1  0.0000000  0.0000000  2
    484    482    486    488     1  180.0000771  0.3347200  3
    484    482    486   1060     1  180.0000771  0.0000000  2
    485   1031   1033   1034     1  0.0000000  0.0000000  2
    485   1031   1033   1036     1  0.0000000  0.0000000  2
    486   1060   1062   1063     1  0.0000000  0.0000000  2
    486   1060   1062   1065     1  0.0000000  0.0000000  2
    487    485   1031   1032     1  0.0000000  8.3680000  1
    487    485   1031   1032     1  180.0000771  10.4600000  2
    488    486   1060   1061     1  0.0000000  8.3680000  1
    488    486   1060   1061     1  180.0000771  10.4600000  2
    491    494    514    515     1  0.0000000  0.0000000  2
    491    497    498    499     1  0.0000000  1.2552000  3
    491    497    498    500     1  0.0000000  1.2552000  3
    491    497    501    502     1  0.0000000  1.2552000  3
    491    497    501    503     1  0.0000000  1.2552000  3
    492    491    494    514     1  0.0000000  0.6508444  3
    492    491    494    495     1  0.0000000  0.6508444  3
    492    491    494    496     1  0.0000000  0.6508444  3
    492    491    497    498     1  0.0000000  1.2552000  3
    492    491    497    501     1  0.0000000  1.2552000  3
    493    491    494    514     1  0.0000000  0.6508444  3
    493    491    494    495     1  0.0000000  0.6508444  3
    493    491    494    496     1  0.0000000  0.6508444  3
    493    491    497    498     1  0.0000000  1.2552000  3
    493    491    497    501     1  0.0000000  1.2552000  3
    495    494    491    497     1  0.0000000  0.6508444  3
    495    494    514    515     1  0.0000000  0.0000000  2
    496    494    491    497     1  0.0000000  0.6508444  3
    496    494    514    515     1  0.0000000  0.0000000  2
    497    498    507    508     1  0.0000000  0.6508444  3
    497    498    507    509     1  0.0000000  0.6508444  3
    497    501    504    505     1  0.0000000  0.6508444  3
    497    501    504    506     1  0.0000000  0.6508444  3
    498    497    501    502     1  0.0000000  1.2552000  3
    498    497    501    503     1  0.0000000  1.2552000  3
    499    498    497    501     1  0.0000000  1.2552000  3
    499    498    507    511     1  0.0000000  0.6508444  3
    499    498    507    508     1  0.0000000  0.6508444  3
    499    498    507    509     1  0.0000000  0.6508444  3
    500    498    497    501     1  0.0000000  1.2552000  3
    500    498    507    511     1  0.0000000  0.6508444  3
    500    498    507    508     1  0.0000000  0.6508444  3
    500    498    507    509     1  0.0000000  0.6508444  3
    502    501    504    510     1  0.0000000  0.6508444  3
    502    501    504    505     1  0.0000000  0.6508444  3
    502    501    504    506     1  0.0000000  0.6508444  3
    503    501    504    510     1  0.0000000  0.6508444  3
    503    501    504    505     1  0.0000000  0.6508444  3
    503    501    504    506     1  0.0000000  0.6508444  3
    504    510   1089   1090     1  180.0000771  10.4600000  2
    505    504    510   1089     1  180.0000771  0.0000000  2
    505    504    510    512     1  0.0000000  3.3472000  1
    505    504    510    512     1  0.0000000  0.0000000  2
    505    504    510    512     1  180.0000771  0.3347200  3
    506    504    510   1089     1  180.0000771  0.0000000  2
    506    504    510    512     1  0.0000000  3.3472000  1
    506    504    510    512     1  0.0000000  0.0000000  2
    506    504    510    512     1  180.0000771  0.3347200  3
    507    511   1118   1119     1  180.0000771  10.4600000  2
    508    507    511    513     1  0.0000000  3.3472000  1
    508    507    511    513     1  0.0000000  0.0000000  2
    508    507    511    513     1  180.0000771  0.3347200  3
    508    507    511   1118     1  180.0000771  0.0000000  2
    509    507    511    513     1  0.0000000  3.3472000  1
    509    507    511    513     1  0.0000000  0.0000000  2
    509    507    511    513     1  180.0000771  0.3347200  3
    509    507    511   1118     1  180.0000771  0.0000000  2
    510   1089   1091   1092     1  0.0000000  0.0000000  2
    510   1089   1091   1094     1  0.0000000  0.0000000  2
    511   1118   1120   1121     1  0.0000000  0.0000000  2
    511   1118   1120   1123     1  0.0000000  0.0000000  2
    512    510   1089   1090     1  0.0000000  8.3680000  1
    512    510   1089   1090     1  180.0000771  10.4600000  2
    513    511   1118   1119     1  0.0000000  8.3680000  1
    513    511   1118   1119     1  180.0000771  10.4600000  2
    516    519    539    540     1  0.0000000  0.0000000  2
    516    522    523    524     1  0.0000000  1.2552000  3
    516    522    523    525     1  0.0000000  1.2552000  3
    516    522    526    527     1  0.0000000  1.2552000  3
    516    522    526    528     1  0.0000000  1.2552000  3
    517    516    519    539     1  0.0000000  0.6508444  3
    517    516    519    520     1  0.0000000  0.6508444  3
    517    516    519    521     1  0.0000000  0.6508444  3
    517    516    522    523     1  0.0000000  1.2552000  3
    517    516    522    526     1  0.0000000  1.2552000  3
    518    516    519    539     1  0.0000000  0.6508444  3
    518    516    519    520     1  0.0000000  0.6508444  3
    518    516    519    521     1  0.0000000  0.6508444  3
    518    516    522    523     1  0.0000000  1.2552000  3
    518    516    522    526     1  0.0000000  1.2552000  3
    520    519    516    522     1  0.0000000  0.6508444  3
    520    519    539    540     1  0.0000000  0.0000000  2
    521    519    516    522     1  0.0000000  0.6508444  3
    521    519    539    540     1  0.0000000  0.0000000  2
    522    523    532    533     1  0.0000000  0.6508444  3
    522    523    532    534     1  0.0000000  0.6508444  3
    522    526    529    530     1  0.0000000  0.6508444  3
    522    526    529    531     1  0.0000000  0.6508444  3
    523    522    526    527     1  0.0000000  1.2552000  3
    523    522    526    528     1  0.0000000  1.2552000  3
    524    523    522    526     1  0.0000000  1.2552000  3
    524    523    532    536     1  0.0000000  0.6508444  3
    524    523    532    533     1  0.0000000  0.6508444  3
    524    523    532    534     1  0.0000000  0.6508444  3
    525    523    522    526     1  0.0000000  1.2552000  3
    525    523    532    536     1  0.0000000  0.6508444  3
    525    523    532    533     1  0.0000000  0.6508444  3
    525    523    532    534     1  0.0000000  0.6508444  3
    527    526    529    535     1  0.0000000  0.6508444  3
    527    526    529    530     1  0.0000000  0.6508444  3
    527    526    529    531     1  0.0000000  0.6508444  3
    528    526    529    535     1  0.0000000  0.6508444  3
    528    526    529    530     1  0.0000000  0.6508444  3
    528    526    529    531     1  0.0000000  0.6508444  3
    529    535   1147   1148     1  180.0000771  10.4600000  2
    530    529    535   1147     1  180.0000771  0.0000000  2
    530    529    535    537     1  0.0000000  3.3472000  1
    530    529    535    537     1  0.0000000  0.0000000  2
    530    529    535    537     1  180.0000771  0.3347200  3
    531    529    535   1147     1  180.0000771  0.0000000  2
    531    529    535    537     1  0.0000000  3.3472000  1
    531    529    535    537     1  0.0000000  0.0000000  2
    531    529    535    537     1  180.0000771  0.3347200  3
    532    536   1176   1177     1  180.0000771  10.4600000  2
    533    532    536    538     1  0.0000000  3.3472000  1
    533    532    536    538     1  0.0000000  0.0000000  2
    533    532    536    538     1  180.0000771  0.3347200  3
    533    532    536   1176     1  180.0000771  0.0000000  2
    534    532    536    538     1  0.0000000  3.3472000  1
    534    532    536    538     1  0.0000000  0.0000000  2
    534    532    536    538     1  180.0000771  0.3347200  3
    534    532    536   1176     1  180.0000771  0.0000000  2
    535   1147   1149   1150     1  0.0000000  0.0000000  2
    535   1147   1149   1152     1  0.0000000  0.0000000  2
    536   1176   1178   1179     1  0.0000000  0.0000000  2
    536   1176   1178   1181     1  0.0000000  0.0000000  2
    537    535   1147   1148     1  0.0000000  8.3680000  1
    537    535   1147   1148     1  180.0000771  10.4600000  2
    538    536   1176   1177     1  0.0000000  8.3680000  1
    538    536   1176   1177     1  180.0000771  10.4600000  2
    541    544    564    565     1  0.0000000  0.0000000  2
    541    547    548    549     1  0.0000000  1.2552000  3
    541    547    548    550     1  0.0000000  1.2552000  3
    541    547    551    552     1  0.0000000  1.2552000  3
    541    547    551    553     1  0.0000000  1.2552000  3
    542    541    544    564     1  0.0000000  0.6508444  3
    542    541    544    545     1  0.0000000  0.6508444  3
    542    541    544    546     1  0.0000000  0.6508444  3
    542    541    547    548     1  0.0000000  1.2552000  3
    542    541    547    551     1  0.0000000  1.2552000  3
    543    541    544    564     1  0.0000000  0.6508444  3
    543    541    544    545     1  0.0000000  0.6508444  3
    543    541    544    546     1  0.0000000  0.6508444  3
    543    541    547    548     1  0.0000000  1.2552000  3
    543    541    547    551     1  0.0000000  1.2552000  3
    545    544    541    547     1  0.0000000  0.6508444  3
    545    544    564    565     1  0.0000000  0.0000000  2
    546    544    541    547     1  0.0000000  0.6508444  3
    546    544    564    565     1  0.0000000  0.0000000  2
    547    548    557    558     1  0.0000000  0.6508444  3
    547    548    557    559     1  0.0000000  0.6508444  3
    547    551    554    555     1  0.0000000  0.6508444  3
    547    551    554    556     1  0.0000000  0.6508444  3
    548    547    551    552     1  0.0000000  1.2552000  3
    548    547    551    553     1  0.0000000  1.2552000  3
    549    548    547    551     1  0.0000000  1.2552000  3
    549    548    557    561     1  0.0000000  0.6508444  3
    549    548    557    558     1  0.0000000  0.6508444  3
    549    548    557    559     1  0.0000000  0.6508444  3
    550    548    547    551     1  0.0000000  1.2552000  3
    550    548    557    561     1  0.0000000  0.6508444  3
    550    548    557    558     1  0.0000000  0.6508444  3
    550    548    557    559     1  0.0000000  0.6508444  3
    552    551    554    560     1  0.0000000  0.6508444  3
    552    551    554    555     1  0.0000000  0.6508444  3
    552    551    554    556     1  0.0000000  0.6508444  3
    553    551    554    560     1  0.0000000  0.6508444  3
    553    551    554    555     1  0.0000000  0.6508444  3
    553    551    554    556     1  0.0000000  0.6508444  3
    554    560   1205   1206     1  180.0000771  10.4600000  2
    555    554    560   1205     1  180.0000771  0.0000000  2
    555    554    560    562     1  0.0000000  3.3472000  1
    555    554    560    562     1  0.0000000  0.0000000  2
    555    554    560    562     1  180.0000771  0.3347200  3
    556    554    560   1205     1  180.0000771  0.0000000  2
    556    554    560    562     1  0.0000000  3.3472000  1
    556    554    560    562     1  0.0000000  0.0000000  2
    556    554    560    562     1  180.0000771  0.3347200  3
    557    561   1234   1235     1  180.0000771  10.4600000  2
    558    557    561    563     1  0.0000000  3.3472000  1
    558    557    561    563     1  0.0000000  0.0000000  2
    558    557    561    563     1  180.0000771  0.3347200  3
    558    557    561   1234     1  180.0000771  0.0000000  2
    559    557    561    563     1  0.0000000  3.3472000  1
    559    557    561    563     1  0.0000000  0.0000000  2
    559    557    561    563     1  180.0000771  0.3347200  3
    559    557    561   1234     1  180.0000771  0.0000000  2
    560   1205   1207   1208     1  0.0000000  0.0000000  2
    560   1205   1207   1210     1  0.0000000  0.0000000  2
    561   1234   1236   1237     1  0.0000000  0.0000000  2
    561   1234   1236   1239     1  0.0000000  0.0000000  2
    562    560   1205   1206     1  0.0000000  8.3680000  1
    562    560   1205   1206     1  180.0000771  10.4600000  2
    563    561   1234   1235     1  0.0000000  8.3680000  1
    563    561   1234   1235     1  180.0000771  10.4600000  2
    566    569    589    590     1  0.0000000  0.0000000  2
    566    572    573    574     1  0.0000000  1.2552000  3
    566    572    573    575     1  0.0000000  1.2552000  3
    566    572    576    577     1  0.0000000  1.2552000  3
    566    572    576    578     1  0.0000000  1.2552000  3
    567    566    569    589     1  0.0000000  0.6508444  3
    567    566    569    570     1  0.0000000  0.6508444  3
    567    566    569    571     1  0.0000000  0.6508444  3
    567    566    572    573     1  0.0000000  1.2552000  3
    567    566    572    576     1  0.0000000  1.2552000  3
    568    566    569    589     1  0.0000000  0.6508444  3
    568    566    569    570     1  0.0000000  0.6508444  3
    568    566    569    571     1  0.0000000  0.6508444  3
    568    566    572    573     1  0.0000000  1.2552000  3
    568    566    572    576     1  0.0000000  1.2552000  3
    570    569    566    572     1  0.0000000  0.6508444  3
    570    569    589    590     1  0.0000000  0.0000000  2
    571    569    566    572     1  0.0000000  0.6508444  3
    571    569    589    590     1  0.0000000  0.0000000  2
    572    573    582    583     1  0.0000000  0.6508444  3
    572    573    582    584     1  0.0000000  0.6508444  3
    572    576    579    580     1  0.0000000  0.6508444  3
    572    576    579    581     1  0.0000000  0.6508444  3
    573    572    576    577     1  0.0000000  1.2552000  3
    573    572    576    578     1  0.0000000  1.2552000  3
    574    573    572    576     1  0.0000000  1.2552000  3
    574    573    582    586     1  0.0000000  0.6508444  3
    574    573    582    583     1  0.0000000  0.6508444  3
    574    573    582    584     1  0.0000000  0.6508444  3
    575    573    572    576     1  0.0000000  1.2552000  3
    575    573    582    586     1  0.0000000  0.6508444  3
    575    573    582    583     1  0.0000000  0.6508444  3
    575    573    582    584     1  0.0000000  0.6508444  3
    577    576    579    585     1  0.0000000  0.6508444  3
    577    576    579    580     1  0.0000000  0.6508444  3
    577    576    579    581     1  0.0000000  0.6508444  3
    578    576    579    585     1  0.0000000  0.6508444  3
    578    576    579    580     1  0.0000000  0.6508444  3
    578    576    579    581     1  0.0000000  0.6508444  3
    579    585   1263   1264     1  180.0000771  10.4600000  2
    580    579    585   1263     1  180.0000771  0.0000000  2
    580    579    585    587     1  0.0000000  3.3472000  1
    580    579    585    587     1  0.0000000  0.0000000  2
    580    579    585    587     1  180.0000771  0.3347200  3
    581    579    585   1263     1  180.0000771  0.0000000  2
    581    579    585    587     1  0.0000000  3.3472000  1
    581    579    585    587     1  0.0000000  0.0000000  2
    581    579    585    587     1  180.0000771  0.3347200  3
    582    586   1292   1293     1  180.0000771  10.4600000  2
    583    582    586    588     1  0.0000000  3.3472000  1
    583    582    586    588     1  0.0000000  0.0000000  2
    583    582    586    588     1  180.0000771  0.3347200  3
    583    582    586   1292     1  180.0000771  0.0000000  2
    584    582    586    588     1  0.0000000  3.3472000  1
    584    582    586    588     1  0.0000000  0.0000000  2
    584    582    586    588     1  180.0000771  0.3347200  3
    584    582    586   1292     1  180.0000771  0.0000000  2
    585   1263   1265   1266     1  0.0000000  0.0000000  2
    585   1263   1265   1268     1  0.0000000  0.0000000  2
    586   1292   1294   1295     1  0.0000000  0.0000000  2
    586   1292   1294   1297     1  0.0000000  0.0000000  2
    587    585   1263   1264     1  0.0000000  8.3680000  1
    587    585   1263   1264     1  180.0000771  10.4600000  2
    588    586   1292   1293     1  0.0000000  8.3680000  1
    588    586   1292   1293     1  180.0000771  10.4600000  2
    591    594    614    615     1  0.0000000  0.0000000  2
    591    597    598    599     1  0.0000000  1.2552000  3
    591    597    598    600     1  0.0000000  1.2552000  3
    591    597    601    602     1  0.0000000  1.2552000  3
    591    597    601    603     1  0.0000000  1.2552000  3
    592    591    594    614     1  0.0000000  0.6508444  3
    592    591    594    595     1  0.0000000  0.6508444  3
    592    591    594    596     1  0.0000000  0.6508444  3
    592    591    597    598     1  0.0000000  1.2552000  3
    592    591    597    601     1  0.0000000  1.2552000  3
    593    591    594    614     1  0.0000000  0.6508444  3
    593    591    594    595     1  0.0000000  0.6508444  3
    593    591    594    596     1  0.0000000  0.6508444  3
    593    591    597    598     1  0.0000000  1.2552000  3
    593    591    597    601     1  0.0000000  1.2552000  3
    595    594    591    597     1  0.0000000  0.6508444  3
    595    594    614    615     1  0.0000000  0.0000000  2
    596    594    591    597     1  0.0000000  0.6508444  3
    596    594    614    615     1  0.0000000  0.0000000  2
    597    598    607    608     1  0.0000000  0.6508444  3
    597    598    607    609     1  0.0000000  0.6508444  3
    597    601    604    605     1  0.0000000  0.6508444  3
    597    601    604    606     1  0.0000000  0.6508444  3
    598    597    601    602     1  0.0000000  1.2552000  3
    598    597    601    603     1  0.0000000  1.2552000  3
    599    598    597    601     1  0.0000000  1.2552000  3
    599    598    607    611     1  0.0000000  0.6508444  3
    599    598    607    608     1  0.0000000  0.6508444  3
    599    598    607    609     1  0.0000000  0.6508444  3
    600    598    597    601     1  0.0000000  1.2552000  3
    600    598    607    611     1  0.0000000  0.6508444  3
    600    598    607    608     1  0.0000000  0.6508444  3
    600    598    607    609     1  0.0000000  0.6508444  3
    602    601    604    610     1  0.0000000  0.6508444  3
    602    601    604    605     1  0.0000000  0.6508444  3
    602    601    604    606     1  0.0000000  0.6508444  3
    603    601    604    610     1  0.0000000  0.6508444  3
    603    601    604    605     1  0.0000000  0.6508444  3
    603    601    604    606     1  0.0000000  0.6508444  3
    604    610   1321   1322     1  180.0000771  10.4600000  2
    605    604    610   1321     1  180.0000771  0.0000000  2
    605    604    610    612     1  0.0000000  3.3472000  1
    605    604    610    612     1  0.0000000  0.0000000  2
    605    604    610    612     1  180.0000771  0.3347200  3
    606    604    610   1321     1  180.0000771  0.0000000  2
    606    604    610    612     1  0.0000000  3.3472000  1
    606    604    610    612     1  0.0000000  0.0000000  2
    606    604    610    612     1  180.0000771  0.3347200  3
    607    611   1350   1351     1  180.0000771  10.4600000  2
    608    607    611    613     1  0.0000000  3.3472000  1
    608    607    611    613     1  0.0000000  0.0000000  2
    608    607    611    613     1  180.0000771  0.3347200  3
    608    607    611   1350     1  180.0000771  0.0000000  2
    609    607    611    613     1  0.0000000  3.3472000  1
    609    607    611    613     1  0.0000000  0.0000000  2
    609    607    611    613     1  180.0000771  0.3347200  3
    609    607    611   1350     1  180.0000771  0.0000000  2
    610   1321   1323   1324     1  0.0000000  0.0000000  2
    610   1321   1323   1326     1  0.0000000  0.0000000  2
    611   1350   1352   1353     1  0.0000000  0.0000000  2
    611   1350   1352   1355     1  0.0000000  0.0000000  2
    612    610   1321   1322     1  0.0000000  8.3680000  1
    612    610   1321   1322     1  180.0000771  10.4600000  2
    613    611   1350   1351     1  0.0000000  8.3680000  1
    613    611   1350   1351     1  180.0000771  10.4600000  2
    616    619    639    640     1  0.0000000  0.0000000  2
    616    622    623    624     1  0.0000000  1.2552000  3
    616    622    623    625     1  0.0000000  1.2552000  3
    616    622    626    627     1  0.0000000  1.2552000  3
    616    622    626    628     1  0.0000000  1.2552000  3
    617    616    619    639     1  0.0000000  0.6508444  3
    617    616    619    620     1  0.0000000  0.6508444  3
    617    616    619    621     1  0.0000000  0.6508444  3
    617    616    622    623     1  0.0000000  1.2552000  3
    617    616    622    626     1  0.0000000  1.2552000  3
    618    616    619    639     1  0.0000000  0.6508444  3
    618    616    619    620     1  0.0000000  0.6508444  3
    618    616    619    621     1  0.0000000  0.6508444  3
    618    616    622    623     1  0.0000000  1.2552000  3
    618    616    622    626     1  0.0000000  1.2552000  3
    620    619    616    622     1  0.0000000  0.6508444  3
    620    619    639    640     1  0.0000000  0.0000000  2
    621    619    616    622     1  0.0000000  0.6508444  3
    621    619    639    640     1  0.0000000  0.0000000  2
    622    623    632    633     1  0.0000000  0.6508444  3
    622    623    632    634     1  0.0000000  0.6508444  3
    622    626    629    630     1  0.0000000  0.6508444  3
    622    626    629    631     1  0.0000000  0.6508444  3
    623    622    626    627     1  0.0000000  1.2552000  3
    623    622    626    628     1  0.0000000  1.2552000  3
    624    623    622    626     1  0.0000000  1.2552000  3
    624    623    632    636     1  0.0000000  0.6508444  3
    624    623    632    633     1  0.0000000  0.6508444  3
    624    623    632    634     1  0.0000000  0.6508444  3
    625    623    622    626     1  0.0000000  1.2552000  3
    625    623    632    636     1  0.0000000  0.6508444  3
    625    623    632    633     1  0.0000000  0.6508444  3
    625    623    632    634     1  0.0000000  0.6508444  3
    627    626    629    635     1  0.0000000  0.6508444  3
    627    626    629    630     1  0.0000000  0.6508444  3
    627    626    629    631     1  0.0000000  0.6508444  3
    628    626    629    635     1  0.0000000  0.6508444  3
    628    626    629    630     1  0.0000000  0.6508444  3
    628    626    629    631     1  0.0000000  0.6508444  3
    629    635   1379   1380     1  180.0000771  10.4600000  2
    630    629    635   1379     1  180.0000771  0.0000000  2
    630    629    635    637     1  0.0000000  3.3472000  1
    630    629    635    637     1  0.0000000  0.0000000  2
    630    629    635    637     1  180.0000771  0.3347200  3
    631    629    635   1379     1  180.0000771  0.0000000  2
    631    629    635    637     1  0.0000000  3.3472000  1
    631    629    635    637     1  0.0000000  0.0000000  2
    631    629    635    637     1  180.0000771  0.3347200  3
    632    636   1408   1409     1  180.0000771  10.4600000  2
    633    632    636    638     1  0.0000000  3.3472000  1
    633    632    636    638     1  0.0000000  0.0000000  2
    633    632    636    638     1  180.0000771  0.3347200  3
    633    632    636   1408     1  180.0000771  0.0000000  2
    634    632    636    638     1  0.0000000  3.3472000  1
    634    632    636    638     1  0.0000000  0.0000000  2
    634    632    636    638     1  180.0000771  0.3347200  3
    634    632    636   1408     1  180.0000771  0.0000000  2
    635   1379   1381   1382     1  0.0000000  0.0000000  2
    635   1379   1381   1384     1  0.0000000  0.0000000  2
    636   1408   1410   1411     1  0.0000000  0.0000000  2
    636   1408   1410   1413     1  0.0000000  0.0000000  2
    637    635   1379   1380     1  0.0000000  8.3680000  1
    637    635   1379   1380     1  180.0000771  10.4600000  2
    638    636   1408   1409     1  0.0000000  8.3680000  1
    638    636   1408   1409     1  180.0000771  10.4600000  2
    641    644    664    665     1  0.0000000  0.0000000  2
    641    647    648    649     1  0.0000000  1.2552000  3
    641    647    648    650     1  0.0000000  1.2552000  3
    641    647    651    652     1  0.0000000  1.2552000  3
    641    647    651    653     1  0.0000000  1.2552000  3
    642    641    644    664     1  0.0000000  0.6508444  3
    642    641    644    645     1  0.0000000  0.6508444  3
    642    641    644    646     1  0.0000000  0.6508444  3
    642    641    647    648     1  0.0000000  1.2552000  3
    642    641    647    651     1  0.0000000  1.2552000  3
    643    641    644    664     1  0.0000000  0.6508444  3
    643    641    644    645     1  0.0000000  0.6508444  3
    643    641    644    646     1  0.0000000  0.6508444  3
    643    641    647    648     1  0.0000000  1.2552000  3
    643    641    647    651     1  0.0000000  1.2552000  3
    645    644    641    647     1  0.0000000  0.6508444  3
    645    644    664    665     1  0.0000000  0.0000000  2
    646    644    641    647     1  0.0000000  0.6508444  3
    646    644    664    665     1  0.0000000  0.0000000  2
    647    648    657    658     1  0.0000000  0.6508444  3
    647    648    657    659     1  0.0000000  0.6508444  3
    647    651    654    655     1  0.0000000  0.6508444  3
    647    651    654    656     1  0.0000000  0.6508444  3
    648    647    651    652     1  0.0000000  1.2552000  3
    648    647    651    653     1  0.0000000  1.2552000  3
    649    648    647    651     1  0.0000000  1.2552000  3
    649    648    657    661     1  0.0000000  0.6508444  3
    649    648    657    658     1  0.0000000  0.6508444  3
    649    648    657    659     1  0.0000000  0.6508444  3
    650    648    647    651     1  0.0000000  1.2552000  3
    650    648    657    661     1  0.0000000  0.6508444  3
    650    648    657    658     1  0.0000000  0.6508444  3
    650    648    657    659     1  0.0000000  0.6508444  3
    652    651    654    660     1  0.0000000  0.6508444  3
    652    651    654    655     1  0.0000000  0.6508444  3
    652    651    654    656     1  0.0000000  0.6508444  3
    653    651    654    660     1  0.0000000  0.6508444  3
    653    651    654    655     1  0.0000000  0.6508444  3
    653    651    654    656     1  0.0000000  0.6508444  3
    654    660   1437   1438     1  180.0000771  10.4600000  2
    655    654    660   1437     1  180.0000771  0.0000000  2
    655    654    660    662     1  0.0000000  3.3472000  1
    655    654    660    662     1  0.0000000  0.0000000  2
    655    654    660    662     1  180.0000771  0.3347200  3
    656    654    660   1437     1  180.0000771  0.0000000  2
    656    654    660    662     1  0.0000000  3.3472000  1
    656    654    660    662     1  0.0000000  0.0000000  2
    656    654    660    662     1  180.0000771  0.3347200  3
    657    661   1466   1467     1  180.0000771  10.4600000  2
    658    657    661    663     1  0.0000000  3.3472000  1
    658    657    661    663     1  0.0000000  0.0000000  2
    658    657    661    663     1  180.0000771  0.3347200  3
    658    657    661   1466     1  180.0000771  0.0000000  2
    659    657    661    663     1  0.0000000  3.3472000  1
    659    657    661    663     1  0.0000000  0.0000000  2
    659    657    661    663     1  180.0000771  0.3347200  3
    659    657    661   1466     1  180.0000771  0.0000000  2
    660   1437   1439   1440     1  0.0000000  0.0000000  2
    660   1437   1439   1442     1  0.0000000  0.0000000  2
    661   1466   1468   1469     1  0.0000000  0.0000000  2
    661   1466   1468   1471     1  0.0000000  0.0000000  2
    662    660   1437   1438     1  0.0000000  8.3680000  1
    662    660   1437   1438     1  180.0000771  10.4600000  2
    663    661   1466   1467     1  0.0000000  8.3680000  1
    663    661   1466   1467     1  180.0000771  10.4600000  2
    666    669    689    690     1  0.0000000  0.0000000  2
    666    672    673    674     1  0.0000000  1.2552000  3
    666    672    673    675     1  0.0000000  1.2552000  3
    666    672    676    677     1  0.0000000  1.2552000  3
    666    672    676    678     1  0.0000000  1.2552000  3
    667    666    669    689     1  0.0000000  0.6508444  3
    667    666    669    670     1  0.0000000  0.6508444  3
    667    666    669    671     1  0.0000000  0.6508444  3
    667    666    672    673     1  0.0000000  1.2552000  3
    667    666    672    676     1  0.0000000  1.2552000  3
    668    666    669    689     1  0.0000000  0.6508444  3
    668    666    669    670     1  0.0000000  0.6508444  3
    668    666    669    671     1  0.0000000  0.6508444  3
    668    666    672    673     1  0.0000000  1.2552000  3
    668    666    672    676     1  0.0000000  1.2552000  3
    670    669    666    672     1  0.0000000  0.6508444  3
    670    669    689    690     1  0.0000000  0.0000000  2
    671    669    666    672     1  0.0000000  0.6508444  3
    671    669    689    690     1  0.0000000  0.0000000  2
    672    673    682    683     1  0.0000000  0.6508444  3
    672    673    682    684     1  0.0000000  0.6508444  3
    672    676    679    680     1  0.0000000  0.6508444  3
    672    676    679    681     1  0.0000000  0.6508444  3
    673    672    676    677     1  0.0000000  1.2552000  3
    673    672    676    678     1  0.0000000  1.2552000  3
    674    673    672    676     1  0.0000000  1.2552000  3
    674    673    682    686     1  0.0000000  0.6508444  3
    674    673    682    683     1  0.0000000  0.6508444  3
    674    673    682    684     1  0.0000000  0.6508444  3
    675    673    672    676     1  0.0000000  1.2552000  3
    675    673    682    686     1  0.0000000  0.6508444  3
    675    673    682    683     1  0.0000000  0.6508444  3
    675    673    682    684     1  0.0000000  0.6508444  3
    677    676    679    685     1  0.0000000  0.6508444  3
    677    676    679    680     1  0.0000000  0.6508444  3
    677    676    679    681     1  0.0000000  0.6508444  3
    678    676    679    685     1  0.0000000  0.6508444  3
    678    676    679    680     1  0.0000000  0.6508444  3
    678    676    679    681     1  0.0000000  0.6508444  3
    679    685   1495   1496     1  180.0000771  10.4600000  2
    680    679    685   1495     1  180.0000771  0.0000000  2
    680    679    685    687     1  0.0000000  3.3472000  1
    680    679    685    687     1  0.0000000  0.0000000  2
    680    679    685    687     1  180.0000771  0.3347200  3
    681    679    685   1495     1  180.0000771  0.0000000  2
    681    679    685    687     1  0.0000000  3.3472000  1
    681    679    685    687     1  0.0000000  0.0000000  2
    681    679    685    687     1  180.0000771  0.3347200  3
    682    686   1524   1525     1  180.0000771  10.4600000  2
    683    682    686    688     1  0.0000000  3.3472000  1
    683    682    686    688     1  0.0000000  0.0000000  2
    683    682    686    688     1  180.0000771  0.3347200  3
    683    682    686   1524     1  180.0000771  0.0000000  2
    684    682    686    688     1  0.0000000  3.3472000  1
    684    682    686    688     1  0.0000000  0.0000000  2
    684    682    686    688     1  180.0000771  0.3347200  3
    684    682    686   1524     1  180.0000771  0.0000000  2
    685   1495   1497   1498     1  0.0000000  0.0000000  2
    685   1495   1497   1500     1  0.0000000  0.0000000  2
    686   1524   1526   1527     1  0.0000000  0.0000000  2
    686   1524   1526   1529     1  0.0000000  0.0000000  2
    687    685   1495   1496     1  0.0000000  8.3680000  1
    687    685   1495   1496     1  180.0000771  10.4600000  2
    688    686   1524   1525     1  0.0000000  8.3680000  1
    688    686   1524   1525     1  180.0000771  10.4600000  2
    691    694    714    715     1  0.0000000  0.0000000  2
    691    697    698    699     1  0.0000000  1.2552000  3
    691    697    698    700     1  0.0000000  1.2552000  3
    691    697    701    702     1  0.0000000  1.2552000  3
    691    697    701    703     1  0.0000000  1.2552000  3
    692    691    694    714     1  0.0000000  0.6508444  3
    692    691    694    695     1  0.0000000  0.6508444  3
    692    691    694    696     1  0.0000000  0.6508444  3
    692    691    697    698     1  0.0000000  1.2552000  3
    692    691    697    701     1  0.0000000  1.2552000  3
    693    691    694    714     1  0.0000000  0.6508444  3
    693    691    694    695     1  0.0000000  0.6508444  3
    693    691    694    696     1  0.0000000  0.6508444  3
    693    691    697    698     1  0.0000000  1.2552000  3
    693    691    697    701     1  0.0000000  1.2552000  3
    695    694    691    697     1  0.0000000  0.6508444  3
    695    694    714    715     1  0.0000000  0.0000000  2
    696    694    691    697     1  0.0000000  0.6508444  3
    696    694    714    715     1  0.0000000  0.0000000  2
    697    698    707    708     1  0.0000000  0.6508444  3
    697    698    707    709     1  0.0000000  0.6508444  3
    697    701    704    705     1  0.0000000  0.6508444  3
    697    701    704    706     1  0.0000000  0.6508444  3
    698    697    701    702     1  0.0000000  1.2552000  3
    698    697    701    703     1  0.0000000  1.2552000  3
    699    698    697    701     1  0.0000000  1.2552000  3
    699    698    707    711     1  0.0000000  0.6508444  3
    699    698    707    708     1  0.0000000  0.6508444  3
    699    698    707    709     1  0.0000000  0.6508444  3
    700    698    697    701     1  0.0000000  1.2552000  3
    700    698    707    711     1  0.0000000  0.6508444  3
    700    698    707    708     1  0.0000000  0.6508444  3
    700    698    707    709     1  0.0000000  0.6508444  3
    702    701    704    710     1  0.0000000  0.6508444  3
    702    701    704    705     1  0.0000000  0.6508444  3
    702    701    704    706     1  0.0000000  0.6508444  3
    703    701    704    710     1  0.0000000  0.6508444  3
    703    701    704    705     1  0.0000000  0.6508444  3
    703    701    704    706     1  0.0000000  0.6508444  3
    704    710   1553   1554     1  180.0000771  10.4600000  2
    705    704    710   1553     1  180.0000771  0.0000000  2
    705    704    710    712     1  0.0000000  3.3472000  1
    705    704    710    712     1  0.0000000  0.0000000  2
    705    704    710    712     1  180.0000771  0.3347200  3
    706    704    710   1553     1  180.0000771  0.0000000  2
    706    704    710    712     1  0.0000000  3.3472000  1
    706    704    710    712     1  0.0000000  0.0000000  2
    706    704    710    712     1  180.0000771  0.3347200  3
    707    711   1582   1583     1  180.0000771  10.4600000  2
    708    707    711    713     1  0.0000000  3.3472000  1
    708    707    711    713     1  0.0000000  0.0000000  2
    708    707    711    713     1  180.0000771  0.3347200  3
    708    707    711   1582     1  180.0000771  0.0000000  2
    709    707    711    713     1  0.0000000  3.3472000  1
    709    707    711    713     1  0.0000000  0.0000000  2
    709    707    711    713     1  180.0000771  0.3347200  3
    709    707    711   1582     1  180.0000771  0.0000000  2
    710   1553   1555   1556     1  0.0000000  0.0000000  2
    710   1553   1555   1558     1  0.0000000  0.0000000  2
    711   1582   1584   1585     1  0.0000000  0.0000000  2
    711   1582   1584   1587     1  0.0000000  0.0000000  2
    712    710   1553   1554     1  0.0000000  8.3680000  1
    712    710   1553   1554     1  180.0000771  10.4600000  2
    713    711   1582   1583     1  0.0000000  8.3680000  1
    713    711   1582   1583     1  180.0000771  10.4600000  2
    716    719    739    740     1  0.0000000  0.0000000  2
    716    722    723    724     1  0.0000000  1.2552000  3
    716    722    723    725     1  0.0000000  1.2552000  3
    716    722    726    727     1  0.0000000  1.2552000  3
    716    722    726    728     1  0.0000000  1.2552000  3
    717    716    719    739     1  0.0000000  0.6508444  3
    717    716    719    720     1  0.0000000  0.6508444  3
    717    716    719    721     1  0.0000000  0.6508444  3
    717    716    722    723     1  0.0000000  1.2552000  3
    717    716    722    726     1  0.0000000  1.2552000  3
    718    716    719    739     1  0.0000000  0.6508444  3
    718    716    719    720     1  0.0000000  0.6508444  3
    718    716    719    721     1  0.0000000  0.6508444  3
    718    716    722    723     1  0.0000000  1.2552000  3
    718    716    722    726     1  0.0000000  1.2552000  3
    720    719    716    722     1  0.0000000  0.6508444  3
    720    719    739    740     1  0.0000000  0.0000000  2
    721    719    716    722     1  0.0000000  0.6508444  3
    721    719    739    740     1  0.0000000  0.0000000  2
    722    723    732    733     1  0.0000000  0.6508444  3
    722    723    732    734     1  0.0000000  0.6508444  3
    722    726    729    730     1  0.0000000  0.6508444  3
    722    726    729    731     1  0.0000000  0.6508444  3
    723    722    726    727     1  0.0000000  1.2552000  3
    723    722    726    728     1  0.0000000  1.2552000  3
    724    723    722    726     1  0.0000000  1.2552000  3
    724    723    732    736     1  0.0000000  0.6508444  3
    724    723    732    733     1  0.0000000  0.6508444  3
    724    723    732    734     1  0.0000000  0.6508444  3
    725    723    722    726     1  0.0000000  1.2552000  3
    725    723    732    736     1  0.0000000  0.6508444  3
    725    723    732    733     1  0.0000000  0.6508444  3
    725    723    732    734     1  0.0000000  0.6508444  3
    727    726    729    735     1  0.0000000  0.6508444  3
    727    726    729    730     1  0.0000000  0.6508444  3
    727    726    729    731     1  0.0000000  0.6508444  3
    728    726    729    735     1  0.0000000  0.6508444  3
    728    726    729    730     1  0.0000000  0.6508444  3
    728    726    729    731     1  0.0000000  0.6508444  3
    729    735   1611   1612     1  180.0000771  10.4600000  2
    730    729    735   1611     1  180.0000771  0.0000000  2
    730    729    735    737     1  0.0000000  3.3472000  1
    730    729    735    737     1  0.0000000  0.0000000  2
    730    729    735    737     1  180.0000771  0.3347200  3
    731    729    735   1611     1  180.0000771  0.0000000  2
    731    729    735    737     1  0.0000000  3.3472000  1
    731    729    735    737     1  0.0000000  0.0000000  2
    731    729    735    737     1  180.0000771  0.3347200  3
    732    736   1640   1641     1  180.0000771  10.4600000  2
    733    732    736   1640     1  180.0000771  0.0000000  2
    733    732    736    738     1  0.0000000  3.3472000  1
    733    732    736    738     1  0.0000000  0.0000000  2
    733    732    736    738     1  180.0000771  0.3347200  3
    734    732    736   1640     1  180.0000771  0.0000000  2
    734    732    736    738     1  0.0000000  3.3472000  1
    734    732    736    738     1  0.0000000  0.0000000  2
    734    732    736    738     1  180.0000771  0.3347200  3
    735   1611   1613   1614     1  0.0000000  0.0000000  2
    735   1611   1613   1616     1  0.0000000  0.0000000  2
    736   1640   1642   1643     1  0.0000000  0.0000000  2
    736   1640   1642   1645     1  0.0000000  0.0000000  2
    737    735   1611   1612     1  0.0000000  8.3680000  1
    737    735   1611   1612     1  180.0000771  10.4600000  2
    738    736   1640   1641     1  0.0000000  8.3680000  1
    738    736   1640   1641     1  180.0000771  10.4600000  2
    741    743    745    747     1  0.0000000  0.6508444  3
    741    743    745    748     1  0.0000000  0.6508444  3
    742    741    743    745     1  0.0000000  0.0000000  2
    742    741    743    744     1  0.0000000  0.0000000  2
    742    741    743    746     1  0.0000000  0.0000000  2
    744    743    745    749     1  0.0000000  0.6508444  3
    744    743    745    747     1  0.0000000  0.6508444  3
    744    743    745    748     1  0.0000000  0.6508444  3
    745    749    750    760     1  0.0000000  1.2552000  3
    745    749    750    761     1  0.0000000  1.2552000  3
    745    749    751    752     1  0.0000000  1.2552000  3
    745    749    751    754     1  0.0000000  1.2552000  3
    746    743    745    749     1  0.0000000  0.6508444  3
    746    743    745    747     1  0.0000000  0.6508444  3
    746    743    745    748     1  0.0000000  0.6508444  3
    747    745    749    750     1  0.0000000  1.2552000  3
    747    745    749    751     1  0.0000000  1.2552000  3
    748    745    749    750     1  0.0000000  1.2552000  3
    748    745    749    751     1  0.0000000  1.2552000  3
    749    750    762    763     1  0.0000000  0.6508444  3
    749    750    762    764     1  0.0000000  0.6508444  3
    749    751    753    755     1  0.0000000  0.6508444  3
    749    751    753    756     1  0.0000000  0.6508444  3
    750    749    751    752     1  0.0000000  1.2552000  3
    750    749    751    754     1  0.0000000  1.2552000  3
    751    749    750    760     1  0.0000000  1.2552000  3
    751    749    750    761     1  0.0000000  1.2552000  3
    752    751    753    757     1  0.0000000  0.6508444  3
    752    751    753    755     1  0.0000000  0.6508444  3
    752    751    753    756     1  0.0000000  0.6508444  3
    753    757    758    768     1  180.0000771  9.6232000  2
    754    751    753    757     1  0.0000000  0.6508444  3
    754    751    753    755     1  0.0000000  0.6508444  3
    754    751    753    756     1  0.0000000  0.6508444  3
    755    753    757    758     1  180.0000771  0.0000000  2
    755    753    757    759     1  0.0000000  3.3472000  1
    755    753    757    759     1  0.0000000  0.0000000  2
    755    753    757    759     1  180.0000771  0.3347200  3
    756    753    757    758     1  180.0000771  0.0000000  2
    756    753    757    759     1  0.0000000  3.3472000  1
    756    753    757    759     1  0.0000000  0.0000000  2
    756    753    757    759     1  180.0000771  0.3347200  3
    759    757    758    768     1  0.0000000  7.9496000  1
    759    757    758    768     1  180.0000771  9.6232000  2
    760    750    762    765     1  0.0000000  0.6508444  3
    760    750    762    763     1  0.0000000  0.6508444  3
    760    750    762    764     1  0.0000000  0.6508444  3
    761    750    762    765     1  0.0000000  0.6508444  3
    761    750    762    763     1  0.0000000  0.6508444  3
    761    750    762    764     1  0.0000000  0.6508444  3
    762    765    767    769     1  180.0000771  9.6232000  2
    763    762    765    766     1  0.0000000  3.3472000  1
    763    762    765    766     1  0.0000000  0.0000000  2
    763    762    765    766     1  180.0000771  0.3347200  3
    763    762    765    767     1  180.0000771  0.0000000  2
    764    762    765    766     1  0.0000000  3.3472000  1
    764    762    765    766     1  0.0000000  0.0000000  2
    764    762    765    766     1  180.0000771  0.3347200  3
    764    762    765    767     1  180.0000771  0.0000000  2
    766    765    767    769     1  0.0000000  7.9496000  1
    766    765    767    769     1  180.0000771  9.6232000  2
    770    772    774    776     1  0.0000000  0.6508444  3
    770    772    774    777     1  0.0000000  0.6508444  3
    771    770    772    774     1  0.0000000  0.0000000  2
    771    770    772    773     1  0.0000000  0.0000000  2
    771    770    772    775     1  0.0000000  0.0000000  2
    773    772    774    778     1  0.0000000  0.6508444  3
    773    772    774    776     1  0.0000000  0.6508444  3
    773    772    774    777     1  0.0000000  0.6508444  3
    774    778    779    789     1  0.0000000  1.2552000  3
    774    778    779    790     1  0.0000000  1.2552000  3
    774    778    780    781     1  0.0000000  1.2552000  3
    774    778    780    783     1  0.0000000  1.2552000  3
    775    772    774    778     1  0.0000000  0.6508444  3
    775    772    774    776     1  0.0000000  0.6508444  3
    775    772    774    777     1  0.0000000  0.6508444  3
    776    774    778    779     1  0.0000000  1.2552000  3
    776    774    778    780     1  0.0000000  1.2552000  3
    777    774    778    779     1  0.0000000  1.2552000  3
    777    774    778    780     1  0.0000000  1.2552000  3
    778    779    791    792     1  0.0000000  0.6508444  3
    778    779    791    793     1  0.0000000  0.6508444  3
    778    780    782    784     1  0.0000000  0.6508444  3
    778    780    782    785     1  0.0000000  0.6508444  3
    779    778    780    781     1  0.0000000  1.2552000  3
    779    778    780    783     1  0.0000000  1.2552000  3
    780    778    779    789     1  0.0000000  1.2552000  3
    780    778    779    790     1  0.0000000  1.2552000  3
    781    780    782    786     1  0.0000000  0.6508444  3
    781    780    782    784     1  0.0000000  0.6508444  3
    781    780    782    785     1  0.0000000  0.6508444  3
    782    786    787    797     1  180.0000771  9.6232000  2
    783    780    782    786     1  0.0000000  0.6508444  3
    783    780    782    784     1  0.0000000  0.6508444  3
    783    780    782    785     1  0.0000000  0.6508444  3
    784    782    786    787     1  180.0000771  0.0000000  2
    784    782    786    788     1  0.0000000  3.3472000  1
    784    782    786    788     1  0.0000000  0.0000000  2
    784    782    786    788     1  180.0000771  0.3347200  3
    785    782    786    787     1  180.0000771  0.0000000  2
    785    782    786    788     1  0.0000000  3.3472000  1
    785    782    786    788     1  0.0000000  0.0000000  2
    785    782    786    788     1  180.0000771  0.3347200  3
    788    786    787    797     1  0.0000000  7.9496000  1
    788    786    787    797     1  180.0000771  9.6232000  2
    789    779    791    794     1  0.0000000  0.6508444  3
    789    779    791    792     1  0.0000000  0.6508444  3
    789    779    791    793     1  0.0000000  0.6508444  3
    790    779    791    794     1  0.0000000  0.6508444  3
    790    779    791    792     1  0.0000000  0.6508444  3
    790    779    791    793     1  0.0000000  0.6508444  3
    791    794    796    798     1  180.0000771  9.6232000  2
    792    791    794    795     1  0.0000000  3.3472000  1
    792    791    794    795     1  0.0000000  0.0000000  2
    792    791    794    795     1  180.0000771  0.3347200  3
    792    791    794    796     1  180.0000771  0.0000000  2
    793    791    794    795     1  0.0000000  3.3472000  1
    793    791    794    795     1  0.0000000  0.0000000  2
    793    791    794    795     1  180.0000771  0.3347200  3
    793    791    794    796     1  180.0000771  0.0000000  2
    795    794    796    798     1  0.0000000  7.9496000  1
    795    794    796    798     1  180.0000771  9.6232000  2
    799    801    803    805     1  0.0000000  0.6508444  3
    799    801    803    806     1  0.0000000  0.6508444  3
    800    799    801    803     1  0.0000000  0.0000000  2
    800    799    801    802     1  0.0000000  0.0000000  2
    800    799    801    804     1  0.0000000  0.0000000  2
    802    801    803    807     1  0.0000000  0.6508444  3
    802    801    803    805     1  0.0000000  0.6508444  3
    802    801    803    806     1  0.0000000  0.6508444  3
    803    807    808    818     1  0.0000000  1.2552000  3
    803    807    808    819     1  0.0000000  1.2552000  3
    803    807    809    810     1  0.0000000  1.2552000  3
    803    807    809    812     1  0.0000000  1.2552000  3
    804    801    803    807     1  0.0000000  0.6508444  3
    804    801    803    805     1  0.0000000  0.6508444  3
    804    801    803    806     1  0.0000000  0.6508444  3
    805    803    807    808     1  0.0000000  1.2552000  3
    805    803    807    809     1  0.0000000  1.2552000  3
    806    803    807    808     1  0.0000000  1.2552000  3
    806    803    807    809     1  0.0000000  1.2552000  3
    807    808    820    821     1  0.0000000  0.6508444  3
    807    808    820    822     1  0.0000000  0.6508444  3
    807    809    811    813     1  0.0000000  0.6508444  3
    807    809    811    814     1  0.0000000  0.6508444  3
    808    807    809    810     1  0.0000000  1.2552000  3
    808    807    809    812     1  0.0000000  1.2552000  3
    809    807    808    818     1  0.0000000  1.2552000  3
    809    807    808    819     1  0.0000000  1.2552000  3
    810    809    811    815     1  0.0000000  0.6508444  3
    810    809    811    813     1  0.0000000  0.6508444  3
    810    809    811    814     1  0.0000000  0.6508444  3
    811    815    816    826     1  180.0000771  9.6232000  2
    812    809    811    815     1  0.0000000  0.6508444  3
    812    809    811    813     1  0.0000000  0.6508444  3
    812    809    811    814     1  0.0000000  0.6508444  3
    813    811    815    816     1  180.0000771  0.0000000  2
    813    811    815    817     1  0.0000000  3.3472000  1
    813    811    815    817     1  0.0000000  0.0000000  2
    813    811    815    817     1  180.0000771  0.3347200  3
    814    811    815    816     1  180.0000771  0.0000000  2
    814    811    815    817     1  0.0000000  3.3472000  1
    814    811    815    817     1  0.0000000  0.0000000  2
    814    811    815    817     1  180.0000771  0.3347200  3
    817    815    816    826     1  0.0000000  7.9496000  1
    817    815    816    826     1  180.0000771  9.6232000  2
    818    808    820    823     1  0.0000000  0.6508444  3
    818    808    820    821     1  0.0000000  0.6508444  3
    818    808    820    822     1  0.0000000  0.6508444  3
    819    808    820    823     1  0.0000000  0.6508444  3
    819    808    820    821     1  0.0000000  0.6508444  3
    819    808    820    822     1  0.0000000  0.6508444  3
    820    823    825    827     1  180.0000771  9.6232000  2
    821    820    823    824     1  0.0000000  3.3472000  1
    821    820    823    824     1  0.0000000  0.0000000  2
    821    820    823    824     1  180.0000771  0.3347200  3
    821    820    823    825     1  180.0000771  0.0000000  2
    822    820    823    824     1  0.0000000  3.3472000  1
    822    820    823    824     1  0.0000000  0.0000000  2
    822    820    823    824     1  180.0000771  0.3347200  3
    822    820    823    825     1  180.0000771  0.0000000  2
    824    823    825    827     1  0.0000000  7.9496000  1
    824    823    825    827     1  180.0000771  9.6232000  2
    828    830    832    834     1  0.0000000  0.6508444  3
    828    830    832    835     1  0.0000000  0.6508444  3
    829    828    830    832     1  0.0000000  0.0000000  2
    829    828    830    831     1  0.0000000  0.0000000  2
    829    828    830    833     1  0.0000000  0.0000000  2
    831    830    832    836     1  0.0000000  0.6508444  3
    831    830    832    834     1  0.0000000  0.6508444  3
    831    830    832    835     1  0.0000000  0.6508444  3
    832    836    837    847     1  0.0000000  1.2552000  3
    832    836    837    848     1  0.0000000  1.2552000  3
    832    836    838    839     1  0.0000000  1.2552000  3
    832    836    838    841     1  0.0000000  1.2552000  3
    833    830    832    836     1  0.0000000  0.6508444  3
    833    830    832    834     1  0.0000000  0.6508444  3
    833    830    832    835     1  0.0000000  0.6508444  3
    834    832    836    837     1  0.0000000  1.2552000  3
    834    832    836    838     1  0.0000000  1.2552000  3
    835    832    836    837     1  0.0000000  1.2552000  3
    835    832    836    838     1  0.0000000  1.2552000  3
    836    837    849    850     1  0.0000000  0.6508444  3
    836    837    849    851     1  0.0000000  0.6508444  3
    836    838    840    842     1  0.0000000  0.6508444  3
    836    838    840    843     1  0.0000000  0.6508444  3
    837    836    838    839     1  0.0000000  1.2552000  3
    837    836    838    841     1  0.0000000  1.2552000  3
    838    836    837    847     1  0.0000000  1.2552000  3
    838    836    837    848     1  0.0000000  1.2552000  3
    839    838    840    844     1  0.0000000  0.6508444  3
    839    838    840    842     1  0.0000000  0.6508444  3
    839    838    840    843     1  0.0000000  0.6508444  3
    840    844    845    855     1  180.0000771  9.6232000  2
    841    838    840    844     1  0.0000000  0.6508444  3
    841    838    840    842     1  0.0000000  0.6508444  3
    841    838    840    843     1  0.0000000  0.6508444  3
    842    840    844    845     1  180.0000771  0.0000000  2
    842    840    844    846     1  0.0000000  3.3472000  1
    842    840    844    846     1  0.0000000  0.0000000  2
    842    840    844    846     1  180.0000771  0.3347200  3
    843    840    844    845     1  180.0000771  0.0000000  2
    843    840    844    846     1  0.0000000  3.3472000  1
    843    840    844    846     1  0.0000000  0.0000000  2
    843    840    844    846     1  180.0000771  0.3347200  3
    846    844    845    855     1  0.0000000  7.9496000  1
    846    844    845    855     1  180.0000771  9.6232000  2
    847    837    849    852     1  0.0000000  0.6508444  3
    847    837    849    850     1  0.0000000  0.6508444  3
    847    837    849    851     1  0.0000000  0.6508444  3
    848    837    849    852     1  0.0000000  0.6508444  3
    848    837    849    850     1  0.0000000  0.6508444  3
    848    837    849    851     1  0.0000000  0.6508444  3
    849    852    854    856     1  180.0000771  9.6232000  2
    850    849    852    853     1  0.0000000  3.3472000  1
    850    849    852    853     1  0.0000000  0.0000000  2
    850    849    852    853     1  180.0000771  0.3347200  3
    850    849    852    854     1  180.0000771  0.0000000  2
    851    849    852    853     1  0.0000000  3.3472000  1
    851    849    852    853     1  0.0000000  0.0000000  2
    851    849    852    853     1  180.0000771  0.3347200  3
    851    849    852    854     1  180.0000771  0.0000000  2
    853    852    854    856     1  0.0000000  7.9496000  1
    853    852    854    856     1  180.0000771  9.6232000  2
    857    859    861    863     1  0.0000000  0.6508444  3
    857    859    861    864     1  0.0000000  0.6508444  3
    858    857    859    861     1  0.0000000  0.0000000  2
    858    857    859    860     1  0.0000000  0.0000000  2
    858    857    859    862     1  0.0000000  0.0000000  2
    860    859    861    865     1  0.0000000  0.6508444  3
    860    859    861    863     1  0.0000000  0.6508444  3
    860    859    861    864     1  0.0000000  0.6508444  3
    861    865    866    876     1  0.0000000  1.2552000  3
    861    865    866    877     1  0.0000000  1.2552000  3
    861    865    867    868     1  0.0000000  1.2552000  3
    861    865    867    870     1  0.0000000  1.2552000  3
    862    859    861    865     1  0.0000000  0.6508444  3
    862    859    861    863     1  0.0000000  0.6508444  3
    862    859    861    864     1  0.0000000  0.6508444  3
    863    861    865    866     1  0.0000000  1.2552000  3
    863    861    865    867     1  0.0000000  1.2552000  3
    864    861    865    866     1  0.0000000  1.2552000  3
    864    861    865    867     1  0.0000000  1.2552000  3
    865    866    878    879     1  0.0000000  0.6508444  3
    865    866    878    880     1  0.0000000  0.6508444  3
    865    867    869    871     1  0.0000000  0.6508444  3
    865    867    869    872     1  0.0000000  0.6508444  3
    866    865    867    868     1  0.0000000  1.2552000  3
    866    865    867    870     1  0.0000000  1.2552000  3
    867    865    866    876     1  0.0000000  1.2552000  3
    867    865    866    877     1  0.0000000  1.2552000  3
    868    867    869    873     1  0.0000000  0.6508444  3
    868    867    869    871     1  0.0000000  0.6508444  3
    868    867    869    872     1  0.0000000  0.6508444  3
    869    873    874    884     1  180.0000771  9.6232000  2
    870    867    869    873     1  0.0000000  0.6508444  3
    870    867    869    871     1  0.0000000  0.6508444  3
    870    867    869    872     1  0.0000000  0.6508444  3
    871    869    873    874     1  180.0000771  0.0000000  2
    871    869    873    875     1  0.0000000  3.3472000  1
    871    869    873    875     1  0.0000000  0.0000000  2
    871    869    873    875     1  180.0000771  0.3347200  3
    872    869    873    874     1  180.0000771  0.0000000  2
    872    869    873    875     1  0.0000000  3.3472000  1
    872    869    873    875     1  0.0000000  0.0000000  2
    872    869    873    875     1  180.0000771  0.3347200  3
    875    873    874    884     1  0.0000000  7.9496000  1
    875    873    874    884     1  180.0000771  9.6232000  2
    876    866    878    881     1  0.0000000  0.6508444  3
    876    866    878    879     1  0.0000000  0.6508444  3
    876    866    878    880     1  0.0000000  0.6508444  3
    877    866    878    881     1  0.0000000  0.6508444  3
    877    866    878    879     1  0.0000000  0.6508444  3
    877    866    878    880     1  0.0000000  0.6508444  3
    878    881    883    885     1  180.0000771  9.6232000  2
    879    878    881    882     1  0.0000000  3.3472000  1
    879    878    881    882     1  0.0000000  0.0000000  2
    879    878    881    882     1  180.0000771  0.3347200  3
    879    878    881    883     1  180.0000771  0.0000000  2
    880    878    881    882     1  0.0000000  3.3472000  1
    880    878    881    882     1  0.0000000  0.0000000  2
    880    878    881    882     1  180.0000771  0.3347200  3
    880    878    881    883     1  180.0000771  0.0000000  2
    882    881    883    885     1  0.0000000  7.9496000  1
    882    881    883    885     1  180.0000771  9.6232000  2
    886    888    890    892     1  0.0000000  0.6508444  3
    886    888    890    893     1  0.0000000  0.6508444  3
    887    886    888    890     1  0.0000000  0.0000000  2
    887    886    888    889     1  0.0000000  0.0000000  2
    887    886    888    891     1  0.0000000  0.0000000  2
    889    888    890    894     1  0.0000000  0.6508444  3
    889    888    890    892     1  0.0000000  0.6508444  3
    889    888    890    893     1  0.0000000  0.6508444  3
    890    894    895    905     1  0.0000000  1.2552000  3
    890    894    895    906     1  0.0000000  1.2552000  3
    890    894    896    897     1  0.0000000  1.2552000  3
    890    894    896    899     1  0.0000000  1.2552000  3
    891    888    890    894     1  0.0000000  0.6508444  3
    891    888    890    892     1  0.0000000  0.6508444  3
    891    888    890    893     1  0.0000000  0.6508444  3
    892    890    894    895     1  0.0000000  1.2552000  3
    892    890    894    896     1  0.0000000  1.2552000  3
    893    890    894    895     1  0.0000000  1.2552000  3
    893    890    894    896     1  0.0000000  1.2552000  3
    894    895    907    908     1  0.0000000  0.6508444  3
    894    895    907    909     1  0.0000000  0.6508444  3
    894    896    898    900     1  0.0000000  0.6508444  3
    894    896    898    901     1  0.0000000  0.6508444  3
    895    894    896    897     1  0.0000000  1.2552000  3
    895    894    896    899     1  0.0000000  1.2552000  3
    896    894    895    905     1  0.0000000  1.2552000  3
    896    894    895    906     1  0.0000000  1.2552000  3
    897    896    898    902     1  0.0000000  0.6508444  3
    897    896    898    900     1  0.0000000  0.6508444  3
    897    896    898    901     1  0.0000000  0.6508444  3
    898    902    903    913     1  180.0000771  9.6232000  2
    899    896    898    902     1  0.0000000  0.6508444  3
    899    896    898    900     1  0.0000000  0.6508444  3
    899    896    898    901     1  0.0000000  0.6508444  3
    900    898    902    903     1  180.0000771  0.0000000  2
    900    898    902    904     1  0.0000000  3.3472000  1
    900    898    902    904     1  0.0000000  0.0000000  2
    900    898    902    904     1  180.0000771  0.3347200  3
    901    898    902    903     1  180.0000771  0.0000000  2
    901    898    902    904     1  0.0000000  3.3472000  1
    901    898    902    904     1  0.0000000  0.0000000  2
    901    898    902    904     1  180.0000771  0.3347200  3
    904    902    903    913     1  0.0000000  7.9496000  1
    904    902    903    913     1  180.0000771  9.6232000  2
    905    895    907    910     1  0.0000000  0.6508444  3
    905    895    907    908     1  0.0000000  0.6508444  3
    905    895    907    909     1  0.0000000  0.6508444  3
    906    895    907    910     1  0.0000000  0.6508444  3
    906    895    907    908     1  0.0000000  0.6508444  3
    906    895    907    909     1  0.0000000  0.6508444  3
    907    910    912    914     1  180.0000771  9.6232000  2
    908    907    910    911     1  0.0000000  3.3472000  1
    908    907    910    911     1  0.0000000  0.0000000  2
    908    907    910    911     1  180.0000771  0.3347200  3
    908    907    910    912     1  180.0000771  0.0000000  2
    909    907    910    911     1  0.0000000  3.3472000  1
    909    907    910    911     1  0.0000000  0.0000000  2
    909    907    910    911     1  180.0000771  0.3347200  3
    909    907    910    912     1  180.0000771  0.0000000  2
    911    910    912    914     1  0.0000000  7.9496000  1
    911    910    912    914     1  180.0000771  9.6232000  2
    915    917    919    921     1  0.0000000  0.6508444  3
    915    917    919    922     1  0.0000000  0.6508444  3
    916    915    917    919     1  0.0000000  0.0000000  2
    916    915    917    918     1  0.0000000  0.0000000  2
    916    915    917    920     1  0.0000000  0.0000000  2
    918    917    919    923     1  0.0000000  0.6508444  3
    918    917    919    921     1  0.0000000  0.6508444  3
    918    917    919    922     1  0.0000000  0.6508444  3
    919    923    924    934     1  0.0000000  1.2552000  3
    919    923    924    935     1  0.0000000  1.2552000  3
    919    923    925    926     1  0.0000000  1.2552000  3
    919    923    925    928     1  0.0000000  1.2552000  3
    920    917    919    923     1  0.0000000  0.6508444  3
    920    917    919    921     1  0.0000000  0.6508444  3
    920    917    919    922     1  0.0000000  0.6508444  3
    921    919    923    924     1  0.0000000  1.2552000  3
    921    919    923    925     1  0.0000000  1.2552000  3
    922    919    923    924     1  0.0000000  1.2552000  3
    922    919    923    925     1  0.0000000  1.2552000  3
    923    924    936    937     1  0.0000000  0.6508444  3
    923    924    936    938     1  0.0000000  0.6508444  3
    923    925    927    929     1  0.0000000  0.6508444  3
    923    925    927    930     1  0.0000000  0.6508444  3
    924    923    925    926     1  0.0000000  1.2552000  3
    924    923    925    928     1  0.0000000  1.2552000  3
    925    923    924    934     1  0.0000000  1.2552000  3
    925    923    924    935     1  0.0000000  1.2552000  3
    926    925    927    931     1  0.0000000  0.6508444  3
    926    925    927    929     1  0.0000000  0.6508444  3
    926    925    927    930     1  0.0000000  0.6508444  3
    927    931    932    942     1  180.0000771  9.6232000  2
    928    925    927    931     1  0.0000000  0.6508444  3
    928    925    927    929     1  0.0000000  0.6508444  3
    928    925    927    930     1  0.0000000  0.6508444  3
    929    927    931    932     1  180.0000771  0.0000000  2
    929    927    931    933     1  0.0000000  3.3472000  1
    929    927    931    933     1  0.0000000  0.0000000  2
    929    927    931    933     1  180.0000771  0.3347200  3
    930    927    931    932     1  180.0000771  0.0000000  2
    930    927    931    933     1  0.0000000  3.3472000  1
    930    927    931    933     1  0.0000000  0.0000000  2
    930    927    931    933     1  180.0000771  0.3347200  3
    933    931    932    942     1  0.0000000  7.9496000  1
    933    931    932    942     1  180.0000771  9.6232000  2
    934    924    936    939     1  0.0000000  0.6508444  3
    934    924    936    937     1  0.0000000  0.6508444  3
    934    924    936    938     1  0.0000000  0.6508444  3
    935    924    936    939     1  0.0000000  0.6508444  3
    935    924    936    937     1  0.0000000  0.6508444  3
    935    924    936    938     1  0.0000000  0.6508444  3
    936    939    941    943     1  180.0000771  9.6232000  2
    937    936    939    940     1  0.0000000  3.3472000  1
    937    936    939    940     1  0.0000000  0.0000000  2
    937    936    939    940     1  180.0000771  0.3347200  3
    937    936    939    941     1  180.0000771  0.0000000  2
    938    936    939    940     1  0.0000000  3.3472000  1
    938    936    939    940     1  0.0000000  0.0000000  2
    938    936    939    940     1  180.0000771  0.3347200  3
    938    936    939    941     1  180.0000771  0.0000000  2
    940    939    941    943     1  0.0000000  7.9496000  1
    940    939    941    943     1  180.0000771  9.6232000  2
    944    946    948    950     1  0.0000000  0.6508444  3
    944    946    948    951     1  0.0000000  0.6508444  3
    945    944    946    948     1  0.0000000  0.0000000  2
    945    944    946    947     1  0.0000000  0.0000000  2
    945    944    946    949     1  0.0000000  0.0000000  2
    947    946    948    952     1  0.0000000  0.6508444  3
    947    946    948    950     1  0.0000000  0.6508444  3
    947    946    948    951     1  0.0000000  0.6508444  3
    948    952    953    963     1  0.0000000  1.2552000  3
    948    952    953    964     1  0.0000000  1.2552000  3
    948    952    954    955     1  0.0000000  1.2552000  3
    948    952    954    957     1  0.0000000  1.2552000  3
    949    946    948    952     1  0.0000000  0.6508444  3
    949    946    948    950     1  0.0000000  0.6508444  3
    949    946    948    951     1  0.0000000  0.6508444  3
    950    948    952    953     1  0.0000000  1.2552000  3
    950    948    952    954     1  0.0000000  1.2552000  3
    951    948    952    953     1  0.0000000  1.2552000  3
    951    948    952    954     1  0.0000000  1.2552000  3
    952    953    965    966     1  0.0000000  0.6508444  3
    952    953    965    967     1  0.0000000  0.6508444  3
    952    954    956    958     1  0.0000000  0.6508444  3
    952    954    956    959     1  0.0000000  0.6508444  3
    953    952    954    955     1  0.0000000  1.2552000  3
    953    952    954    957     1  0.0000000  1.2552000  3
    954    952    953    963     1  0.0000000  1.2552000  3
    954    952    953    964     1  0.0000000  1.2552000  3
    955    954    956    960     1  0.0000000  0.6508444  3
    955    954    956    958     1  0.0000000  0.6508444  3
    955    954    956    959     1  0.0000000  0.6508444  3
    956    960    961    971     1  180.0000771  9.6232000  2
    957    954    956    960     1  0.0000000  0.6508444  3
    957    954    956    958     1  0.0000000  0.6508444  3
    957    954    956    959     1  0.0000000  0.6508444  3
    958    956    960    961     1  180.0000771  0.0000000  2
    958    956    960    962     1  0.0000000  3.3472000  1
    958    956    960    962     1  0.0000000  0.0000000  2
    958    956    960    962     1  180.0000771  0.3347200  3
    959    956    960    961     1  180.0000771  0.0000000  2
    959    956    960    962     1  0.0000000  3.3472000  1
    959    956    960    962     1  0.0000000  0.0000000  2
    959    956    960    962     1  180.0000771  0.3347200  3
    962    960    961    971     1  0.0000000  7.9496000  1
    962    960    961    971     1  180.0000771  9.6232000  2
    963    953    965    968     1  0.0000000  0.6508444  3
    963    953    965    966     1  0.0000000  0.6508444  3
    963    953    965    967     1  0.0000000  0.6508444  3
    964    953    965    968     1  0.0000000  0.6508444  3
    964    953    965    966     1  0.0000000  0.6508444  3
    964    953    965    967     1  0.0000000  0.6508444  3
    965    968    970    972     1  180.0000771  9.6232000  2
    966    965    968    969     1  0.0000000  3.3472000  1
    966    965    968    969     1  0.0000000  0.0000000  2
    966    965    968    969     1  180.0000771  0.3347200  3
    966    965    968    970     1  180.0000771  0.0000000  2
    967    965    968    969     1  0.0000000  3.3472000  1
    967    965    968    969     1  0.0000000  0.0000000  2
    967    965    968    969     1  180.0000771  0.3347200  3
    967    965    968    970     1  180.0000771  0.0000000  2
    969    968    970    972     1  0.0000000  7.9496000  1
    969    968    970    972     1  180.0000771  9.6232000  2
    973    975    977    979     1  0.0000000  0.6508444  3
    973    975    977    980     1  0.0000000  0.6508444  3
    974    973    975    977     1  0.0000000  0.0000000  2
    974    973    975    976     1  0.0000000  0.0000000  2
    974    973    975    978     1  0.0000000  0.0000000  2
    976    975    977    981     1  0.0000000  0.6508444  3
    976    975    977    979     1  0.0000000  0.6508444  3
    976    975    977    980     1  0.0000000  0.6508444  3
    977    981    982    992     1  0.0000000  1.2552000  3
    977    981    982    993     1  0.0000000  1.2552000  3
    977    981    983    984     1  0.0000000  1.2552000  3
    977    981    983    986     1  0.0000000  1.2552000  3
    978    975    977    981     1  0.0000000  0.6508444  3
    978    975    977    979     1  0.0000000  0.6508444  3
    978    975    977    980     1  0.0000000  0.6508444  3
    979    977    981    982     1  0.0000000  1.2552000  3
    979    977    981    983     1  0.0000000  1.2552000  3
    980    977    981    982     1  0.0000000  1.2552000  3
    980    977    981    983     1  0.0000000  1.2552000  3
    981    982    994    995     1  0.0000000  0.6508444  3
    981    982    994    996     1  0.0000000  0.6508444  3
    981    983    985    987     1  0.0000000  0.6508444  3
    981    983    985    988     1  0.0000000  0.6508444  3
    982    981    983    984     1  0.0000000  1.2552000  3
    982    981    983    986     1  0.0000000  1.2552000  3
    983    981    982    992     1  0.0000000  1.2552000  3
    983    981    982    993     1  0.0000000  1.2552000  3
    984    983    985    989     1  0.0000000  0.6508444  3
    984    983    985    987     1  0.0000000  0.6508444  3
    984    983    985    988     1  0.0000000  0.6508444  3
    985    989    990   1000     1  180.0000771  9.6232000  2
    986    983    985    989     1  0.0000000  0.6508444  3
    986    983    985    987     1  0.0000000  0.6508444  3
    986    983    985    988     1  0.0000000  0.6508444  3
    987    985    989    990     1  180.0000771  0.0000000  2
    987    985    989    991     1  0.0000000  3.3472000  1
    987    985    989    991     1  0.0000000  0.0000000  2
    987    985    989    991     1  180.0000771  0.3347200  3
    988    985    989    990     1  180.0000771  0.0000000  2
    988    985    989    991     1  0.0000000  3.3472000  1
    988    985    989    991     1  0.0000000  0.0000000  2
    988    985    989    991     1  180.0000771  0.3347200  3
    991    989    990   1000     1  0.0000000  7.9496000  1
    991    989    990   1000     1  180.0000771  9.6232000  2
    992    982    994    997     1  0.0000000  0.6508444  3
    992    982    994    995     1  0.0000000  0.6508444  3
    992    982    994    996     1  0.0000000  0.6508444  3
    993    982    994    997     1  0.0000000  0.6508444  3
    993    982    994    995     1  0.0000000  0.6508444  3
    993    982    994    996     1  0.0000000  0.6508444  3
    994    997    999   1001     1  180.0000771  9.6232000  2
    995    994    997    998     1  0.0000000  3.3472000  1
    995    994    997    998     1  0.0000000  0.0000000  2
    995    994    997    998     1  180.0000771  0.3347200  3
    995    994    997    999     1  180.0000771  0.0000000  2
    996    994    997    998     1  0.0000000  3.3472000  1
    996    994    997    998     1  0.0000000  0.0000000  2
    996    994    997    998     1  180.0000771  0.3347200  3
    996    994    997    999     1  180.0000771  0.0000000  2
    998    997    999   1001     1  0.0000000  7.9496000  1
    998    997    999   1001     1  180.0000771  9.6232000  2
   1002   1004   1006   1008     1  0.0000000  0.6508444  3
   1002   1004   1006   1009     1  0.0000000  0.6508444  3
   1003   1002   1004   1006     1  0.0000000  0.0000000  2
   1003   1002   1004   1005     1  0.0000000  0.0000000  2
   1003   1002   1004   1007     1  0.0000000  0.0000000  2
   1005   1004   1006   1010     1  0.0000000  0.6508444  3
   1005   1004   1006   1008     1  0.0000000  0.6508444  3
   1005   1004   1006   1009     1  0.0000000  0.6508444  3
   1006   1010   1011   1021     1  0.0000000  1.2552000  3
   1006   1010   1011   1022     1  0.0000000  1.2552000  3
   1006   1010   1012   1013     1  0.0000000  1.2552000  3
   1006   1010   1012   1015     1  0.0000000  1.2552000  3
   1007   1004   1006   1010     1  0.0000000  0.6508444  3
   1007   1004   1006   1008     1  0.0000000  0.6508444  3
   1007   1004   1006   1009     1  0.0000000  0.6508444  3
   1008   1006   1010   1011     1  0.0000000  1.2552000  3
   1008   1006   1010   1012     1  0.0000000  1.2552000  3
   1009   1006   1010   1011     1  0.0000000  1.2552000  3
   1009   1006   1010   1012     1  0.0000000  1.2552000  3
   1010   1011   1023   1024     1  0.0000000  0.6508444  3
   1010   1011   1023   1025     1  0.0000000  0.6508444  3
   1010   1012   1014   1016     1  0.0000000  0.6508444  3
   1010   1012   1014   1017     1  0.0000000  0.6508444  3
   1011   1010   1012   1013     1  0.0000000  1.2552000  3
   1011   1010   1012   1015     1  0.0000000  1.2552000  3
   1012   1010   1011   1021     1  0.0000000  1.2552000  3
   1012   1010   1011   1022     1  0.0000000  1.2552000  3
   1013   1012   1014   1018     1  0.0000000  0.6508444  3
   1013   1012   1014   1016     1  0.0000000  0.6508444  3
   1013   1012   1014   1017     1  0.0000000  0.6508444  3
   1014   1018   1019   1029     1  180.0000771  9.6232000  2
   1015   1012   1014   1018     1  0.0000000  0.6508444  3
   1015   1012   1014   1016     1  0.0000000  0.6508444  3
   1015   1012   1014   1017     1  0.0000000  0.6508444  3
   1016   1014   1018   1019     1  180.0000771  0.0000000  2
   1016   1014   1018   1020     1  0.0000000  3.3472000  1
   1016   1014   1018   1020     1  0.0000000  0.0000000  2
   1016   1014   1018   1020     1  180.0000771  0.3347200  3
   1017   1014   1018   1019     1  180.0000771  0.0000000  2
   1017   1014   1018   1020     1  0.0000000  3.3472000  1
   1017   1014   1018   1020     1  0.0000000  0.0000000  2
   1017   1014   1018   1020     1  180.0000771  0.3347200  3
   1020   1018   1019   1029     1  0.0000000  7.9496000  1
   1020   1018   1019   1029     1  180.0000771  9.6232000  2
   1021   1011   1023   1026     1  0.0000000  0.6508444  3
   1021   1011   1023   1024     1  0.0000000  0.6508444  3
   1021   1011   1023   1025     1  0.0000000  0.6508444  3
   1022   1011   1023   1026     1  0.0000000  0.6508444  3
   1022   1011   1023   1024     1  0.0000000  0.6508444  3
   1022   1011   1023   1025     1  0.0000000  0.6508444  3
   1023   1026   1028   1030     1  180.0000771  9.6232000  2
   1024   1023   1026   1027     1  0.0000000  3.3472000  1
   1024   1023   1026   1027     1  0.0000000  0.0000000  2
   1024   1023   1026   1027     1  180.0000771  0.3347200  3
   1024   1023   1026   1028     1  180.0000771  0.0000000  2
   1025   1023   1026   1027     1  0.0000000  3.3472000  1
   1025   1023   1026   1027     1  0.0000000  0.0000000  2
   1025   1023   1026   1027     1  180.0000771  0.3347200  3
   1025   1023   1026   1028     1  180.0000771  0.0000000  2
   1027   1026   1028   1030     1  0.0000000  7.9496000  1
   1027   1026   1028   1030     1  180.0000771  9.6232000  2
   1031   1033   1035   1037     1  0.0000000  0.6508444  3
   1031   1033   1035   1038     1  0.0000000  0.6508444  3
   1032   1031   1033   1035     1  0.0000000  0.0000000  2
   1032   1031   1033   1034     1  0.0000000  0.0000000  2
   1032   1031   1033   1036     1  0.0000000  0.0000000  2
   1034   1033   1035   1039     1  0.0000000  0.6508444  3
   1034   1033   1035   1037     1  0.0000000  0.6508444  3
   1034   1033   1035   1038     1  0.0000000  0.6508444  3
   1035   1039   1040   1050     1  0.0000000  1.2552000  3
   1035   1039   1040   1051     1  0.0000000  1.2552000  3
   1035   1039   1041   1042     1  0.0000000  1.2552000  3
   1035   1039   1041   1044     1  0.0000000  1.2552000  3
   1036   1033   1035   1039     1  0.0000000  0.6508444  3
   1036   1033   1035   1037     1  0.0000000  0.6508444  3
   1036   1033   1035   1038     1  0.0000000  0.6508444  3
   1037   1035   1039   1040     1  0.0000000  1.2552000  3
   1037   1035   1039   1041     1  0.0000000  1.2552000  3
   1038   1035   1039   1040     1  0.0000000  1.2552000  3
   1038   1035   1039   1041     1  0.0000000  1.2552000  3
   1039   1040   1052   1053     1  0.0000000  0.6508444  3
   1039   1040   1052   1054     1  0.0000000  0.6508444  3
   1039   1041   1043   1045     1  0.0000000  0.6508444  3
   1039   1041   1043   1046     1  0.0000000  0.6508444  3
   1040   1039   1041   1042     1  0.0000000  1.2552000  3
   1040   1039   1041   1044     1  0.0000000  1.2552000  3
   1041   1039   1040   1050     1  0.0000000  1.2552000  3
   1041   1039   1040   1051     1  0.0000000  1.2552000  3
   1042   1041   1043   1047     1  0.0000000  0.6508444  3
   1042   1041   1043   1045     1  0.0000000  0.6508444  3
   1042   1041   1043   1046     1  0.0000000  0.6508444  3
   1043   1047   1048   1058     1  180.0000771  9.6232000  2
   1044   1041   1043   1047     1  0.0000000  0.6508444  3
   1044   1041   1043   1045     1  0.0000000  0.6508444  3
   1044   1041   1043   1046     1  0.0000000  0.6508444  3
   1045   1043   1047   1048     1  180.0000771  0.0000000  2
   1045   1043   1047   1049     1  0.0000000  3.3472000  1
   1045   1043   1047   1049     1  0.0000000  0.0000000  2
   1045   1043   1047   1049     1  180.0000771  0.3347200  3
   1046   1043   1047   1048     1  180.0000771  0.0000000  2
   1046   1043   1047   1049     1  0.0000000  3.3472000  1
   1046   1043   1047   1049     1  0.0000000  0.0000000  2
   1046   1043   1047   1049     1  180.0000771  0.3347200  3
   1049   1047   1048   1058     1  0.0000000  7.9496000  1
   1049   1047   1048   1058     1  180.0000771  9.6232000  2
   1050   1040   1052   1055     1  0.0000000  0.6508444  3
   1050   1040   1052   1053     1  0.0000000  0.6508444  3
   1050   1040   1052   1054     1  0.0000000  0.6508444  3
   1051   1040   1052   1055     1  0.0000000  0.6508444  3
   1051   1040   1052   1053     1  0.0000000  0.6508444  3
   1051   1040   1052   1054     1  0.0000000  0.6508444  3
   1052   1055   1057   1059     1  180.0000771  9.6232000  2
   1053   1052   1055   1056     1  0.0000000  3.3472000  1
   1053   1052   1055   1056     1  0.0000000  0.0000000  2
   1053   1052   1055   1056     1  180.0000771  0.3347200  3
   1053   1052   1055   1057     1  180.0000771  0.0000000  2
   1054   1052   1055   1056     1  0.0000000  3.3472000  1
   1054   1052   1055   1056     1  0.0000000  0.0000000  2
   1054   1052   1055   1056     1  180.0000771  0.3347200  3
   1054   1052   1055   1057     1  180.0000771  0.0000000  2
   1056   1055   1057   1059     1  0.0000000  7.9496000  1
   1056   1055   1057   1059     1  180.0000771  9.6232000  2
   1060   1062   1064   1066     1  0.0000000  0.6508444  3
   1060   1062   1064   1067     1  0.0000000  0.6508444  3
   1061   1060   1062   1064     1  0.0000000  0.0000000  2
   1061   1060   1062   1063     1  0.0000000  0.0000000  2
   1061   1060   1062   1065     1  0.0000000  0.0000000  2
   1063   1062   1064   1068     1  0.0000000  0.6508444  3
   1063   1062   1064   1066     1  0.0000000  0.6508444  3
   1063   1062   1064   1067     1  0.0000000  0.6508444  3
   1064   1068   1069   1079     1  0.0000000  1.2552000  3
   1064   1068   1069   1080     1  0.0000000  1.2552000  3
   1064   1068   1070   1071     1  0.0000000  1.2552000  3
   1064   1068   1070   1073     1  0.0000000  1.2552000  3
   1065   1062   1064   1068     1  0.0000000  0.6508444  3
   1065   1062   1064   1066     1  0.0000000  0.6508444  3
   1065   1062   1064   1067     1  0.0000000  0.6508444  3
   1066   1064   1068   1069     1  0.0000000  1.2552000  3
   1066   1064   1068   1070     1  0.0000000  1.2552000  3
   1067   1064   1068   1069     1  0.0000000  1.2552000  3
   1067   1064   1068   1070     1  0.0000000  1.2552000  3
   1068   1069   1081   1082     1  0.0000000  0.6508444  3
   1068   1069   1081   1083     1  0.0000000  0.6508444  3
   1068   1070   1072   1074     1  0.0000000  0.6508444  3
   1068   1070   1072   1075     1  0.0000000  0.6508444  3
   1069   1068   1070   1071     1  0.0000000  1.2552000  3
   1069   1068   1070   1073     1  0.0000000  1.2552000  3
   1070   1068   1069   1079     1  0.0000000  1.2552000  3
   1070   1068   1069   1080     1  0.0000000  1.2552000  3
   1071   1070   1072   1076     1  0.0000000  0.6508444  3
   1071   1070   1072   1074     1  0.0000000  0.6508444  3
   1071   1070   1072   1075     1  0.0000000  0.6508444  3
   1072   1076   1077   1087     1  180.0000771  9.6232000  2
   1073   1070   1072   1076     1  0.0000000  0.6508444  3
   1073   1070   1072   1074     1  0.0000000  0.6508444  3
   1073   1070   1072   1075     1  0.0000000  0.6508444  3
   1074   1072   1076   1077     1  180.0000771  0.0000000  2
   1074   1072   1076   1078     1  0.0000000  3.3472000  1
   1074   1072   1076   1078     1  0.0000000  0.0000000  2
   1074   1072   1076   1078     1  180.0000771  0.3347200  3
   1075   1072   1076   1077     1  180.0000771  0.0000000  2
   1075   1072   1076   1078     1  0.0000000  3.3472000  1
   1075   1072   1076   1078     1  0.0000000  0.0000000  2
   1075   1072   1076   1078     1  180.0000771  0.3347200  3
   1078   1076   1077   1087     1  0.0000000  7.9496000  1
   1078   1076   1077   1087     1  180.0000771  9.6232000  2
   1079   1069   1081   1084     1  0.0000000  0.6508444  3
   1079   1069   1081   1082     1  0.0000000  0.6508444  3
   1079   1069   1081   1083     1  0.0000000  0.6508444  3
   1080   1069   1081   1084     1  0.0000000  0.6508444  3
   1080   1069   1081   1082     1  0.0000000  0.6508444  3
   1080   1069   1081   1083     1  0.0000000  0.6508444  3
   1081   1084   1086   1088     1  180.0000771  9.6232000  2
   1082   1081   1084   1085     1  0.0000000  3.3472000  1
   1082   1081   1084   1085     1  0.0000000  0.0000000  2
   1082   1081   1084   1085     1  180.0000771  0.3347200  3
   1082   1081   1084   1086     1  180.0000771  0.0000000  2
   1083   1081   1084   1085     1  0.0000000  3.3472000  1
   1083   1081   1084   1085     1  0.0000000  0.0000000  2
   1083   1081   1084   1085     1  180.0000771  0.3347200  3
   1083   1081   1084   1086     1  180.0000771  0.0000000  2
   1085   1084   1086   1088     1  0.0000000  7.9496000  1
   1085   1084   1086   1088     1  180.0000771  9.6232000  2
   1089   1091   1093   1095     1  0.0000000  0.6508444  3
   1089   1091   1093   1096     1  0.0000000  0.6508444  3
   1090   1089   1091   1093     1  0.0000000  0.0000000  2
   1090   1089   1091   1092     1  0.0000000  0.0000000  2
   1090   1089   1091   1094     1  0.0000000  0.0000000  2
   1092   1091   1093   1097     1  0.0000000  0.6508444  3
   1092   1091   1093   1095     1  0.0000000  0.6508444  3
   1092   1091   1093   1096     1  0.0000000  0.6508444  3
   1093   1097   1098   1108     1  0.0000000  1.2552000  3
   1093   1097   1098   1109     1  0.0000000  1.2552000  3
   1093   1097   1099   1100     1  0.0000000  1.2552000  3
   1093   1097   1099   1102     1  0.0000000  1.2552000  3
   1094   1091   1093   1097     1  0.0000000  0.6508444  3
   1094   1091   1093   1095     1  0.0000000  0.6508444  3
   1094   1091   1093   1096     1  0.0000000  0.6508444  3
   1095   1093   1097   1098     1  0.0000000  1.2552000  3
   1095   1093   1097   1099     1  0.0000000  1.2552000  3
   1096   1093   1097   1098     1  0.0000000  1.2552000  3
   1096   1093   1097   1099     1  0.0000000  1.2552000  3
   1097   1098   1110   1111     1  0.0000000  0.6508444  3
   1097   1098   1110   1112     1  0.0000000  0.6508444  3
   1097   1099   1101   1103     1  0.0000000  0.6508444  3
   1097   1099   1101   1104     1  0.0000000  0.6508444  3
   1098   1097   1099   1100     1  0.0000000  1.2552000  3
   1098   1097   1099   1102     1  0.0000000  1.2552000  3
   1099   1097   1098   1108     1  0.0000000  1.2552000  3
   1099   1097   1098   1109     1  0.0000000  1.2552000  3
   1100   1099   1101   1105     1  0.0000000  0.6508444  3
   1100   1099   1101   1103     1  0.0000000  0.6508444  3
   1100   1099   1101   1104     1  0.0000000  0.6508444  3
   1101   1105   1106   1116     1  180.0000771  9.6232000  2
   1102   1099   1101   1105     1  0.0000000  0.6508444  3
   1102   1099   1101   1103     1  0.0000000  0.6508444  3
   1102   1099   1101   1104     1  0.0000000  0.6508444  3
   1103   1101   1105   1106     1  180.0000771  0.0000000  2
   1103   1101   1105   1107     1  0.0000000  3.3472000  1
   1103   1101   1105   1107     1  0.0000000  0.0000000  2
   1103   1101   1105   1107     1  180.0000771  0.3347200  3
   1104   1101   1105   1106     1  180.0000771  0.0000000  2
   1104   1101   1105   1107     1  0.0000000  3.3472000  1
   1104   1101   1105   1107     1  0.0000000  0.0000000  2
   1104   1101   1105   1107     1  180.0000771  0.3347200  3
   1107   1105   1106   1116     1  0.0000000  7.9496000  1
   1107   1105   1106   1116     1  180.0000771  9.6232000  2
   1108   1098   1110   1113     1  0.0000000  0.6508444  3
   1108   1098   1110   1111     1  0.0000000  0.6508444  3
   1108   1098   1110   1112     1  0.0000000  0.6508444  3
   1109   1098   1110   1113     1  0.0000000  0.6508444  3
   1109   1098   1110   1111     1  0.0000000  0.6508444  3
   1109   1098   1110   1112     1  0.0000000  0.6508444  3
   1110   1113   1115   1117     1  180.0000771  9.6232000  2
   1111   1110   1113   1114     1  0.0000000  3.3472000  1
   1111   1110   1113   1114     1  0.0000000  0.0000000  2
   1111   1110   1113   1114     1  180.0000771  0.3347200  3
   1111   1110   1113   1115     1  180.0000771  0.0000000  2
   1112   1110   1113   1114     1  0.0000000  3.3472000  1
   1112   1110   1113   1114     1  0.0000000  0.0000000  2
   1112   1110   1113   1114     1  180.0000771  0.3347200  3
   1112   1110   1113   1115     1  180.0000771  0.0000000  2
   1114   1113   1115   1117     1  0.0000000  7.9496000  1
   1114   1113   1115   1117     1  180.0000771  9.6232000  2
   1118   1120   1122   1124     1  0.0000000  0.6508444  3
   1118   1120   1122   1125     1  0.0000000  0.6508444  3
   1119   1118   1120   1122     1  0.0000000  0.0000000  2
   1119   1118   1120   1121     1  0.0000000  0.0000000  2
   1119   1118   1120   1123     1  0.0000000  0.0000000  2
   1121   1120   1122   1126     1  0.0000000  0.6508444  3
   1121   1120   1122   1124     1  0.0000000  0.6508444  3
   1121   1120   1122   1125     1  0.0000000  0.6508444  3
   1122   1126   1127   1137     1  0.0000000  1.2552000  3
   1122   1126   1127   1138     1  0.0000000  1.2552000  3
   1122   1126   1128   1129     1  0.0000000  1.2552000  3
   1122   1126   1128   1131     1  0.0000000  1.2552000  3
   1123   1120   1122   1126     1  0.0000000  0.6508444  3
   1123   1120   1122   1124     1  0.0000000  0.6508444  3
   1123   1120   1122   1125     1  0.0000000  0.6508444  3
   1124   1122   1126   1127     1  0.0000000  1.2552000  3
   1124   1122   1126   1128     1  0.0000000  1.2552000  3
   1125   1122   1126   1127     1  0.0000000  1.2552000  3
   1125   1122   1126   1128     1  0.0000000  1.2552000  3
   1126   1127   1139   1140     1  0.0000000  0.6508444  3
   1126   1127   1139   1141     1  0.0000000  0.6508444  3
   1126   1128   1130   1132     1  0.0000000  0.6508444  3
   1126   1128   1130   1133     1  0.0000000  0.6508444  3
   1127   1126   1128   1129     1  0.0000000  1.2552000  3
   1127   1126   1128   1131     1  0.0000000  1.2552000  3
   1128   1126   1127   1137     1  0.0000000  1.2552000  3
   1128   1126   1127   1138     1  0.0000000  1.2552000  3
   1129   1128   1130   1134     1  0.0000000  0.6508444  3
   1129   1128   1130   1132     1  0.0000000  0.6508444  3
   1129   1128   1130   1133     1  0.0000000  0.6508444  3
   1130   1134   1135   1145     1  180.0000771  9.6232000  2
   1131   1128   1130   1134     1  0.0000000  0.6508444  3
   1131   1128   1130   1132     1  0.0000000  0.6508444  3
   1131   1128   1130   1133     1  0.0000000  0.6508444  3
   1132   1130   1134   1135     1  180.0000771  0.0000000  2
   1132   1130   1134   1136     1  0.0000000  3.3472000  1
   1132   1130   1134   1136     1  0.0000000  0.0000000  2
   1132   1130   1134   1136     1  180.0000771  0.3347200  3
   1133   1130   1134   1135     1  180.0000771  0.0000000  2
   1133   1130   1134   1136     1  0.0000000  3.3472000  1
   1133   1130   1134   1136     1  0.0000000  0.0000000  2
   1133   1130   1134   1136     1  180.0000771  0.3347200  3
   1136   1134   1135   1145     1  0.0000000  7.9496000  1
   1136   1134   1135   1145     1  180.0000771  9.6232000  2
   1137   1127   1139   1142     1  0.0000000  0.6508444  3
   1137   1127   1139   1140     1  0.0000000  0.6508444  3
   1137   1127   1139   1141     1  0.0000000  0.6508444  3
   1138   1127   1139   1142     1  0.0000000  0.6508444  3
   1138   1127   1139   1140     1  0.0000000  0.6508444  3
   1138   1127   1139   1141     1  0.0000000  0.6508444  3
   1139   1142   1144   1146     1  180.0000771  9.6232000  2
   1140   1139   1142   1143     1  0.0000000  3.3472000  1
   1140   1139   1142   1143     1  0.0000000  0.0000000  2
   1140   1139   1142   1143     1  180.0000771  0.3347200  3
   1140   1139   1142   1144     1  180.0000771  0.0000000  2
   1141   1139   1142   1143     1  0.0000000  3.3472000  1
   1141   1139   1142   1143     1  0.0000000  0.0000000  2
   1141   1139   1142   1143     1  180.0000771  0.3347200  3
   1141   1139   1142   1144     1  180.0000771  0.0000000  2
   1143   1142   1144   1146     1  0.0000000  7.9496000  1
   1143   1142   1144   1146     1  180.0000771  9.6232000  2
   1147   1149   1151   1153     1  0.0000000  0.6508444  3
   1147   1149   1151   1154     1  0.0000000  0.6508444  3
   1148   1147   1149   1151     1  0.0000000  0.0000000  2
   1148   1147   1149   1150     1  0.0000000  0.0000000  2
   1148   1147   1149   1152     1  0.0000000  0.0000000  2
   1150   1149   1151   1155     1  0.0000000  0.6508444  3
   1150   1149   1151   1153     1  0.0000000  0.6508444  3
   1150   1149   1151   1154     1  0.0000000  0.6508444  3
   1151   1155   1156   1166     1  0.0000000  1.2552000  3
   1151   1155   1156   1167     1  0.0000000  1.2552000  3
   1151   1155   1157   1158     1  0.0000000  1.2552000  3
   1151   1155   1157   1160     1  0.0000000  1.2552000  3
   1152   1149   1151   1155     1  0.0000000  0.6508444  3
   1152   1149   1151   1153     1  0.0000000  0.6508444  3
   1152   1149   1151   1154     1  0.0000000  0.6508444  3
   1153   1151   1155   1156     1  0.0000000  1.2552000  3
   1153   1151   1155   1157     1  0.0000000  1.2552000  3
   1154   1151   1155   1156     1  0.0000000  1.2552000  3
   1154   1151   1155   1157     1  0.0000000  1.2552000  3
   1155   1156   1168   1169     1  0.0000000  0.6508444  3
   1155   1156   1168   1170     1  0.0000000  0.6508444  3
   1155   1157   1159   1161     1  0.0000000  0.6508444  3
   1155   1157   1159   1162     1  0.0000000  0.6508444  3
   1156   1155   1157   1158     1  0.0000000  1.2552000  3
   1156   1155   1157   1160     1  0.0000000  1.2552000  3
   1157   1155   1156   1166     1  0.0000000  1.2552000  3
   1157   1155   1156   1167     1  0.0000000  1.2552000  3
   1158   1157   1159   1163     1  0.0000000  0.6508444  3
   1158   1157   1159   1161     1  0.0000000  0.6508444  3
   1158   1157   1159   1162     1  0.0000000  0.6508444  3
   1159   1163   1164   1174     1  180.0000771  9.6232000  2
   1160   1157   1159   1163     1  0.0000000  0.6508444  3
   1160   1157   1159   1161     1  0.0000000  0.6508444  3
   1160   1157   1159   1162     1  0.0000000  0.6508444  3
   1161   1159   1163   1164     1  180.0000771  0.0000000  2
   1161   1159   1163   1165     1  0.0000000  3.3472000  1
   1161   1159   1163   1165     1  0.0000000  0.0000000  2
   1161   1159   1163   1165     1  180.0000771  0.3347200  3
   1162   1159   1163   1164     1  180.0000771  0.0000000  2
   1162   1159   1163   1165     1  0.0000000  3.3472000  1
   1162   1159   1163   1165     1  0.0000000  0.0000000  2
   1162   1159   1163   1165     1  180.0000771  0.3347200  3
   1165   1163   1164   1174     1  0.0000000  7.9496000  1
   1165   1163   1164   1174     1  180.0000771  9.6232000  2
   1166   1156   1168   1171     1  0.0000000  0.6508444  3
   1166   1156   1168   1169     1  0.0000000  0.6508444  3
   1166   1156   1168   1170     1  0.0000000  0.6508444  3
   1167   1156   1168   1171     1  0.0000000  0.6508444  3
   1167   1156   1168   1169     1  0.0000000  0.6508444  3
   1167   1156   1168   1170     1  0.0000000  0.6508444  3
   1168   1171   1173   1175     1  180.0000771  9.6232000  2
   1169   1168   1171   1172     1  0.0000000  3.3472000  1
   1169   1168   1171   1172     1  0.0000000  0.0000000  2
   1169   1168   1171   1172     1  180.0000771  0.3347200  3
   1169   1168   1171   1173     1  180.0000771  0.0000000  2
   1170   1168   1171   1172     1  0.0000000  3.3472000  1
   1170   1168   1171   1172     1  0.0000000  0.0000000  2
   1170   1168   1171   1172     1  180.0000771  0.3347200  3
   1170   1168   1171   1173     1  180.0000771  0.0000000  2
   1172   1171   1173   1175     1  0.0000000  7.9496000  1
   1172   1171   1173   1175     1  180.0000771  9.6232000  2
   1176   1178   1180   1182     1  0.0000000  0.6508444  3
   1176   1178   1180   1183     1  0.0000000  0.6508444  3
   1177   1176   1178   1180     1  0.0000000  0.0000000  2
   1177   1176   1178   1179     1  0.0000000  0.0000000  2
   1177   1176   1178   1181     1  0.0000000  0.0000000  2
   1179   1178   1180   1184     1  0.0000000  0.6508444  3
   1179   1178   1180   1182     1  0.0000000  0.6508444  3
   1179   1178   1180   1183     1  0.0000000  0.6508444  3
   1180   1184   1185   1195     1  0.0000000  1.2552000  3
   1180   1184   1185   1196     1  0.0000000  1.2552000  3
   1180   1184   1186   1187     1  0.0000000  1.2552000  3
   1180   1184   1186   1189     1  0.0000000  1.2552000  3
   1181   1178   1180   1184     1  0.0000000  0.6508444  3
   1181   1178   1180   1182     1  0.0000000  0.6508444  3
   1181   1178   1180   1183     1  0.0000000  0.6508444  3
   1182   1180   1184   1185     1  0.0000000  1.2552000  3
   1182   1180   1184   1186     1  0.0000000  1.2552000  3
   1183   1180   1184   1185     1  0.0000000  1.2552000  3
   1183   1180   1184   1186     1  0.0000000  1.2552000  3
   1184   1185   1197   1198     1  0.0000000  0.6508444  3
   1184   1185   1197   1199     1  0.0000000  0.6508444  3
   1184   1186   1188   1190     1  0.0000000  0.6508444  3
   1184   1186   1188   1191     1  0.0000000  0.6508444  3
   1185   1184   1186   1187     1  0.0000000  1.2552000  3
   1185   1184   1186   1189     1  0.0000000  1.2552000  3
   1186   1184   1185   1195     1  0.0000000  1.2552000  3
   1186   1184   1185   1196     1  0.0000000  1.2552000  3
   1187   1186   1188   1192     1  0.0000000  0.6508444  3
   1187   1186   1188   1190     1  0.0000000  0.6508444  3
   1187   1186   1188   1191     1  0.0000000  0.6508444  3
   1188   1192   1193   1203     1  180.0000771  9.6232000  2
   1189   1186   1188   1192     1  0.0000000  0.6508444  3
   1189   1186   1188   1190     1  0.0000000  0.6508444  3
   1189   1186   1188   1191     1  0.0000000  0.6508444  3
   1190   1188   1192   1193     1  180.0000771  0.0000000  2
   1190   1188   1192   1194     1  0.0000000  3.3472000  1
   1190   1188   1192   1194     1  0.0000000  0.0000000  2
   1190   1188   1192   1194     1  180.0000771  0.3347200  3
   1191   1188   1192   1193     1  180.0000771  0.0000000  2
   1191   1188   1192   1194     1  0.0000000  3.3472000  1
   1191   1188   1192   1194     1  0.0000000  0.0000000  2
   1191   1188   1192   1194     1  180.0000771  0.3347200  3
   1194   1192   1193   1203     1  0.0000000  7.9496000  1
   1194   1192   1193   1203     1  180.0000771  9.6232000  2
   1195   1185   1197   1200     1  0.0000000  0.6508444  3
   1195   1185   1197   1198     1  0.0000000  0.6508444  3
   1195   1185   1197   1199     1  0.0000000  0.6508444  3
   1196   1185   1197   1200     1  0.0000000  0.6508444  3
   1196   1185   1197   1198     1  0.0000000  0.6508444  3
   1196   1185   1197   1199     1  0.0000000  0.6508444  3
   1197   1200   1202   1204     1  180.0000771  9.6232000  2
   1198   1197   1200   1201     1  0.0000000  3.3472000  1
   1198   1197   1200   1201     1  0.0000000  0.0000000  2
   1198   1197   1200   1201     1  180.0000771  0.3347200  3
   1198   1197   1200   1202     1  180.0000771  0.0000000  2
   1199   1197   1200   1201     1  0.0000000  3.3472000  1
   1199   1197   1200   1201     1  0.0000000  0.0000000  2
   1199   1197   1200   1201     1  180.0000771  0.3347200  3
   1199   1197   1200   1202     1  180.0000771  0.0000000  2
   1201   1200   1202   1204     1  0.0000000  7.9496000  1
   1201   1200   1202   1204     1  180.0000771  9.6232000  2
   1205   1207   1209   1211     1  0.0000000  0.6508444  3
   1205   1207   1209   1212     1  0.0000000  0.6508444  3
   1206   1205   1207   1209     1  0.0000000  0.0000000  2
   1206   1205   1207   1208     1  0.0000000  0.0000000  2
   1206   1205   1207   1210     1  0.0000000  0.0000000  2
   1208   1207   1209   1213     1  0.0000000  0.6508444  3
   1208   1207   1209   1211     1  0.0000000  0.6508444  3
   1208   1207   1209   1212     1  0.0000000  0.6508444  3
   1209   1213   1214   1224     1  0.0000000  1.2552000  3
   1209   1213   1214   1225     1  0.0000000  1.2552000  3
   1209   1213   1215   1216     1  0.0000000  1.2552000  3
   1209   1213   1215   1218     1  0.0000000  1.2552000  3
   1210   1207   1209   1213     1  0.0000000  0.6508444  3
   1210   1207   1209   1211     1  0.0000000  0.6508444  3
   1210   1207   1209   1212     1  0.0000000  0.6508444  3
   1211   1209   1213   1214     1  0.0000000  1.2552000  3
   1211   1209   1213   1215     1  0.0000000  1.2552000  3
   1212   1209   1213   1214     1  0.0000000  1.2552000  3
   1212   1209   1213   1215     1  0.0000000  1.2552000  3
   1213   1214   1226   1227     1  0.0000000  0.6508444  3
   1213   1214   1226   1228     1  0.0000000  0.6508444  3
   1213   1215   1217   1219     1  0.0000000  0.6508444  3
   1213   1215   1217   1220     1  0.0000000  0.6508444  3
   1214   1213   1215   1216     1  0.0000000  1.2552000  3
   1214   1213   1215   1218     1  0.0000000  1.2552000  3
   1215   1213   1214   1224     1  0.0000000  1.2552000  3
   1215   1213   1214   1225     1  0.0000000  1.2552000  3
   1216   1215   1217   1221     1  0.0000000  0.6508444  3
   1216   1215   1217   1219     1  0.0000000  0.6508444  3
   1216   1215   1217   1220     1  0.0000000  0.6508444  3
   1217   1221   1222   1232     1  180.0000771  9.6232000  2
   1218   1215   1217   1221     1  0.0000000  0.6508444  3
   1218   1215   1217   1219     1  0.0000000  0.6508444  3
   1218   1215   1217   1220     1  0.0000000  0.6508444  3
   1219   1217   1221   1222     1  180.0000771  0.0000000  2
   1219   1217   1221   1223     1  0.0000000  3.3472000  1
   1219   1217   1221   1223     1  0.0000000  0.0000000  2
   1219   1217   1221   1223     1  180.0000771  0.3347200  3
   1220   1217   1221   1222     1  180.0000771  0.0000000  2
   1220   1217   1221   1223     1  0.0000000  3.3472000  1
   1220   1217   1221   1223     1  0.0000000  0.0000000  2
   1220   1217   1221   1223     1  180.0000771  0.3347200  3
   1223   1221   1222   1232     1  0.0000000  7.9496000  1
   1223   1221   1222   1232     1  180.0000771  9.6232000  2
   1224   1214   1226   1229     1  0.0000000  0.6508444  3
   1224   1214   1226   1227     1  0.0000000  0.6508444  3
   1224   1214   1226   1228     1  0.0000000  0.6508444  3
   1225   1214   1226   1229     1  0.0000000  0.6508444  3
   1225   1214   1226   1227     1  0.0000000  0.6508444  3
   1225   1214   1226   1228     1  0.0000000  0.6508444  3
   1226   1229   1231   1233     1  180.0000771  9.6232000  2
   1227   1226   1229   1230     1  0.0000000  3.3472000  1
   1227   1226   1229   1230     1  0.0000000  0.0000000  2
   1227   1226   1229   1230     1  180.0000771  0.3347200  3
   1227   1226   1229   1231     1  180.0000771  0.0000000  2
   1228   1226   1229   1230     1  0.0000000  3.3472000  1
   1228   1226   1229   1230     1  0.0000000  0.0000000  2
   1228   1226   1229   1230     1  180.0000771  0.3347200  3
   1228   1226   1229   1231     1  180.0000771  0.0000000  2
   1230   1229   1231   1233     1  0.0000000  7.9496000  1
   1230   1229   1231   1233     1  180.0000771  9.6232000  2
   1234   1236   1238   1240     1  0.0000000  0.6508444  3
   1234   1236   1238   1241     1  0.0000000  0.6508444  3
   1235   1234   1236   1238     1  0.0000000  0.0000000  2
   1235   1234   1236   1237     1  0.0000000  0.0000000  2
   1235   1234   1236   1239     1  0.0000000  0.0000000  2
   1237   1236   1238   1242     1  0.0000000  0.6508444  3
   1237   1236   1238   1240     1  0.0000000  0.6508444  3
   1237   1236   1238   1241     1  0.0000000  0.6508444  3
   1238   1242   1243   1253     1  0.0000000  1.2552000  3
   1238   1242   1243   1254     1  0.0000000  1.2552000  3
   1238   1242   1244   1245     1  0.0000000  1.2552000  3
   1238   1242   1244   1247     1  0.0000000  1.2552000  3
   1239   1236   1238   1242     1  0.0000000  0.6508444  3
   1239   1236   1238   1240     1  0.0000000  0.6508444  3
   1239   1236   1238   1241     1  0.0000000  0.6508444  3
   1240   1238   1242   1243     1  0.0000000  1.2552000  3
   1240   1238   1242   1244     1  0.0000000  1.2552000  3
   1241   1238   1242   1243     1  0.0000000  1.2552000  3
   1241   1238   1242   1244     1  0.0000000  1.2552000  3
   1242   1243   1255   1256     1  0.0000000  0.6508444  3
   1242   1243   1255   1257     1  0.0000000  0.6508444  3
   1242   1244   1246   1248     1  0.0000000  0.6508444  3
   1242   1244   1246   1249     1  0.0000000  0.6508444  3
   1243   1242   1244   1245     1  0.0000000  1.2552000  3
   1243   1242   1244   1247     1  0.0000000  1.2552000  3
   1244   1242   1243   1253     1  0.0000000  1.2552000  3
   1244   1242   1243   1254     1  0.0000000  1.2552000  3
   1245   1244   1246   1250     1  0.0000000  0.6508444  3
   1245   1244   1246   1248     1  0.0000000  0.6508444  3
   1245   1244   1246   1249     1  0.0000000  0.6508444  3
   1246   1250   1251   1261     1  180.0000771  9.6232000  2
   1247   1244   1246   1250     1  0.0000000  0.6508444  3
   1247   1244   1246   1248     1  0.0000000  0.6508444  3
   1247   1244   1246   1249     1  0.0000000  0.6508444  3
   1248   1246   1250   1251     1  180.0000771  0.0000000  2
   1248   1246   1250   1252     1  0.0000000  3.3472000  1
   1248   1246   1250   1252     1  0.0000000  0.0000000  2
   1248   1246   1250   1252     1  180.0000771  0.3347200  3
   1249   1246   1250   1251     1  180.0000771  0.0000000  2
   1249   1246   1250   1252     1  0.0000000  3.3472000  1
   1249   1246   1250   1252     1  0.0000000  0.0000000  2
   1249   1246   1250   1252     1  180.0000771  0.3347200  3
   1252   1250   1251   1261     1  0.0000000  7.9496000  1
   1252   1250   1251   1261     1  180.0000771  9.6232000  2
   1253   1243   1255   1258     1  0.0000000  0.6508444  3
   1253   1243   1255   1256     1  0.0000000  0.6508444  3
   1253   1243   1255   1257     1  0.0000000  0.6508444  3
   1254   1243   1255   1258     1  0.0000000  0.6508444  3
   1254   1243   1255   1256     1  0.0000000  0.6508444  3
   1254   1243   1255   1257     1  0.0000000  0.6508444  3
   1255   1258   1260   1262     1  180.0000771  9.6232000  2
   1256   1255   1258   1259     1  0.0000000  3.3472000  1
   1256   1255   1258   1259     1  0.0000000  0.0000000  2
   1256   1255   1258   1259     1  180.0000771  0.3347200  3
   1256   1255   1258   1260     1  180.0000771  0.0000000  2
   1257   1255   1258   1259     1  0.0000000  3.3472000  1
   1257   1255   1258   1259     1  0.0000000  0.0000000  2
   1257   1255   1258   1259     1  180.0000771  0.3347200  3
   1257   1255   1258   1260     1  180.0000771  0.0000000  2
   1259   1258   1260   1262     1  0.0000000  7.9496000  1
   1259   1258   1260   1262     1  180.0000771  9.6232000  2
   1263   1265   1267   1269     1  0.0000000  0.6508444  3
   1263   1265   1267   1270     1  0.0000000  0.6508444  3
   1264   1263   1265   1267     1  0.0000000  0.0000000  2
   1264   1263   1265   1266     1  0.0000000  0.0000000  2
   1264   1263   1265   1268     1  0.0000000  0.0000000  2
   1266   1265   1267   1271     1  0.0000000  0.6508444  3
   1266   1265   1267   1269     1  0.0000000  0.6508444  3
   1266   1265   1267   1270     1  0.0000000  0.6508444  3
   1267   1271   1272   1282     1  0.0000000  1.2552000  3
   1267   1271   1272   1283     1  0.0000000  1.2552000  3
   1267   1271   1273   1274     1  0.0000000  1.2552000  3
   1267   1271   1273   1276     1  0.0000000  1.2552000  3
   1268   1265   1267   1271     1  0.0000000  0.6508444  3
   1268   1265   1267   1269     1  0.0000000  0.6508444  3
   1268   1265   1267   1270     1  0.0000000  0.6508444  3
   1269   1267   1271   1272     1  0.0000000  1.2552000  3
   1269   1267   1271   1273     1  0.0000000  1.2552000  3
   1270   1267   1271   1272     1  0.0000000  1.2552000  3
   1270   1267   1271   1273     1  0.0000000  1.2552000  3
   1271   1272   1284   1285     1  0.0000000  0.6508444  3
   1271   1272   1284   1286     1  0.0000000  0.6508444  3
   1271   1273   1275   1277     1  0.0000000  0.6508444  3
   1271   1273   1275   1278     1  0.0000000  0.6508444  3
   1272   1271   1273   1274     1  0.0000000  1.2552000  3
   1272   1271   1273   1276     1  0.0000000  1.2552000  3
   1273   1271   1272   1282     1  0.0000000  1.2552000  3
   1273   1271   1272   1283     1  0.0000000  1.2552000  3
   1274   1273   1275   1279     1  0.0000000  0.6508444  3
   1274   1273   1275   1277     1  0.0000000  0.6508444  3
   1274   1273   1275   1278     1  0.0000000  0.6508444  3
   1275   1279   1280   1290     1  180.0000771  9.6232000  2
   1276   1273   1275   1279     1  0.0000000  0.6508444  3
   1276   1273   1275   1277     1  0.0000000  0.6508444  3
   1276   1273   1275   1278     1  0.0000000  0.6508444  3
   1277   1275   1279   1280     1  180.0000771  0.0000000  2
   1277   1275   1279   1281     1  0.0000000  3.3472000  1
   1277   1275   1279   1281     1  0.0000000  0.0000000  2
   1277   1275   1279   1281     1  180.0000771  0.3347200  3
   1278   1275   1279   1280     1  180.0000771  0.0000000  2
   1278   1275   1279   1281     1  0.0000000  3.3472000  1
   1278   1275   1279   1281     1  0.0000000  0.0000000  2
   1278   1275   1279   1281     1  180.0000771  0.3347200  3
   1281   1279   1280   1290     1  0.0000000  7.9496000  1
   1281   1279   1280   1290     1  180.0000771  9.6232000  2
   1282   1272   1284   1287     1  0.0000000  0.6508444  3
   1282   1272   1284   1285     1  0.0000000  0.6508444  3
   1282   1272   1284   1286     1  0.0000000  0.6508444  3
   1283   1272   1284   1287     1  0.0000000  0.6508444  3
   1283   1272   1284   1285     1  0.0000000  0.6508444  3
   1283   1272   1284   1286     1  0.0000000  0.6508444  3
   1284   1287   1289   1291     1  180.0000771  9.6232000  2
   1285   1284   1287   1288     1  0.0000000  3.3472000  1
   1285   1284   1287   1288     1  0.0000000  0.0000000  2
   1285   1284   1287   1288     1  180.0000771  0.3347200  3
   1285   1284   1287   1289     1  180.0000771  0.0000000  2
   1286   1284   1287   1288     1  0.0000000  3.3472000  1
   1286   1284   1287   1288     1  0.0000000  0.0000000  2
   1286   1284   1287   1288     1  180.0000771  0.3347200  3
   1286   1284   1287   1289     1  180.0000771  0.0000000  2
   1288   1287   1289   1291     1  0.0000000  7.9496000  1
   1288   1287   1289   1291     1  180.0000771  9.6232000  2
   1292   1294   1296   1298     1  0.0000000  0.6508444  3
   1292   1294   1296   1299     1  0.0000000  0.6508444  3
   1293   1292   1294   1296     1  0.0000000  0.0000000  2
   1293   1292   1294   1295     1  0.0000000  0.0000000  2
   1293   1292   1294   1297     1  0.0000000  0.0000000  2
   1295   1294   1296   1300     1  0.0000000  0.6508444  3
   1295   1294   1296   1298     1  0.0000000  0.6508444  3
   1295   1294   1296   1299     1  0.0000000  0.6508444  3
   1296   1300   1301   1311     1  0.0000000  1.2552000  3
   1296   1300   1301   1312     1  0.0000000  1.2552000  3
   1296   1300   1302   1303     1  0.0000000  1.2552000  3
   1296   1300   1302   1305     1  0.0000000  1.2552000  3
   1297   1294   1296   1300     1  0.0000000  0.6508444  3
   1297   1294   1296   1298     1  0.0000000  0.6508444  3
   1297   1294   1296   1299     1  0.0000000  0.6508444  3
   1298   1296   1300   1301     1  0.0000000  1.2552000  3
   1298   1296   1300   1302     1  0.0000000  1.2552000  3
   1299   1296   1300   1301     1  0.0000000  1.2552000  3
   1299   1296   1300   1302     1  0.0000000  1.2552000  3
   1300   1301   1313   1314     1  0.0000000  0.6508444  3
   1300   1301   1313   1315     1  0.0000000  0.6508444  3
   1300   1302   1304   1306     1  0.0000000  0.6508444  3
   1300   1302   1304   1307     1  0.0000000  0.6508444  3
   1301   1300   1302   1303     1  0.0000000  1.2552000  3
   1301   1300   1302   1305     1  0.0000000  1.2552000  3
   1302   1300   1301   1311     1  0.0000000  1.2552000  3
   1302   1300   1301   1312     1  0.0000000  1.2552000  3
   1303   1302   1304   1308     1  0.0000000  0.6508444  3
   1303   1302   1304   1306     1  0.0000000  0.6508444  3
   1303   1302   1304   1307     1  0.0000000  0.6508444  3
   1304   1308   1309   1319     1  180.0000771  9.6232000  2
   1305   1302   1304   1308     1  0.0000000  0.6508444  3
   1305   1302   1304   1306     1  0.0000000  0.6508444  3
   1305   1302   1304   1307     1  0.0000000  0.6508444  3
   1306   1304   1308   1309     1  180.0000771  0.0000000  2
   1306   1304   1308   1310     1  0.0000000  3.3472000  1
   1306   1304   1308   1310     1  0.0000000  0.0000000  2
   1306   1304   1308   1310     1  180.0000771  0.3347200  3
   1307   1304   1308   1309     1  180.0000771  0.0000000  2
   1307   1304   1308   1310     1  0.0000000  3.3472000  1
   1307   1304   1308   1310     1  0.0000000  0.0000000  2
   1307   1304   1308   1310     1  180.0000771  0.3347200  3
   1310   1308   1309   1319     1  0.0000000  7.9496000  1
   1310   1308   1309   1319     1  180.0000771  9.6232000  2
   1311   1301   1313   1316     1  0.0000000  0.6508444  3
   1311   1301   1313   1314     1  0.0000000  0.6508444  3
   1311   1301   1313   1315     1  0.0000000  0.6508444  3
   1312   1301   1313   1316     1  0.0000000  0.6508444  3
   1312   1301   1313   1314     1  0.0000000  0.6508444  3
   1312   1301   1313   1315     1  0.0000000  0.6508444  3
   1313   1316   1318   1320     1  180.0000771  9.6232000  2
   1314   1313   1316   1317     1  0.0000000  3.3472000  1
   1314   1313   1316   1317     1  0.0000000  0.0000000  2
   1314   1313   1316   1317     1  180.0000771  0.3347200  3
   1314   1313   1316   1318     1  180.0000771  0.0000000  2
   1315   1313   1316   1317     1  0.0000000  3.3472000  1
   1315   1313   1316   1317     1  0.0000000  0.0000000  2
   1315   1313   1316   1317     1  180.0000771  0.3347200  3
   1315   1313   1316   1318     1  180.0000771  0.0000000  2
   1317   1316   1318   1320     1  0.0000000  7.9496000  1
   1317   1316   1318   1320     1  180.0000771  9.6232000  2
   1321   1323   1325   1327     1  0.0000000  0.6508444  3
   1321   1323   1325   1328     1  0.0000000  0.6508444  3
   1322   1321   1323   1325     1  0.0000000  0.0000000  2
   1322   1321   1323   1324     1  0.0000000  0.0000000  2
   1322   1321   1323   1326     1  0.0000000  0.0000000  2
   1324   1323   1325   1329     1  0.0000000  0.6508444  3
   1324   1323   1325   1327     1  0.0000000  0.6508444  3
   1324   1323   1325   1328     1  0.0000000  0.6508444  3
   1325   1329   1330   1340     1  0.0000000  1.2552000  3
   1325   1329   1330   1341     1  0.0000000  1.2552000  3
   1325   1329   1331   1332     1  0.0000000  1.2552000  3
   1325   1329   1331   1334     1  0.0000000  1.2552000  3
   1326   1323   1325   1329     1  0.0000000  0.6508444  3
   1326   1323   1325   1327     1  0.0000000  0.6508444  3
   1326   1323   1325   1328     1  0.0000000  0.6508444  3
   1327   1325   1329   1330     1  0.0000000  1.2552000  3
   1327   1325   1329   1331     1  0.0000000  1.2552000  3
   1328   1325   1329   1330     1  0.0000000  1.2552000  3
   1328   1325   1329   1331     1  0.0000000  1.2552000  3
   1329   1330   1342   1343     1  0.0000000  0.6508444  3
   1329   1330   1342   1344     1  0.0000000  0.6508444  3
   1329   1331   1333   1335     1  0.0000000  0.6508444  3
   1329   1331   1333   1336     1  0.0000000  0.6508444  3
   1330   1329   1331   1332     1  0.0000000  1.2552000  3
   1330   1329   1331   1334     1  0.0000000  1.2552000  3
   1331   1329   1330   1340     1  0.0000000  1.2552000  3
   1331   1329   1330   1341     1  0.0000000  1.2552000  3
   1332   1331   1333   1337     1  0.0000000  0.6508444  3
   1332   1331   1333   1335     1  0.0000000  0.6508444  3
   1332   1331   1333   1336     1  0.0000000  0.6508444  3
   1333   1337   1338   1348     1  180.0000771  9.6232000  2
   1334   1331   1333   1337     1  0.0000000  0.6508444  3
   1334   1331   1333   1335     1  0.0000000  0.6508444  3
   1334   1331   1333   1336     1  0.0000000  0.6508444  3
   1335   1333   1337   1338     1  180.0000771  0.0000000  2
   1335   1333   1337   1339     1  0.0000000  3.3472000  1
   1335   1333   1337   1339     1  0.0000000  0.0000000  2
   1335   1333   1337   1339     1  180.0000771  0.3347200  3
   1336   1333   1337   1338     1  180.0000771  0.0000000  2
   1336   1333   1337   1339     1  0.0000000  3.3472000  1
   1336   1333   1337   1339     1  0.0000000  0.0000000  2
   1336   1333   1337   1339     1  180.0000771  0.3347200  3
   1339   1337   1338   1348     1  0.0000000  7.9496000  1
   1339   1337   1338   1348     1  180.0000771  9.6232000  2
   1340   1330   1342   1345     1  0.0000000  0.6508444  3
   1340   1330   1342   1343     1  0.0000000  0.6508444  3
   1340   1330   1342   1344     1  0.0000000  0.6508444  3
   1341   1330   1342   1345     1  0.0000000  0.6508444  3
   1341   1330   1342   1343     1  0.0000000  0.6508444  3
   1341   1330   1342   1344     1  0.0000000  0.6508444  3
   1342   1345   1347   1349     1  180.0000771  9.6232000  2
   1343   1342   1345   1346     1  0.0000000  3.3472000  1
   1343   1342   1345   1346     1  0.0000000  0.0000000  2
   1343   1342   1345   1346     1  180.0000771  0.3347200  3
   1343   1342   1345   1347     1  180.0000771  0.0000000  2
   1344   1342   1345   1346     1  0.0000000  3.3472000  1
   1344   1342   1345   1346     1  0.0000000  0.0000000  2
   1344   1342   1345   1346     1  180.0000771  0.3347200  3
   1344   1342   1345   1347     1  180.0000771  0.0000000  2
   1346   1345   1347   1349     1  0.0000000  7.9496000  1
   1346   1345   1347   1349     1  180.0000771  9.6232000  2
   1350   1352   1354   1356     1  0.0000000  0.6508444  3
   1350   1352   1354   1357     1  0.0000000  0.6508444  3
   1351   1350   1352   1354     1  0.0000000  0.0000000  2
   1351   1350   1352   1353     1  0.0000000  0.0000000  2
   1351   1350   1352   1355     1  0.0000000  0.0000000  2
   1353   1352   1354   1358     1  0.0000000  0.6508444  3
   1353   1352   1354   1356     1  0.0000000  0.6508444  3
   1353   1352   1354   1357     1  0.0000000  0.6508444  3
   1354   1358   1359   1369     1  0.0000000  1.2552000  3
   1354   1358   1359   1370     1  0.0000000  1.2552000  3
   1354   1358   1360   1361     1  0.0000000  1.2552000  3
   1354   1358   1360   1363     1  0.0000000  1.2552000  3
   1355   1352   1354   1358     1  0.0000000  0.6508444  3
   1355   1352   1354   1356     1  0.0000000  0.6508444  3
   1355   1352   1354   1357     1  0.0000000  0.6508444  3
   1356   1354   1358   1359     1  0.0000000  1.2552000  3
   1356   1354   1358   1360     1  0.0000000  1.2552000  3
   1357   1354   1358   1359     1  0.0000000  1.2552000  3
   1357   1354   1358   1360     1  0.0000000  1.2552000  3
   1358   1359   1371   1372     1  0.0000000  0.6508444  3
   1358   1359   1371   1373     1  0.0000000  0.6508444  3
   1358   1360   1362   1364     1  0.0000000  0.6508444  3
   1358   1360   1362   1365     1  0.0000000  0.6508444  3
   1359   1358   1360   1361     1  0.0000000  1.2552000  3
   1359   1358   1360   1363     1  0.0000000  1.2552000  3
   1360   1358   1359   1369     1  0.0000000  1.2552000  3
   1360   1358   1359   1370     1  0.0000000  1.2552000  3
   1361   1360   1362   1366     1  0.0000000  0.6508444  3
   1361   1360   1362   1364     1  0.0000000  0.6508444  3
   1361   1360   1362   1365     1  0.0000000  0.6508444  3
   1362   1366   1367   1377     1  180.0000771  9.6232000  2
   1363   1360   1362   1366     1  0.0000000  0.6508444  3
   1363   1360   1362   1364     1  0.0000000  0.6508444  3
   1363   1360   1362   1365     1  0.0000000  0.6508444  3
   1364   1362   1366   1367     1  180.0000771  0.0000000  2
   1364   1362   1366   1368     1  0.0000000  3.3472000  1
   1364   1362   1366   1368     1  0.0000000  0.0000000  2
   1364   1362   1366   1368     1  180.0000771  0.3347200  3
   1365   1362   1366   1367     1  180.0000771  0.0000000  2
   1365   1362   1366   1368     1  0.0000000  3.3472000  1
   1365   1362   1366   1368     1  0.0000000  0.0000000  2
   1365   1362   1366   1368     1  180.0000771  0.3347200  3
   1368   1366   1367   1377     1  0.0000000  7.9496000  1
   1368   1366   1367   1377     1  180.0000771  9.6232000  2
   1369   1359   1371   1374     1  0.0000000  0.6508444  3
   1369   1359   1371   1372     1  0.0000000  0.6508444  3
   1369   1359   1371   1373     1  0.0000000  0.6508444  3
   1370   1359   1371   1374     1  0.0000000  0.6508444  3
   1370   1359   1371   1372     1  0.0000000  0.6508444  3
   1370   1359   1371   1373     1  0.0000000  0.6508444  3
   1371   1374   1376   1378     1  180.0000771  9.6232000  2
   1372   1371   1374   1375     1  0.0000000  3.3472000  1
   1372   1371   1374   1375     1  0.0000000  0.0000000  2
   1372   1371   1374   1375     1  180.0000771  0.3347200  3
   1372   1371   1374   1376     1  180.0000771  0.0000000  2
   1373   1371   1374   1375     1  0.0000000  3.3472000  1
   1373   1371   1374   1375     1  0.0000000  0.0000000  2
   1373   1371   1374   1375     1  180.0000771  0.3347200  3
   1373   1371   1374   1376     1  180.0000771  0.0000000  2
   1375   1374   1376   1378     1  0.0000000  7.9496000  1
   1375   1374   1376   1378     1  180.0000771  9.6232000  2
   1379   1381   1383   1385     1  0.0000000  0.6508444  3
   1379   1381   1383   1386     1  0.0000000  0.6508444  3
   1380   1379   1381   1383     1  0.0000000  0.0000000  2
   1380   1379   1381   1382     1  0.0000000  0.0000000  2
   1380   1379   1381   1384     1  0.0000000  0.0000000  2
   1382   1381   1383   1387     1  0.0000000  0.6508444  3
   1382   1381   1383   1385     1  0.0000000  0.6508444  3
   1382   1381   1383   1386     1  0.0000000  0.6508444  3
   1383   1387   1388   1398     1  0.0000000  1.2552000  3
   1383   1387   1388   1399     1  0.0000000  1.2552000  3
   1383   1387   1389   1390     1  0.0000000  1.2552000  3
   1383   1387   1389   1392     1  0.0000000  1.2552000  3
   1384   1381   1383   1387     1  0.0000000  0.6508444  3
   1384   1381   1383   1385     1  0.0000000  0.6508444  3
   1384   1381   1383   1386     1  0.0000000  0.6508444  3
   1385   1383   1387   1388     1  0.0000000  1.2552000  3
   1385   1383   1387   1389     1  0.0000000  1.2552000  3
   1386   1383   1387   1388     1  0.0000000  1.2552000  3
   1386   1383   1387   1389     1  0.0000000  1.2552000  3
   1387   1388   1400   1401     1  0.0000000  0.6508444  3
   1387   1388   1400   1402     1  0.0000000  0.6508444  3
   1387   1389   1391   1393     1  0.0000000  0.6508444  3
   1387   1389   1391   1394     1  0.0000000  0.6508444  3
   1388   1387   1389   1390     1  0.0000000  1.2552000  3
   1388   1387   1389   1392     1  0.0000000  1.2552000  3
   1389   1387   1388   1398     1  0.0000000  1.2552000  3
   1389   1387   1388   1399     1  0.0000000  1.2552000  3
   1390   1389   1391   1395     1  0.0000000  0.6508444  3
   1390   1389   1391   1393     1  0.0000000  0.6508444  3
   1390   1389   1391   1394     1  0.0000000  0.6508444  3
   1391   1395   1396   1406     1  180.0000771  9.6232000  2
   1392   1389   1391   1395     1  0.0000000  0.6508444  3
   1392   1389   1391   1393     1  0.0000000  0.6508444  3
   1392   1389   1391   1394     1  0.0000000  0.6508444  3
   1393   1391   1395   1396     1  180.0000771  0.0000000  2
   1393   1391   1395   1397     1  0.0000000  3.3472000  1
   1393   1391   1395   1397     1  0.0000000  0.0000000  2
   1393   1391   1395   1397     1  180.0000771  0.3347200  3
   1394   1391   1395   1396     1  180.0000771  0.0000000  2
   1394   1391   1395   1397     1  0.0000000  3.3472000  1
   1394   1391   1395   1397     1  0.0000000  0.0000000  2
   1394   1391   1395   1397     1  180.0000771  0.3347200  3
   1397   1395   1396   1406     1  0.0000000  7.9496000  1
   1397   1395   1396   1406     1  180.0000771  9.6232000  2
   1398   1388   1400   1403     1  0.0000000  0.6508444  3
   1398   1388   1400   1401     1  0.0000000  0.6508444  3
   1398   1388   1400   1402     1  0.0000000  0.6508444  3
   1399   1388   1400   1403     1  0.0000000  0.6508444  3
   1399   1388   1400   1401     1  0.0000000  0.6508444  3
   1399   1388   1400   1402     1  0.0000000  0.6508444  3
   1400   1403   1405   1407     1  180.0000771  9.6232000  2
   1401   1400   1403   1404     1  0.0000000  3.3472000  1
   1401   1400   1403   1404     1  0.0000000  0.0000000  2
   1401   1400   1403   1404     1  180.0000771  0.3347200  3
   1401   1400   1403   1405     1  180.0000771  0.0000000  2
   1402   1400   1403   1404     1  0.0000000  3.3472000  1
   1402   1400   1403   1404     1  0.0000000  0.0000000  2
   1402   1400   1403   1404     1  180.0000771  0.3347200  3
   1402   1400   1403   1405     1  180.0000771  0.0000000  2
   1404   1403   1405   1407     1  0.0000000  7.9496000  1
   1404   1403   1405   1407     1  180.0000771  9.6232000  2
   1408   1410   1412   1414     1  0.0000000  0.6508444  3
   1408   1410   1412   1415     1  0.0000000  0.6508444  3
   1409   1408   1410   1412     1  0.0000000  0.0000000  2
   1409   1408   1410   1411     1  0.0000000  0.0000000  2
   1409   1408   1410   1413     1  0.0000000  0.0000000  2
   1411   1410   1412   1416     1  0.0000000  0.6508444  3
   1411   1410   1412   1414     1  0.0000000  0.6508444  3
   1411   1410   1412   1415     1  0.0000000  0.6508444  3
   1412   1416   1417   1427     1  0.0000000  1.2552000  3
   1412   1416   1417   1428     1  0.0000000  1.2552000  3
   1412   1416   1418   1419     1  0.0000000  1.2552000  3
   1412   1416   1418   1421     1  0.0000000  1.2552000  3
   1413   1410   1412   1416     1  0.0000000  0.6508444  3
   1413   1410   1412   1414     1  0.0000000  0.6508444  3
   1413   1410   1412   1415     1  0.0000000  0.6508444  3
   1414   1412   1416   1417     1  0.0000000  1.2552000  3
   1414   1412   1416   1418     1  0.0000000  1.2552000  3
   1415   1412   1416   1417     1  0.0000000  1.2552000  3
   1415   1412   1416   1418     1  0.0000000  1.2552000  3
   1416   1417   1429   1430     1  0.0000000  0.6508444  3
   1416   1417   1429   1431     1  0.0000000  0.6508444  3
   1416   1418   1420   1422     1  0.0000000  0.6508444  3
   1416   1418   1420   1423     1  0.0000000  0.6508444  3
   1417   1416   1418   1419     1  0.0000000  1.2552000  3
   1417   1416   1418   1421     1  0.0000000  1.2552000  3
   1418   1416   1417   1427     1  0.0000000  1.2552000  3
   1418   1416   1417   1428     1  0.0000000  1.2552000  3
   1419   1418   1420   1424     1  0.0000000  0.6508444  3
   1419   1418   1420   1422     1  0.0000000  0.6508444  3
   1419   1418   1420   1423     1  0.0000000  0.6508444  3
   1420   1424   1425   1435     1  180.0000771  9.6232000  2
   1421   1418   1420   1424     1  0.0000000  0.6508444  3
   1421   1418   1420   1422     1  0.0000000  0.6508444  3
   1421   1418   1420   1423     1  0.0000000  0.6508444  3
   1422   1420   1424   1425     1  180.0000771  0.0000000  2
   1422   1420   1424   1426     1  0.0000000  3.3472000  1
   1422   1420   1424   1426     1  0.0000000  0.0000000  2
   1422   1420   1424   1426     1  180.0000771  0.3347200  3
   1423   1420   1424   1425     1  180.0000771  0.0000000  2
   1423   1420   1424   1426     1  0.0000000  3.3472000  1
   1423   1420   1424   1426     1  0.0000000  0.0000000  2
   1423   1420   1424   1426     1  180.0000771  0.3347200  3
   1426   1424   1425   1435     1  0.0000000  7.9496000  1
   1426   1424   1425   1435     1  180.0000771  9.6232000  2
   1427   1417   1429   1432     1  0.0000000  0.6508444  3
   1427   1417   1429   1430     1  0.0000000  0.6508444  3
   1427   1417   1429   1431     1  0.0000000  0.6508444  3
   1428   1417   1429   1432     1  0.0000000  0.6508444  3
   1428   1417   1429   1430     1  0.0000000  0.6508444  3
   1428   1417   1429   1431     1  0.0000000  0.6508444  3
   1429   1432   1434   1436     1  180.0000771  9.6232000  2
   1430   1429   1432   1433     1  0.0000000  3.3472000  1
   1430   1429   1432   1433     1  0.0000000  0.0000000  2
   1430   1429   1432   1433     1  180.0000771  0.3347200  3
   1430   1429   1432   1434     1  180.0000771  0.0000000  2
   1431   1429   1432   1433     1  0.0000000  3.3472000  1
   1431   1429   1432   1433     1  0.0000000  0.0000000  2
   1431   1429   1432   1433     1  180.0000771  0.3347200  3
   1431   1429   1432   1434     1  180.0000771  0.0000000  2
   1433   1432   1434   1436     1  0.0000000  7.9496000  1
   1433   1432   1434   1436     1  180.0000771  9.6232000  2
   1437   1439   1441   1443     1  0.0000000  0.6508444  3
   1437   1439   1441   1444     1  0.0000000  0.6508444  3
   1438   1437   1439   1441     1  0.0000000  0.0000000  2
   1438   1437   1439   1440     1  0.0000000  0.0000000  2
   1438   1437   1439   1442     1  0.0000000  0.0000000  2
   1440   1439   1441   1445     1  0.0000000  0.6508444  3
   1440   1439   1441   1443     1  0.0000000  0.6508444  3
   1440   1439   1441   1444     1  0.0000000  0.6508444  3
   1441   1445   1446   1456     1  0.0000000  1.2552000  3
   1441   1445   1446   1457     1  0.0000000  1.2552000  3
   1441   1445   1447   1448     1  0.0000000  1.2552000  3
   1441   1445   1447   1450     1  0.0000000  1.2552000  3
   1442   1439   1441   1445     1  0.0000000  0.6508444  3
   1442   1439   1441   1443     1  0.0000000  0.6508444  3
   1442   1439   1441   1444     1  0.0000000  0.6508444  3
   1443   1441   1445   1446     1  0.0000000  1.2552000  3
   1443   1441   1445   1447     1  0.0000000  1.2552000  3
   1444   1441   1445   1446     1  0.0000000  1.2552000  3
   1444   1441   1445   1447     1  0.0000000  1.2552000  3
   1445   1446   1458   1459     1  0.0000000  0.6508444  3
   1445   1446   1458   1460     1  0.0000000  0.6508444  3
   1445   1447   1449   1451     1  0.0000000  0.6508444  3
   1445   1447   1449   1452     1  0.0000000  0.6508444  3
   1446   1445   1447   1448     1  0.0000000  1.2552000  3
   1446   1445   1447   1450     1  0.0000000  1.2552000  3
   1447   1445   1446   1456     1  0.0000000  1.2552000  3
   1447   1445   1446   1457     1  0.0000000  1.2552000  3
   1448   1447   1449   1453     1  0.0000000  0.6508444  3
   1448   1447   1449   1451     1  0.0000000  0.6508444  3
   1448   1447   1449   1452     1  0.0000000  0.6508444  3
   1449   1453   1454   1464     1  180.0000771  9.6232000  2
   1450   1447   1449   1453     1  0.0000000  0.6508444  3
   1450   1447   1449   1451     1  0.0000000  0.6508444  3
   1450   1447   1449   1452     1  0.0000000  0.6508444  3
   1451   1449   1453   1454     1  180.0000771  0.0000000  2
   1451   1449   1453   1455     1  0.0000000  3.3472000  1
   1451   1449   1453   1455     1  0.0000000  0.0000000  2
   1451   1449   1453   1455     1  180.0000771  0.3347200  3
   1452   1449   1453   1454     1  180.0000771  0.0000000  2
   1452   1449   1453   1455     1  0.0000000  3.3472000  1
   1452   1449   1453   1455     1  0.0000000  0.0000000  2
   1452   1449   1453   1455     1  180.0000771  0.3347200  3
   1455   1453   1454   1464     1  0.0000000  7.9496000  1
   1455   1453   1454   1464     1  180.0000771  9.6232000  2
   1456   1446   1458   1461     1  0.0000000  0.6508444  3
   1456   1446   1458   1459     1  0.0000000  0.6508444  3
   1456   1446   1458   1460     1  0.0000000  0.6508444  3
   1457   1446   1458   1461     1  0.0000000  0.6508444  3
   1457   1446   1458   1459     1  0.0000000  0.6508444  3
   1457   1446   1458   1460     1  0.0000000  0.6508444  3
   1458   1461   1463   1465     1  180.0000771  9.6232000  2
   1459   1458   1461   1462     1  0.0000000  3.3472000  1
   1459   1458   1461   1462     1  0.0000000  0.0000000  2
   1459   1458   1461   1462     1  180.0000771  0.3347200  3
   1459   1458   1461   1463     1  180.0000771  0.0000000  2
   1460   1458   1461   1462     1  0.0000000  3.3472000  1
   1460   1458   1461   1462     1  0.0000000  0.0000000  2
   1460   1458   1461   1462     1  180.0000771  0.3347200  3
   1460   1458   1461   1463     1  180.0000771  0.0000000  2
   1462   1461   1463   1465     1  0.0000000  7.9496000  1
   1462   1461   1463   1465     1  180.0000771  9.6232000  2
   1466   1468   1470   1472     1  0.0000000  0.6508444  3
   1466   1468   1470   1473     1  0.0000000  0.6508444  3
   1467   1466   1468   1470     1  0.0000000  0.0000000  2
   1467   1466   1468   1469     1  0.0000000  0.0000000  2
   1467   1466   1468   1471     1  0.0000000  0.0000000  2
   1469   1468   1470   1474     1  0.0000000  0.6508444  3
   1469   1468   1470   1472     1  0.0000000  0.6508444  3
   1469   1468   1470   1473     1  0.0000000  0.6508444  3
   1470   1474   1475   1485     1  0.0000000  1.2552000  3
   1470   1474   1475   1486     1  0.0000000  1.2552000  3
   1470   1474   1476   1477     1  0.0000000  1.2552000  3
   1470   1474   1476   1479     1  0.0000000  1.2552000  3
   1471   1468   1470   1474     1  0.0000000  0.6508444  3
   1471   1468   1470   1472     1  0.0000000  0.6508444  3
   1471   1468   1470   1473     1  0.0000000  0.6508444  3
   1472   1470   1474   1475     1  0.0000000  1.2552000  3
   1472   1470   1474   1476     1  0.0000000  1.2552000  3
   1473   1470   1474   1475     1  0.0000000  1.2552000  3
   1473   1470   1474   1476     1  0.0000000  1.2552000  3
   1474   1475   1487   1488     1  0.0000000  0.6508444  3
   1474   1475   1487   1489     1  0.0000000  0.6508444  3
   1474   1476   1478   1480     1  0.0000000  0.6508444  3
   1474   1476   1478   1481     1  0.0000000  0.6508444  3
   1475   1474   1476   1477     1  0.0000000  1.2552000  3
   1475   1474   1476   1479     1  0.0000000  1.2552000  3
   1476   1474   1475   1485     1  0.0000000  1.2552000  3
   1476   1474   1475   1486     1  0.0000000  1.2552000  3
   1477   1476   1478   1482     1  0.0000000  0.6508444  3
   1477   1476   1478   1480     1  0.0000000  0.6508444  3
   1477   1476   1478   1481     1  0.0000000  0.6508444  3
   1478   1482   1483   1493     1  180.0000771  9.6232000  2
   1479   1476   1478   1482     1  0.0000000  0.6508444  3
   1479   1476   1478   1480     1  0.0000000  0.6508444  3
   1479   1476   1478   1481     1  0.0000000  0.6508444  3
   1480   1478   1482   1483     1  180.0000771  0.0000000  2
   1480   1478   1482   1484     1  0.0000000  3.3472000  1
   1480   1478   1482   1484     1  0.0000000  0.0000000  2
   1480   1478   1482   1484     1  180.0000771  0.3347200  3
   1481   1478   1482   1483     1  180.0000771  0.0000000  2
   1481   1478   1482   1484     1  0.0000000  3.3472000  1
   1481   1478   1482   1484     1  0.0000000  0.0000000  2
   1481   1478   1482   1484     1  180.0000771  0.3347200  3
   1484   1482   1483   1493     1  0.0000000  7.9496000  1
   1484   1482   1483   1493     1  180.0000771  9.6232000  2
   1485   1475   1487   1490     1  0.0000000  0.6508444  3
   1485   1475   1487   1488     1  0.0000000  0.6508444  3
   1485   1475   1487   1489     1  0.0000000  0.6508444  3
   1486   1475   1487   1490     1  0.0000000  0.6508444  3
   1486   1475   1487   1488     1  0.0000000  0.6508444  3
   1486   1475   1487   1489     1  0.0000000  0.6508444  3
   1487   1490   1492   1494     1  180.0000771  9.6232000  2
   1488   1487   1490   1491     1  0.0000000  3.3472000  1
   1488   1487   1490   1491     1  0.0000000  0.0000000  2
   1488   1487   1490   1491     1  180.0000771  0.3347200  3
   1488   1487   1490   1492     1  180.0000771  0.0000000  2
   1489   1487   1490   1491     1  0.0000000  3.3472000  1
   1489   1487   1490   1491     1  0.0000000  0.0000000  2
   1489   1487   1490   1491     1  180.0000771  0.3347200  3
   1489   1487   1490   1492     1  180.0000771  0.0000000  2
   1491   1490   1492   1494     1  0.0000000  7.9496000  1
   1491   1490   1492   1494     1  180.0000771  9.6232000  2
   1495   1497   1499   1501     1  0.0000000  0.6508444  3
   1495   1497   1499   1502     1  0.0000000  0.6508444  3
   1496   1495   1497   1499     1  0.0000000  0.0000000  2
   1496   1495   1497   1498     1  0.0000000  0.0000000  2
   1496   1495   1497   1500     1  0.0000000  0.0000000  2
   1498   1497   1499   1503     1  0.0000000  0.6508444  3
   1498   1497   1499   1501     1  0.0000000  0.6508444  3
   1498   1497   1499   1502     1  0.0000000  0.6508444  3
   1499   1503   1504   1514     1  0.0000000  1.2552000  3
   1499   1503   1504   1515     1  0.0000000  1.2552000  3
   1499   1503   1505   1506     1  0.0000000  1.2552000  3
   1499   1503   1505   1508     1  0.0000000  1.2552000  3
   1500   1497   1499   1503     1  0.0000000  0.6508444  3
   1500   1497   1499   1501     1  0.0000000  0.6508444  3
   1500   1497   1499   1502     1  0.0000000  0.6508444  3
   1501   1499   1503   1504     1  0.0000000  1.2552000  3
   1501   1499   1503   1505     1  0.0000000  1.2552000  3
   1502   1499   1503   1504     1  0.0000000  1.2552000  3
   1502   1499   1503   1505     1  0.0000000  1.2552000  3
   1503   1504   1516   1517     1  0.0000000  0.6508444  3
   1503   1504   1516   1518     1  0.0000000  0.6508444  3
   1503   1505   1507   1509     1  0.0000000  0.6508444  3
   1503   1505   1507   1510     1  0.0000000  0.6508444  3
   1504   1503   1505   1506     1  0.0000000  1.2552000  3
   1504   1503   1505   1508     1  0.0000000  1.2552000  3
   1505   1503   1504   1514     1  0.0000000  1.2552000  3
   1505   1503   1504   1515     1  0.0000000  1.2552000  3
   1506   1505   1507   1511     1  0.0000000  0.6508444  3
   1506   1505   1507   1509     1  0.0000000  0.6508444  3
   1506   1505   1507   1510     1  0.0000000  0.6508444  3
   1507   1511   1512   1522     1  180.0000771  9.6232000  2
   1508   1505   1507   1511     1  0.0000000  0.6508444  3
   1508   1505   1507   1509     1  0.0000000  0.6508444  3
   1508   1505   1507   1510     1  0.0000000  0.6508444  3
   1509   1507   1511   1512     1  180.0000771  0.0000000  2
   1509   1507   1511   1513     1  0.0000000  3.3472000  1
   1509   1507   1511   1513     1  0.0000000  0.0000000  2
   1509   1507   1511   1513     1  180.0000771  0.3347200  3
   1510   1507   1511   1512     1  180.0000771  0.0000000  2
   1510   1507   1511   1513     1  0.0000000  3.3472000  1
   1510   1507   1511   1513     1  0.0000000  0.0000000  2
   1510   1507   1511   1513     1  180.0000771  0.3347200  3
   1513   1511   1512   1522     1  0.0000000  7.9496000  1
   1513   1511   1512   1522     1  180.0000771  9.6232000  2
   1514   1504   1516   1519     1  0.0000000  0.6508444  3
   1514   1504   1516   1517     1  0.0000000  0.6508444  3
   1514   1504   1516   1518     1  0.0000000  0.6508444  3
   1515   1504   1516   1519     1  0.0000000  0.6508444  3
   1515   1504   1516   1517     1  0.0000000  0.6508444  3
   1515   1504   1516   1518     1  0.0000000  0.6508444  3
   1516   1519   1521   1523     1  180.0000771  9.6232000  2
   1517   1516   1519   1520     1  0.0000000  3.3472000  1
   1517   1516   1519   1520     1  0.0000000  0.0000000  2
   1517   1516   1519   1520     1  180.0000771  0.3347200  3
   1517   1516   1519   1521     1  180.0000771  0.0000000  2
   1518   1516   1519   1520     1  0.0000000  3.3472000  1
   1518   1516   1519   1520     1  0.0000000  0.0000000  2
   1518   1516   1519   1520     1  180.0000771  0.3347200  3
   1518   1516   1519   1521     1  180.0000771  0.0000000  2
   1520   1519   1521   1523     1  0.0000000  7.9496000  1
   1520   1519   1521   1523     1  180.0000771  9.6232000  2
   1524   1526   1528   1530     1  0.0000000  0.6508444  3
   1524   1526   1528   1531     1  0.0000000  0.6508444  3
   1525   1524   1526   1528     1  0.0000000  0.0000000  2
   1525   1524   1526   1527     1  0.0000000  0.0000000  2
   1525   1524   1526   1529     1  0.0000000  0.0000000  2
   1527   1526   1528   1532     1  0.0000000  0.6508444  3
   1527   1526   1528   1530     1  0.0000000  0.6508444  3
   1527   1526   1528   1531     1  0.0000000  0.6508444  3
   1528   1532   1533   1543     1  0.0000000  1.2552000  3
   1528   1532   1533   1544     1  0.0000000  1.2552000  3
   1528   1532   1534   1535     1  0.0000000  1.2552000  3
   1528   1532   1534   1537     1  0.0000000  1.2552000  3
   1529   1526   1528   1532     1  0.0000000  0.6508444  3
   1529   1526   1528   1530     1  0.0000000  0.6508444  3
   1529   1526   1528   1531     1  0.0000000  0.6508444  3
   1530   1528   1532   1533     1  0.0000000  1.2552000  3
   1530   1528   1532   1534     1  0.0000000  1.2552000  3
   1531   1528   1532   1533     1  0.0000000  1.2552000  3
   1531   1528   1532   1534     1  0.0000000  1.2552000  3
   1532   1533   1545   1546     1  0.0000000  0.6508444  3
   1532   1533   1545   1547     1  0.0000000  0.6508444  3
   1532   1534   1536   1538     1  0.0000000  0.6508444  3
   1532   1534   1536   1539     1  0.0000000  0.6508444  3
   1533   1532   1534   1535     1  0.0000000  1.2552000  3
   1533   1532   1534   1537     1  0.0000000  1.2552000  3
   1534   1532   1533   1543     1  0.0000000  1.2552000  3
   1534   1532   1533   1544     1  0.0000000  1.2552000  3
   1535   1534   1536   1540     1  0.0000000  0.6508444  3
   1535   1534   1536   1538     1  0.0000000  0.6508444  3
   1535   1534   1536   1539     1  0.0000000  0.6508444  3
   1536   1540   1541   1551     1  180.0000771  9.6232000  2
   1537   1534   1536   1540     1  0.0000000  0.6508444  3
   1537   1534   1536   1538     1  0.0000000  0.6508444  3
   1537   1534   1536   1539     1  0.0000000  0.6508444  3
   1538   1536   1540   1541     1  180.0000771  0.0000000  2
   1538   1536   1540   1542     1  0.0000000  3.3472000  1
   1538   1536   1540   1542     1  0.0000000  0.0000000  2
   1538   1536   1540   1542     1  180.0000771  0.3347200  3
   1539   1536   1540   1541     1  180.0000771  0.0000000  2
   1539   1536   1540   1542     1  0.0000000  3.3472000  1
   1539   1536   1540   1542     1  0.0000000  0.0000000  2
   1539   1536   1540   1542     1  180.0000771  0.3347200  3
   1542   1540   1541   1551     1  0.0000000  7.9496000  1
   1542   1540   1541   1551     1  180.0000771  9.6232000  2
   1543   1533   1545   1548     1  0.0000000  0.6508444  3
   1543   1533   1545   1546     1  0.0000000  0.6508444  3
   1543   1533   1545   1547     1  0.0000000  0.6508444  3
   1544   1533   1545   1548     1  0.0000000  0.6508444  3
   1544   1533   1545   1546     1  0.0000000  0.6508444  3
   1544   1533   1545   1547     1  0.0000000  0.6508444  3
   1545   1548   1550   1552     1  180.0000771  9.6232000  2
   1546   1545   1548   1549     1  0.0000000  3.3472000  1
   1546   1545   1548   1549     1  0.0000000  0.0000000  2
   1546   1545   1548   1549     1  180.0000771  0.3347200  3
   1546   1545   1548   1550     1  180.0000771  0.0000000  2
   1547   1545   1548   1549     1  0.0000000  3.3472000  1
   1547   1545   1548   1549     1  0.0000000  0.0000000  2
   1547   1545   1548   1549     1  180.0000771  0.3347200  3
   1547   1545   1548   1550     1  180.0000771  0.0000000  2
   1549   1548   1550   1552     1  0.0000000  7.9496000  1
   1549   1548   1550   1552     1  180.0000771  9.6232000  2
   1553   1555   1557   1559     1  0.0000000  0.6508444  3
   1553   1555   1557   1560     1  0.0000000  0.6508444  3
   1554   1553   1555   1557     1  0.0000000  0.0000000  2
   1554   1553   1555   1556     1  0.0000000  0.0000000  2
   1554   1553   1555   1558     1  0.0000000  0.0000000  2
   1556   1555   1557   1561     1  0.0000000  0.6508444  3
   1556   1555   1557   1559     1  0.0000000  0.6508444  3
   1556   1555   1557   1560     1  0.0000000  0.6508444  3
   1557   1561   1562   1572     1  0.0000000  1.2552000  3
   1557   1561   1562   1573     1  0.0000000  1.2552000  3
   1557   1561   1563   1564     1  0.0000000  1.2552000  3
   1557   1561   1563   1566     1  0.0000000  1.2552000  3
   1558   1555   1557   1561     1  0.0000000  0.6508444  3
   1558   1555   1557   1559     1  0.0000000  0.6508444  3
   1558   1555   1557   1560     1  0.0000000  0.6508444  3
   1559   1557   1561   1562     1  0.0000000  1.2552000  3
   1559   1557   1561   1563     1  0.0000000  1.2552000  3
   1560   1557   1561   1562     1  0.0000000  1.2552000  3
   1560   1557   1561   1563     1  0.0000000  1.2552000  3
   1561   1562   1574   1575     1  0.0000000  0.6508444  3
   1561   1562   1574   1576     1  0.0000000  0.6508444  3
   1561   1563   1565   1567     1  0.0000000  0.6508444  3
   1561   1563   1565   1568     1  0.0000000  0.6508444  3
   1562   1561   1563   1564     1  0.0000000  1.2552000  3
   1562   1561   1563   1566     1  0.0000000  1.2552000  3
   1563   1561   1562   1572     1  0.0000000  1.2552000  3
   1563   1561   1562   1573     1  0.0000000  1.2552000  3
   1564   1563   1565   1569     1  0.0000000  0.6508444  3
   1564   1563   1565   1567     1  0.0000000  0.6508444  3
   1564   1563   1565   1568     1  0.0000000  0.6508444  3
   1565   1569   1570   1580     1  180.0000771  9.6232000  2
   1566   1563   1565   1569     1  0.0000000  0.6508444  3
   1566   1563   1565   1567     1  0.0000000  0.6508444  3
   1566   1563   1565   1568     1  0.0000000  0.6508444  3
   1567   1565   1569   1570     1  180.0000771  0.0000000  2
   1567   1565   1569   1571     1  0.0000000  3.3472000  1
   1567   1565   1569   1571     1  0.0000000  0.0000000  2
   1567   1565   1569   1571     1  180.0000771  0.3347200  3
   1568   1565   1569   1570     1  180.0000771  0.0000000  2
   1568   1565   1569   1571     1  0.0000000  3.3472000  1
   1568   1565   1569   1571     1  0.0000000  0.0000000  2
   1568   1565   1569   1571     1  180.0000771  0.3347200  3
   1571   1569   1570   1580     1  0.0000000  7.9496000  1
   1571   1569   1570   1580     1  180.0000771  9.6232000  2
   1572   1562   1574   1577     1  0.0000000  0.6508444  3
   1572   1562   1574   1575     1  0.0000000  0.6508444  3
   1572   1562   1574   1576     1  0.0000000  0.6508444  3
   1573   1562   1574   1577     1  0.0000000  0.6508444  3
   1573   1562   1574   1575     1  0.0000000  0.6508444  3
   1573   1562   1574   1576     1  0.0000000  0.6508444  3
   1574   1577   1579   1581     1  180.0000771  9.6232000  2
   1575   1574   1577   1578     1  0.0000000  3.3472000  1
   1575   1574   1577   1578     1  0.0000000  0.0000000  2
   1575   1574   1577   1578     1  180.0000771  0.3347200  3
   1575   1574   1577   1579     1  180.0000771  0.0000000  2
   1576   1574   1577   1578     1  0.0000000  3.3472000  1
   1576   1574   1577   1578     1  0.0000000  0.0000000  2
   1576   1574   1577   1578     1  180.0000771  0.3347200  3
   1576   1574   1577   1579     1  180.0000771  0.0000000  2
   1578   1577   1579   1581     1  0.0000000  7.9496000  1
   1578   1577   1579   1581     1  180.0000771  9.6232000  2
   1582   1584   1586   1588     1  0.0000000  0.6508444  3
   1582   1584   1586   1589     1  0.0000000  0.6508444  3
   1583   1582   1584   1586     1  0.0000000  0.0000000  2
   1583   1582   1584   1585     1  0.0000000  0.0000000  2
   1583   1582   1584   1587     1  0.0000000  0.0000000  2
   1585   1584   1586   1590     1  0.0000000  0.6508444  3
   1585   1584   1586   1588     1  0.0000000  0.6508444  3
   1585   1584   1586   1589     1  0.0000000  0.6508444  3
   1586   1590   1591   1601     1  0.0000000  1.2552000  3
   1586   1590   1591   1602     1  0.0000000  1.2552000  3
   1586   1590   1592   1593     1  0.0000000  1.2552000  3
   1586   1590   1592   1595     1  0.0000000  1.2552000  3
   1587   1584   1586   1590     1  0.0000000  0.6508444  3
   1587   1584   1586   1588     1  0.0000000  0.6508444  3
   1587   1584   1586   1589     1  0.0000000  0.6508444  3
   1588   1586   1590   1591     1  0.0000000  1.2552000  3
   1588   1586   1590   1592     1  0.0000000  1.2552000  3
   1589   1586   1590   1591     1  0.0000000  1.2552000  3
   1589   1586   1590   1592     1  0.0000000  1.2552000  3
   1590   1591   1603   1604     1  0.0000000  0.6508444  3
   1590   1591   1603   1605     1  0.0000000  0.6508444  3
   1590   1592   1594   1596     1  0.0000000  0.6508444  3
   1590   1592   1594   1597     1  0.0000000  0.6508444  3
   1591   1590   1592   1593     1  0.0000000  1.2552000  3
   1591   1590   1592   1595     1  0.0000000  1.2552000  3
   1592   1590   1591   1601     1  0.0000000  1.2552000  3
   1592   1590   1591   1602     1  0.0000000  1.2552000  3
   1593   1592   1594   1598     1  0.0000000  0.6508444  3
   1593   1592   1594   1596     1  0.0000000  0.6508444  3
   1593   1592   1594   1597     1  0.0000000  0.6508444  3
   1594   1598   1599   1609     1  180.0000771  9.6232000  2
   1595   1592   1594   1598     1  0.0000000  0.6508444  3
   1595   1592   1594   1596     1  0.0000000  0.6508444  3
   1595   1592   1594   1597     1  0.0000000  0.6508444  3
   1596   1594   1598   1599     1  180.0000771  0.0000000  2
   1596   1594   1598   1600     1  0.0000000  3.3472000  1
   1596   1594   1598   1600     1  0.0000000  0.0000000  2
   1596   1594   1598   1600     1  180.0000771  0.3347200  3
   1597   1594   1598   1599     1  180.0000771  0.0000000  2
   1597   1594   1598   1600     1  0.0000000  3.3472000  1
   1597   1594   1598   1600     1  0.0000000  0.0000000  2
   1597   1594   1598   1600     1  180.0000771  0.3347200  3
   1600   1598   1599   1609     1  0.0000000  7.9496000  1
   1600   1598   1599   1609     1  180.0000771  9.6232000  2
   1601   1591   1603   1606     1  0.0000000  0.6508444  3
   1601   1591   1603   1604     1  0.0000000  0.6508444  3
   1601   1591   1603   1605     1  0.0000000  0.6508444  3
   1602   1591   1603   1606     1  0.0000000  0.6508444  3
   1602   1591   1603   1604     1  0.0000000  0.6508444  3
   1602   1591   1603   1605     1  0.0000000  0.6508444  3
   1603   1606   1608   1610     1  180.0000771  9.6232000  2
   1604   1603   1606   1607     1  0.0000000  3.3472000  1
   1604   1603   1606   1607     1  0.0000000  0.0000000  2
   1604   1603   1606   1607     1  180.0000771  0.3347200  3
   1604   1603   1606   1608     1  180.0000771  0.0000000  2
   1605   1603   1606   1607     1  0.0000000  3.3472000  1
   1605   1603   1606   1607     1  0.0000000  0.0000000  2
   1605   1603   1606   1607     1  180.0000771  0.3347200  3
   1605   1603   1606   1608     1  180.0000771  0.0000000  2
   1607   1606   1608   1610     1  0.0000000  7.9496000  1
   1607   1606   1608   1610     1  180.0000771  9.6232000  2
   1611   1613   1615   1617     1  0.0000000  0.6508444  3
   1611   1613   1615   1618     1  0.0000000  0.6508444  3
   1612   1611   1613   1615     1  0.0000000  0.0000000  2
   1612   1611   1613   1614     1  0.0000000  0.0000000  2
   1612   1611   1613   1616     1  0.0000000  0.0000000  2
   1614   1613   1615   1619     1  0.0000000  0.6508444  3
   1614   1613   1615   1617     1  0.0000000  0.6508444  3
   1614   1613   1615   1618     1  0.0000000  0.6508444  3
   1615   1619   1620   1630     1  0.0000000  1.2552000  3
   1615   1619   1620   1631     1  0.0000000  1.2552000  3
   1615   1619   1621   1622     1  0.0000000  1.2552000  3
   1615   1619   1621   1624     1  0.0000000  1.2552000  3
   1616   1613   1615   1619     1  0.0000000  0.6508444  3
   1616   1613   1615   1617     1  0.0000000  0.6508444  3
   1616   1613   1615   1618     1  0.0000000  0.6508444  3
   1617   1615   1619   1620     1  0.0000000  1.2552000  3
   1617   1615   1619   1621     1  0.0000000  1.2552000  3
   1618   1615   1619   1620     1  0.0000000  1.2552000  3
   1618   1615   1619   1621     1  0.0000000  1.2552000  3
   1619   1620   1632   1633     1  0.0000000  0.6508444  3
   1619   1620   1632   1634     1  0.0000000  0.6508444  3
   1619   1621   1623   1625     1  0.0000000  0.6508444  3
   1619   1621   1623   1626     1  0.0000000  0.6508444  3
   1620   1619   1621   1622     1  0.0000000  1.2552000  3
   1620   1619   1621   1624     1  0.0000000  1.2552000  3
   1621   1619   1620   1630     1  0.0000000  1.2552000  3
   1621   1619   1620   1631     1  0.0000000  1.2552000  3
   1622   1621   1623   1627     1  0.0000000  0.6508444  3
   1622   1621   1623   1625     1  0.0000000  0.6508444  3
   1622   1621   1623   1626     1  0.0000000  0.6508444  3
   1623   1627   1628   1638     1  180.0000771  9.6232000  2
   1624   1621   1623   1627     1  0.0000000  0.6508444  3
   1624   1621   1623   1625     1  0.0000000  0.6508444  3
   1624   1621   1623   1626     1  0.0000000  0.6508444  3
   1625   1623   1627   1628     1  180.0000771  0.0000000  2
   1625   1623   1627   1629     1  0.0000000  3.3472000  1
   1625   1623   1627   1629     1  0.0000000  0.0000000  2
   1625   1623   1627   1629     1  180.0000771  0.3347200  3
   1626   1623   1627   1628     1  180.0000771  0.0000000  2
   1626   1623   1627   1629     1  0.0000000  3.3472000  1
   1626   1623   1627   1629     1  0.0000000  0.0000000  2
   1626   1623   1627   1629     1  180.0000771  0.3347200  3
   1629   1627   1628   1638     1  0.0000000  7.9496000  1
   1629   1627   1628   1638     1  180.0000771  9.6232000  2
   1630   1620   1632   1635     1  0.0000000  0.6508444  3
   1630   1620   1632   1633     1  0.0000000  0.6508444  3
   1630   1620   1632   1634     1  0.0000000  0.6508444  3
   1631   1620   1632   1635     1  0.0000000  0.6508444  3
   1631   1620   1632   1633     1  0.0000000  0.6508444  3
   1631   1620   1632   1634     1  0.0000000  0.6508444  3
   1632   1635   1637   1639     1  180.0000771  9.6232000  2
   1633   1632   1635   1636     1  0.0000000  3.3472000  1
   1633   1632   1635   1636     1  0.0000000  0.0000000  2
   1633   1632   1635   1636     1  180.0000771  0.3347200  3
   1633   1632   1635   1637     1  180.0000771  0.0000000  2
   1634   1632   1635   1636     1  0.0000000  3.3472000  1
   1634   1632   1635   1636     1  0.0000000  0.0000000  2
   1634   1632   1635   1636     1  180.0000771  0.3347200  3
   1634   1632   1635   1637     1  180.0000771  0.0000000  2
   1636   1635   1637   1639     1  0.0000000  7.9496000  1
   1636   1635   1637   1639     1  180.0000771  9.6232000  2
   1640   1642   1644   1646     1  0.0000000  0.6508444  3
   1640   1642   1644   1647     1  0.0000000  0.6508444  3
   1641   1640   1642   1644     1  0.0000000  0.0000000  2
   1641   1640   1642   1643     1  0.0000000  0.0000000  2
   1641   1640   1642   1645     1  0.0000000  0.0000000  2
   1643   1642   1644   1648     1  0.0000000  0.6508444  3
   1643   1642   1644   1646     1  0.0000000  0.6508444  3
   1643   1642   1644   1647     1  0.0000000  0.6508444  3
   1644   1648   1649   1659     1  0.0000000  1.2552000  3
   1644   1648   1649   1660     1  0.0000000  1.2552000  3
   1644   1648   1650   1651     1  0.0000000  1.2552000  3
   1644   1648   1650   1653     1  0.0000000  1.2552000  3
   1645   1642   1644   1648     1  0.0000000  0.6508444  3
   1645   1642   1644   1646     1  0.0000000  0.6508444  3
   1645   1642   1644   1647     1  0.0000000  0.6508444  3
   1646   1644   1648   1649     1  0.0000000  1.2552000  3
   1646   1644   1648   1650     1  0.0000000  1.2552000  3
   1647   1644   1648   1649     1  0.0000000  1.2552000  3
   1647   1644   1648   1650     1  0.0000000  1.2552000  3
   1648   1649   1661   1662     1  0.0000000  0.6508444  3
   1648   1649   1661   1663     1  0.0000000  0.6508444  3
   1648   1650   1652   1654     1  0.0000000  0.6508444  3
   1648   1650   1652   1655     1  0.0000000  0.6508444  3
   1649   1648   1650   1651     1  0.0000000  1.2552000  3
   1649   1648   1650   1653     1  0.0000000  1.2552000  3
   1650   1648   1649   1659     1  0.0000000  1.2552000  3
   1650   1648   1649   1660     1  0.0000000  1.2552000  3
   1651   1650   1652   1656     1  0.0000000  0.6508444  3
   1651   1650   1652   1654     1  0.0000000  0.6508444  3
   1651   1650   1652   1655     1  0.0000000  0.6508444  3
   1652   1656   1657   1667     1  180.0000771  9.6232000  2
   1653   1650   1652   1656     1  0.0000000  0.6508444  3
   1653   1650   1652   1654     1  0.0000000  0.6508444  3
   1653   1650   1652   1655     1  0.0000000  0.6508444  3
   1654   1652   1656   1657     1  180.0000771  0.0000000  2
   1654   1652   1656   1658     1  0.0000000  3.3472000  1
   1654   1652   1656   1658     1  0.0000000  0.0000000  2
   1654   1652   1656   1658     1  180.0000771  0.3347200  3
   1655   1652   1656   1657     1  180.0000771  0.0000000  2
   1655   1652   1656   1658     1  0.0000000  3.3472000  1
   1655   1652   1656   1658     1  0.0000000  0.0000000  2
   1655   1652   1656   1658     1  180.0000771  0.3347200  3
   1658   1656   1657   1667     1  0.0000000  7.9496000  1
   1658   1656   1657   1667     1  180.0000771  9.6232000  2
   1659   1649   1661   1664     1  0.0000000  0.6508444  3
   1659   1649   1661   1662     1  0.0000000  0.6508444  3
   1659   1649   1661   1663     1  0.0000000  0.6508444  3
   1660   1649   1661   1664     1  0.0000000  0.6508444  3
   1660   1649   1661   1662     1  0.0000000  0.6508444  3
   1660   1649   1661   1663     1  0.0000000  0.6508444  3
   1661   1664   1666   1668     1  180.0000771  9.6232000  2
   1662   1661   1664   1665     1  0.0000000  3.3472000  1
   1662   1661   1664   1665     1  0.0000000  0.0000000  2
   1662   1661   1664   1665     1  180.0000771  0.3347200  3
   1662   1661   1664   1666     1  180.0000771  0.0000000  2
   1663   1661   1664   1665     1  0.0000000  3.3472000  1
   1663   1661   1664   1665     1  0.0000000  0.0000000  2
   1663   1661   1664   1665     1  180.0000771  0.3347200  3
   1663   1661   1664   1666     1  180.0000771  0.0000000  2
   1665   1664   1666   1668     1  0.0000000  7.9496000  1
   1665   1664   1666   1668     1  180.0000771  9.6232000  2
     33     44     64     65     4  180.0000771  4.6024000  2
     34     69     89     90     4  180.0000771  4.6024000  2
     35     94    114    115     4  180.0000771  4.6024000  2
     36    119    139    140     4  180.0000771  4.6024000  2
     60    144    164    165     4  180.0000771  4.6024000  2
     61    169    189    190     4  180.0000771  4.6024000  2
     85    194    214    215     4  180.0000771  4.6024000  2
     86    219    239    240     4  180.0000771  4.6024000  2
    110    244    264    265     4  180.0000771  4.6024000  2
    111    269    289    290     4  180.0000771  4.6024000  2
    135    294    314    315     4  180.0000771  4.6024000  2
    136    319    339    340     4  180.0000771  4.6024000  2
    160    344    364    365     4  180.0000771  4.6024000  2
    161    369    389    390     4  180.0000771  4.6024000  2
    185    394    414    415     4  180.0000771  4.6024000  2
    186    419    439    440     4  180.0000771  4.6024000  2
    210    444    464    465     4  180.0000771  4.6024000  2
    211    469    489    490     4  180.0000771  4.6024000  2
    235    494    514    515     4  180.0000771  4.6024000  2
    236    519    539    540     4  180.0000771  4.6024000  2
    260    544    564    565     4  180.0000771  4.6024000  2
    261    569    589    590     4  180.0000771  4.6024000  2
    285    594    614    615     4  180.0000771  4.6024000  2
    286    619    639    640     4  180.0000771  4.6024000  2
    310    644    664    665     4  180.0000771  4.6024000  2
    311    669    689    690     4  180.0000771  4.6024000  2
    335    694    714    715     4  180.0000771  4.6024000  2
    336    719    739    740     4  180.0000771  4.6024000  2
    360    743    741    742     4  180.0000771  4.6024000  2
    361    772    770    771     4  180.0000771  4.6024000  2
    385    801    799    800     4  180.0000771  4.6024000  2
    386    830    828    829     4  180.0000771  4.6024000  2
    410    859    857    858     4  180.0000771  4.6024000  2
    411    888    886    887     4  180.0000771  4.6024000  2
    435    917    915    916     4  180.0000771  4.6024000  2
    436    946    944    945     4  180.0000771  4.6024000  2
    460    975    973    974     4  180.0000771  4.6024000  2
    461   1004   1002   1003     4  180.0000771  4.6024000  2
    485   1033   1031   1032     4  180.0000771  4.6024000  2
    486   1062   1060   1061     4  180.0000771  4.6024000  2
    510   1091   1089   1090     4  180.0000771  4.6024000  2
    511   1120   1118   1119     4  180.0000771  4.6024000  2
    535   1149   1147   1148     4  180.0000771  4.6024000  2
    536   1178   1176   1177     4  180.0000771  4.6024000  2
    560   1207   1205   1206     4  180.0000771  4.6024000  2
    561   1236   1234   1235     4  180.0000771  4.6024000  2
    585   1265   1263   1264     4  180.0000771  4.6024000  2
    586   1294   1292   1293     4  180.0000771  4.6024000  2
    610   1323   1321   1322     4  180.0000771  4.6024000  2
    611   1352   1350   1351     4  180.0000771  4.6024000  2
    635   1381   1379   1380     4  180.0000771  4.6024000  2
    636   1410   1408   1409     4  180.0000771  4.6024000  2
    660   1439   1437   1438     4  180.0000771  4.6024000  2
    661   1468   1466   1467     4  180.0000771  4.6024000  2
    685   1497   1495   1496     4  180.0000771  4.6024000  2
    686   1526   1524   1525     4  180.0000771  4.6024000  2
    710   1555   1553   1554     4  180.0000771  4.6024000  2
    711   1584   1582   1583     4  180.0000771  4.6024000  2
    735   1613   1611   1612     4  180.0000771  4.6024000  2
    736   1642   1640   1641     4  180.0000771  4.6024000  2

;[ system ]
;; Name
;Generic title
;
;[ molecules ]
;; Compound       #mols
;system1              1
